default_name
210812
  46.2512493  77.4569683  99.6591094  46.1956511  77.4436292  98.6507286
  46.5980219  78.3588365  99.9531894  45.3845471  77.1015367 100.0367270
  47.2273989  76.5409119 100.0514891  48.0195230  77.0056185 100.6385890
  46.4868330  75.5132833 100.9445840  45.8304846  76.0751843 101.6090939
  45.8898143  74.8415631 100.3277690  47.4243132  74.6916654 101.7790203
  48.6095178  74.9281920 101.9559249  46.9241474  73.6004868 102.3408854
  47.5154873  73.0139464 102.9121885  45.9539525  73.3605070 102.1951718
  48.0968767  76.0177221  98.8848950  47.6786905  76.2982214  97.7385014
  49.0951615  75.2315900  99.1044056  49.4216411  75.2475963 100.0600490
  49.9304169  74.5134990  98.0760265  49.9947410  75.1403908  97.1866625
  51.3624369  74.1992128  98.5631043  51.1065625  73.3918859  99.2492900
  51.9878783  73.8085795  97.7604033  52.0998386  75.2519245  99.2942150
  51.5589009  75.5242307 100.2004911  53.4747558  74.7103601  99.6670216
  54.0165055  74.4382520  98.7611721  54.0326690  75.4749729 100.2075776
  53.3598434  73.8299718 100.2993285  52.1282501  76.6423723  98.6080243
  51.1089380  77.0085717  98.4855488  52.6931320  77.3411480  99.2250512
  52.6026774  76.5560755  97.6304914  49.1347400  73.3224346  97.4914816
  48.2488906  72.7698361  98.1366147  49.3948886  73.0658564  96.2271065
  49.9865548  73.6502534  95.6539482  48.8030361  71.8615016  95.6189828
  47.7146660  71.8910115  95.6707404  49.2283169  71.8218966  94.1244991
  48.6578233  71.0426475  93.6191208  49.0039508  72.7875257  93.6713761
  50.6188015  71.5499089  93.9963146  50.8566747  71.5305715  93.0664532
  49.2649847  70.5119371  96.2786677  50.2859114  70.6387252  97.0099109
  48.6494177  69.3692408  96.0300185  47.4745621  69.2066151  95.2896908
  47.7277120  69.1574918  94.2306336  46.8229225  70.0620629  95.4676626
  46.8769656  67.9004605  95.8114489  46.3011670  67.3992194  95.0334306
  46.2372685  68.0845477  96.6745833  48.1051503  67.0863518  96.2075617
  48.5122247  66.5788395  95.3330214  47.9118207  66.3562386  96.9934740
  49.1365964  68.1820657  96.7261056  48.9771594  68.3113652  97.7966007
  50.6153867  67.9684956  96.4576446  51.3948441  67.7476387  97.3539924
  51.0385230  68.1498046  95.1784778  50.3027070  68.2097475  94.4892166
  52.4202061  68.0626265  94.7109986  52.9421536  67.1554267  95.0153970
  52.2020872  68.0181389  93.1637688  51.3721222  67.3122202  93.1331743
  51.8503981  69.0048989  92.8625719  53.3005904  67.5546604  92.2061507
  52.8448466  67.3743488  91.2325563  54.3989290  68.5651472  92.0639725
  54.8554908  68.7456479  93.0371475  55.1533648  68.1878193  91.3736456
  53.9876109  69.4976920  91.6776074  53.8767465  66.1932611  92.5728415
  53.0841119  65.4453149  92.5526812  54.6510717  65.9207424  91.8557255
  54.3079661  66.2380587  93.5729124  53.3750414  69.0635469  95.2787255
  54.3816520  68.6433557  95.7981910  53.0263005  70.3574285  95.3943808
  52.1897997  70.7523303  94.9888954  53.8940172  71.2150738  96.1095817
  54.9321572  71.1129106  95.7934692  53.4238939  72.6170424  95.7814808
  52.3444854  72.6076366  95.9327686  53.8888689  73.2641645  96.5252088
  53.7354032  73.1406572  94.3891761  54.7792004  73.4481911  94.3258426
  53.5433492  72.3558917  93.6574947  52.8358708  74.3355503  94.0996697
  51.5884253  74.1115856  94.2416040  53.3778986  75.4168696  93.7656167
  53.9767572  71.0983801  97.6169720  55.0787346  71.2504385  98.1326086
  52.8914845  70.7543308  98.3683435  52.0016132  70.8227860  97.8955408
  52.9013095  70.3538797  99.7063167  53.2484214  71.1462287 100.3694876
  51.4109284  70.0212104 100.0605400  51.0630624  69.1708098  99.4741039
  51.3158660  69.7930507 101.1221456  50.6244631  71.1647316  99.7494295
  49.7044256  70.9866499  99.9577988  53.7726613  69.1974319  99.9302197
  54.5177741  69.2217361 100.8949960  53.7004858  68.1643104  99.0690346
  52.8581356  68.0845929  98.5174999  54.6380829  67.0066739  99.0979397
  54.7158370  66.6399218 100.1214369  54.1912700  65.9152172  98.2455774
  53.1834646  65.8091843  98.6470553  54.1363997  66.2714341  97.2168894
  54.8884129  64.5774770  98.2777140  54.2959067  63.8799069  97.6857400
  56.3411950  64.6352248  97.7123757  56.9344727  65.3322933  98.3041662
  56.7905760  63.6434043  97.7618674  56.3150823  64.9703857  96.6755123
  54.7916211  63.9794398  99.7733660  53.7442239  63.8575229 100.0494002
  55.2918508  63.0117481  99.8113717  55.2733151  64.6645172 100.4710327
  56.0354879  67.4956527  98.9459236  56.8772107  67.3038346  99.8113238
  56.4214571  68.1856776  97.8848113  55.7599612  68.2348077  97.1231625
  57.7260058  68.7761284  97.6977645  58.4060578  67.9266687  97.6341524
  57.7959853  69.5605423  96.3794338  57.1270619  70.4195872  96.4312349
  58.8169101  69.9050862  96.2148060  57.4937253  68.9145237  95.5551777
  58.1948447  69.6654353  98.8432758  59.3839573  69.5385278  99.2225104
  57.4423990  70.5890712  99.4128469  56.5728047  70.7736890  98.9334500
  57.7746277  71.3986748 100.5752711  58.5354818  72.1412250 100.3348143
  56.4898720  72.1331628 101.0141321  56.1386965  72.5043603 100.0513303
  55.7258179  71.4944956 101.4573314  56.6233507  73.3204278 101.9060858
  56.1160478  73.4091755 103.1419359  55.7841889  72.4928784 103.6301665
  56.1335731  74.7352645 103.5360616  55.6976472  75.0365542 104.3958829
  56.7387802  75.5369478 102.6469293  56.9873817  76.9230784 102.5737694
  56.5621365  77.5208747 103.3799360  57.7293142  77.4487240 101.5270637
  57.9087989  78.5229556 101.4833390  58.2413870  76.6540546 100.5486119
  58.8858013  77.0069726  99.7434544  57.9083567  75.2582874 100.5825173
  58.3822048  74.7092774  99.7687871  57.1305633  74.6373769 101.5727640
  58.4149378  70.6536430 101.8022905  59.4509498  71.1273852 102.2538172
  57.8414882  69.5486081 102.2199631  56.8846960  69.4311457 101.9185488
  58.3310431  68.7071393 103.2785284  59.0021286  69.2833045 103.9155347
  57.1237871  68.1339095 104.1856637  57.5150498  67.7202680 105.1151332
  56.4135500  68.9288950 104.4129553  56.3965547  66.9972773 103.3700312
  55.9593551  67.5374580 102.5302918  57.0065309  66.1755512 102.9948016
  55.2692807  66.4195331 104.2174212  55.2362942  65.2259151 104.5148535
  54.1724700  67.0844490 104.5544718  53.4667142  66.6347428 105.1199578
  54.0479536  68.0374892 104.2441309  59.4040063  67.7555068 102.7728454
  60.3690045  67.5559383 103.5111191  59.4362955  67.2470346 101.5710445
  58.7003991  67.4355943 100.9054612  60.5261021  66.2657988 101.1799781
  60.7254526  65.4456417 101.8696888  60.2368969  65.6999055  99.8431284
  59.7121859  66.4695974  99.2771318  61.4920997  65.2479766  99.0579424
  62.0171191  64.4779056  99.6231381  61.1909673  64.8461580  98.0904913
  62.1533070  66.1011952  98.9065337  59.1270402  64.5894316 100.0850659
  58.2412711  65.0496179 100.5229514  58.8628205  64.1259281  99.1345649
  59.5144014  63.8296978 100.7639302  61.8574845  66.9418615 101.2576001
  62.6956030  66.3177177 101.8840598  62.0001795  68.1472618 100.8196465
  61.2646125  68.5400474 100.2497693  63.2401311  68.9564566 101.0339515
  64.0723301  68.5105077 100.4892739  63.0424526  70.3419861 100.5454679
  62.5327017  70.3300842  99.5820824  62.4501832  70.9106991 101.2623240
  64.4210286  70.9981068 100.3864466  64.8034489  71.2265543 101.3812668
  65.0822858  70.2815086  99.8992833  64.3604610  72.2873148  99.5529357
  64.0609444  72.0360572  98.5354592  63.6225587  72.9579478  99.9932209
  65.7438996  72.9874944  99.5261761  66.0063460  73.2634048 100.5474968
  66.4774936  72.2787761  99.1419139  65.7352905  74.2059120  98.6697735
  65.0558954  74.8629360  99.0259217  66.6515953  74.6306389  98.6793884
  65.4925419  73.9504050  97.7232597  63.7059082  68.9704400 102.4470436
  64.8895425  68.6023021 102.6694602  62.8257124  69.2615582 103.3576751
  61.8499046  69.2534727 103.0972272  63.1688528  69.6323448 104.7036576
  64.0605846  70.2591730 104.7035443  62.0146930  70.4210611 105.3393459
  61.9374702  71.3778939 104.8230059  61.0968425  69.8526414 105.1891815
  62.0798209  70.7961614 107.0512908  60.9201686  71.4458947 107.0954658
  63.4649693  68.3692345 105.4650597  64.4597549  68.3436716 106.2062947
  62.7234379  67.2674029 105.2746515  61.7858541  67.4000607 104.9233143
  63.1092152  65.9429240 105.7212223  63.2435997  65.9237899 106.8027369
  62.0123264  64.9742848 105.3545246  61.6758899  65.2546556 104.3563754
  62.5338240  64.0183415 105.3064339  60.8216252  64.8509167 106.2692289
  61.1660200  64.7014304 107.2925309  59.9770882  66.1293332 106.1959501
  59.6319246  66.2792497 105.1729712  59.1170358  66.0357536 106.8590137
  60.5813319  66.9827193 106.5037195  59.9424690  63.6285112 105.7374187
  60.5379785  62.7158063 105.7583392  59.0671322  63.5052958 106.3751527
  59.6213465  63.8288514 104.7152430  64.4964338  65.4604674 105.3208647
  65.2134681  64.9013819 106.1166053  64.6662470  65.4795057 103.9751199
  63.8476644  65.3954213 103.3894991  65.9738381  65.2813351 103.3662581
  66.2981902  64.2837448 103.6624145  66.0724139  65.3961422 101.8329831
  65.5969204  66.3117533 101.4813278  67.1289803  65.4101717 101.5654563
  65.3998447  64.1925545 101.1826076  64.3879256  64.1645379 101.5867556
  65.3375390  64.1814660  99.6283222  66.3491696  64.2090011  99.2234222
  64.8361884  63.2743906  99.2907386  64.7835390  65.0532266  99.2801587
  66.2073752  62.9147931 101.5639807  66.2138860  62.7984645 102.6477356
  65.7421941  62.0408133 101.1080562  67.2314764  63.0104164 101.2031874
  67.0268298  66.0330438 104.1624010  68.0887386  65.4529742 104.4429627
  66.8581551  67.3202964 104.3519361  66.0943737  67.8418980 103.9461417
  67.9042381  68.0694451 105.1052804  68.8815487  67.9736445 104.6322209
  67.5109686  69.4981362 105.0945648  67.1242333  69.7411473 104.1048777
  66.7262377  69.6445829 105.8367581  68.7046602  70.4193628 105.4202471
  68.2835175  71.4178955 105.5371751  69.0909693  70.0739538 106.3791840
  69.8576684  70.4631325 104.3844216  70.4059821  69.5216006 104.3532971
  69.4921487  70.7032975 103.3860151  70.7891437  71.5811544 104.8702671
  70.2916257  72.5436128 104.7508929  71.0255838  71.4229900 105.9224930
  72.0259767  71.5704743 104.0852276  71.8071457  71.7174468 103.1102344
  72.6360860  72.3077350 104.4082034  72.4873604  70.6788781 104.1960447
  68.1826416  67.5853546 106.5082465  69.2946916  67.6981736 107.0055850
  67.1571298  67.0202425 107.1468355  66.2360919  67.2268370 106.7875206
  67.2627092  66.2588382 108.4178097  67.8817016  66.8526391 109.0903779
  65.9022913  65.9210927 109.1492449  65.2726247  65.6896507 108.2901443
  65.9811839  65.0418447 109.7886189  65.2895253  67.0563687 109.9297851
  65.9359945  67.5708854 111.0396483  66.9466312  67.2524519 111.2952125
  65.2625451  68.5304766 111.8542087  65.8281429  68.9393559 112.6914773
  63.9703986  68.9842930 111.5986211  63.3432181  69.9200008 112.3482141
  63.8812317  70.2399436 113.0760724  63.2874313  68.3827960 110.5263254
  62.2290007  68.5835458 110.3604199  63.9837416  67.5137663 109.6623992
  63.5129321  67.1671954 108.7424388  68.0972233  64.9823748 108.2802694
  68.9882174  64.7470622 109.0840775  67.9448363  64.2548105 107.2126264
  67.1665432  64.5120554 106.6225550  68.7324385  63.0604711 106.8506358
  69.0682174  62.4923457 107.7181525  67.7178612  62.1753867 106.0308020
  66.7965347  62.1693339 106.6132279  67.5521024  62.7093918 105.0951404
  68.1168441  60.8119683 105.7443445  67.4242654  60.3743199 105.2439461
  70.0111747  63.3734464 106.1148951  70.0651675  63.3654039 104.8836985
  71.1064330  63.7096298 106.8325956  70.9909683  63.5444819 107.8222892
  72.3200671  64.3325959 106.3832469  72.0484970  65.2603736 105.8796822
  73.2339562  64.6702164 107.5796165  74.1348919  65.1546453 107.2031277
  72.5389925  65.5897642 108.5575037  71.6381465  65.1057984 108.9348011
  73.2084118  65.8092816 109.3892422  72.2685585  66.5182514 108.0546344
  73.6391364  63.5631119 108.4100425  74.2013309  63.8838746 109.1190198
  73.0695717  63.5396182 105.3714137  73.8490455  64.1379583 104.6612273
  72.7830638  62.2383082 105.1628990  72.3761507  61.8442607 105.9991093
  73.1112576  61.3450583 104.0732924  74.1957324  61.2439520 104.0309724
  72.5042423  59.9710717 104.2795428  72.5828848  59.3944028 103.3579309
  73.2711011  59.2364867 105.4179604  73.1925114  59.8123649 106.3400708
  72.8377383  58.2478934 105.5695492  74.3207320  59.1341551 105.1424541
  71.1462035  60.0710968 104.6690932  70.7834077  59.1910664 104.7936961
  72.8661408  61.8429873 102.6991966  73.6958801  61.7638575 101.8536813
  71.7089562  62.5009012 102.4330498  71.0139207  62.5164630 103.1657045
  71.3609436  62.9945875 101.1880410  71.6950652  62.3255473 100.3950422
  69.8300918  63.0995038 101.1289871  69.3530728  62.2279985 101.5773515
  69.5673753  63.9904799 101.6992867  69.2038595  63.2729805  99.7221247
  69.0092275  64.3675754  98.9845853  69.1813259  65.3060769  99.5115549
  68.6198820  64.0656143  97.6728099  68.4925070  64.7574168  96.9480448
  68.4551964  62.7028919  97.5187735  68.1273955  61.8993795  96.4286838
  67.9881814  62.3996139  95.4703083  67.9975341  60.5300072  96.6156504
  67.7280552  59.8824232  95.7813147  68.2128660  59.9523819  97.8924253
  68.1396243  58.8776969  98.0591209  68.5298441  60.7663528  98.9850617
  68.6496537  60.2610670  99.9434106  68.7218313  62.1607865  98.8182274
  72.1425433  64.3278922 100.7972282  72.1227819  65.3613053 101.5182080
  72.6914810  64.3455998  99.5920993  72.5778984  63.5092731  99.0373418
  73.3409136  65.5176605  98.9680287  73.5700433  66.3144593  99.6756377
  74.7001369  64.9187274  98.4236382  74.5289069  63.8907467  98.1042088
  75.0305406  65.5130969  97.5717825  75.8020253  64.9426927  99.5348217
  75.9668759  65.9786294  99.8310651  75.4376237  64.3742390 100.3904934
  77.1764701  64.3106714  99.0225480  77.0077940  63.2623498  98.7762370
  77.4949330  64.8467321  98.1285011  78.3008067  64.4173973 100.1291761
  79.1908316  63.9695177  99.6871805  78.4667568  65.4845373 100.2767296
  78.0270620  63.7869713 101.4130319  77.8736845  62.7980545 101.2765815
  78.8150256  63.9235046 102.0299371  77.2026270  64.2021385 101.8229614
  72.5406351  66.0314849  97.7232537  72.4691966  65.3197466  96.7433996
  71.9470734  67.2296339  97.8293170  71.7208626  67.9646953  99.0002677
  72.6899289  68.3192767  99.3513842  71.2970842  67.2800534  99.7349624
  70.7924680  69.0793596  98.6607781  71.1243949  69.9891123  99.1610516
  69.7873843  68.8259510  98.9979608  70.8351026  69.2280396  97.1684569
  71.4107366  70.0725413  96.7895620  69.8017570  69.3132647  96.8322529
  71.4387963  67.9232708  96.6664914  70.6284737  67.2955260  96.2957999
  72.4507517  68.2413359  95.4762277  73.6399382  68.2916946  95.7725545
  72.0627889  68.3694096  94.2125268  71.1234573  68.0800742  93.9800607
  72.9419510  68.9137564  93.1044183  73.6852199  68.1896031  92.7708728
  71.9909395  69.2052309  91.9464594  71.5428226  68.2202239  91.8158778
  71.2419809  69.8961362  92.3335135  72.5062128  69.7149284  90.5957189
  73.1909958  70.5507348  90.7392485  73.2420570  68.5671961  89.9260370
  72.5577548  67.7311284  89.7817451  73.6238019  68.8946526  88.9590087
  74.0734058  68.2510246  90.5561125  71.4083771  70.2706492  89.7414120
  70.9326259  71.1046740  90.2573218  71.8239431  70.6185303  88.7956928
  70.6685829  69.4936901  89.5486995  73.7177407  70.1999268  93.4726455
  73.2859910  71.0487973  94.2282466  74.9220977  70.3625193  92.9135195
  75.2245963  69.5794601  92.3519037  75.8508338  71.4989437  93.0895137
  76.0491780  71.6299070  94.1532841  77.1891517  71.2806679  92.3631757
  77.8155404  70.6222583  92.9650339  76.9955267  70.8141562  91.3972688
  77.9148793  72.5470382  92.1385920  77.8989474  73.5484153  92.8472012
  78.6669074  72.6716677  91.0943606  79.1657976  73.5353215  90.9352677
  78.7519561  71.9047859  90.4426246  75.2181310  72.8012021  92.6280083
  74.8329080  72.8430052  91.4946374  75.0340501  73.8254774  93.4684226
  75.5468539  73.9549559  94.8461964  76.5682963  73.5770050  94.8898864
  74.9171330  73.3776880  95.5231841  75.4677213  75.4093903  95.1046913
  76.3476302  75.9127073  94.7040275  75.3974093  75.5991852  96.1757355
  74.1944430  75.8554862  94.3869248  74.1189422  76.9228747  94.1793665
  73.3485096  75.5443339  94.9998527  74.2045447  75.0852387  93.0997812
  73.1959805  74.7154837  92.9149088  74.6792505  75.9558688  91.8696346
  73.9761006  76.8114518  91.3799093  75.8316499  75.6352702  91.2972133
  76.3491102  74.9535836  91.8335317  76.4818282  76.2420099  90.1334311
  75.9280437  77.0992156  89.7505208  77.8936159  76.7425254  90.6548279
  77.8214196  77.3443640  91.5607403  78.5139666  75.8675620  90.8490036
  78.5417796  77.5588322  89.5917362  77.9435598  78.4017775  88.9515485
  79.8276315  77.3654912  89.4097773  80.3191671  77.8921054  88.7018436
  80.3192466  76.6910510  89.9785881  76.4988870  75.2980692  88.8305301
  77.0618262  75.6924119  87.7649863  75.9868298  74.0845701  88.9100496
  75.6891981  73.7834158  89.8270123  75.8692993  73.1589814  87.8177831
  76.8149605  72.6735125  87.5766526  74.8628978  72.0706640  88.3251393
  75.3304331  71.5433489  89.1566733  73.9664992  72.5811298  88.6772676
  74.5048906  71.1256303  87.2979489  73.8892423  70.4818653  87.6559204
  75.4003735  73.7098600  86.4417168  74.4697977  74.5376275  86.4489108
  75.8957204  73.2545961  85.3027839  76.5912202  72.5245268  85.3609052
  75.5542476  73.7742069  83.9963816  75.8677926  74.8140125  83.9036837
  76.2604257  72.9673812  82.9538881  76.3376318  73.5470903  82.0340643
  77.2576055  72.7949721  83.3588666  75.7172960  71.6294918  82.5715023
  76.0846685  70.5404576  83.2306594  76.9426154  70.5969219  83.9006138
  75.2270220  69.5167630  82.8844087  75.1224116  68.6875557  83.4514814
  74.4630798  69.8325523  81.7709454  73.4797288  69.1558192  80.9502907
  73.2203125  68.1316398  81.2183551  72.9001127  69.8738703  79.8265636
  72.1493090  69.4139567  79.1840115  73.3277529  71.2373605  79.5482340
  73.0170666  71.7748760  78.6523263  74.1733138  71.9015515  80.4579819
  74.4403773  72.9203033  80.1770505  74.7470589  71.2279049  81.5797670
  74.0484653  73.7827990  83.7357883  73.5667755  74.6828398  82.9746797
  73.3019911  72.8494585  84.2872462  73.8909192  72.2023590  84.7917513
  71.8640179  72.5692863  84.2143180  71.5975460  72.3264926  83.1856571
  71.4819521  71.4257130  85.0872268  72.2108204  71.4706566  85.8964427
  70.4838445  71.6032822  85.4876646  71.5305590  70.0391618  84.4320153
  72.5330192  69.8026392  84.0753202  71.1371433  69.0582055  85.5230179
  70.1345428  69.2938226  85.8799152  71.1509289  68.0443570  85.1229903
  71.8432489  69.1315206  86.3501455  70.6107018  69.9132041  83.1428704
  70.9315346  70.6380814  82.3947270  70.6950487  68.9068838  82.7326188
  69.5735056  70.1081045  83.4155184  71.1754687  73.8920102  84.5630838
  70.1136434  74.1434307  83.9452628  71.7410766  74.7164402  85.4254207
  72.5783273  74.3893210  85.8859678  71.1980840  76.0090327  85.8171677
  70.1114943  75.9362393  85.8632433  71.7227084  76.4725411  87.2006236
  72.8110366  76.4517079  87.1439925  71.3863492  77.4996765  87.3418867
  71.2704096  75.6411084  88.3473526  72.1290610  74.8002241  89.0810128
  73.1827565  74.7890312  88.8022655  71.6683615  73.9855237  90.1496364
  72.3280682  73.2932269  90.6727176  70.3095795  74.0049475  90.4409938
  69.7934801  73.2489814  91.4613768  70.4605181  72.7337825  91.9209745
  69.4672353  74.8683228  89.7855783  68.4284478  74.9043540  90.1137896
  69.8882964  75.6671465  88.7538834  69.1784135  76.3187886  88.2444435
  71.4841503  77.0678325  84.7513145  70.5976887  77.7002304  84.1713716
  72.7774436  77.1209683  84.3721429  73.4725785  76.4639497  84.6965090
  73.1951500  78.1674713  83.3959428  72.8750736  79.1566388  83.7233538
  74.7213385  78.1522572  83.3075049  74.6478791  77.0654648  83.2676879
  75.2881575  78.5093315  82.4476712  75.5409554  78.4861805  84.5354355
  75.3706186  79.6448921  85.2846522  76.0043264  79.4881984  86.4517492
  76.1898928  80.3397244  87.1063999  76.3183228  78.1559465  86.5926042
  76.6223233  77.6613454  87.4190746  76.1320464  77.5669632  85.3120885
  76.4580082  76.5427915  85.1306430  72.6991638  77.9729879  81.9588266
  72.6708406  78.9281665  81.2099070  72.2850922  76.7548534  81.5290511
  72.4999802  76.0475319  82.2172509  71.6772767  76.3398568  80.2890241
  72.1085073  76.9300964  79.4804720  72.0468313  74.8644933  80.0710012
  71.6143901  74.2594847  80.8679072  71.6572888  74.5300847  79.1094775
  73.1313529  74.7557851  80.0807323  70.1499781  76.5325942  80.2319241
  69.5269498  76.6029920  79.1752080  69.5301180  76.7922940  81.3719291
  70.1230202  76.5824212  82.1621948  68.1516458  77.0751910  81.6159138
  68.0183058  77.2877701  82.6766352  67.6374897  78.3079928  80.7882234
  67.5113718  77.9261008  79.7751331  66.6605282  78.5371618  81.2138145
  68.5033223  79.6015705  80.7508518  69.5404924  79.3053023  80.5939949
  68.1668550  80.2048951  79.9077081  68.3937592  80.4417446  82.0714575
  67.3758441  80.8070161  82.2075632  68.6806999  79.8379187  82.9323633
  69.3668680  81.6529235  81.9389848  70.3418038  81.3797130  82.3426639
  69.4714589  81.9198074  80.8873513  68.8204103  82.8272380  82.7016028
  68.7238225  82.5802851  83.6761719  69.4530266  83.6096432  82.6136329
  67.9172054  83.0808310  82.3274229  67.3071927  75.8448816  81.5553925
  66.0888228  75.9148902  81.3204338  67.9093004  74.6734765  81.8403352
  68.8942063  74.8062116  82.0204493  67.4011433  73.3484800  81.8225967
  66.5371776  73.2860535  81.1609582  68.4974852  72.3713028  81.3032423
  69.3732129  72.6863129  81.8706653  68.2327368  71.3511424  81.5812372
  68.8195423  72.4275048  79.7749225  68.9842358  73.4458431  79.4228370
  70.1038012  71.6390343  79.6541945  69.9397635  70.6203856  80.0056847
  70.4202434  71.6164787  78.6113827  70.8786498  72.1109519  80.2583500
  67.6126981  71.8952836  78.9388719  66.7339592  72.5090054  79.1370210
  67.8563530  71.9424523  77.8775008  67.4042240  70.8623824  79.2177135
  66.8576069  72.9249750  83.1425792  66.1233054  71.9508066  83.2427701
  67.1807733  73.6795360  84.2231671  67.8848842  74.3912830  84.0899626
  66.7035608  73.4046017  85.6161762  65.7091170  72.9586837  85.6345551
  67.7287427  72.3692370  86.2023169  67.6687486  71.5610048  85.4734405
  68.7260417  72.8083240  86.1759082  67.4527144  71.8152965  87.6013627
  67.4936585  72.6718953  88.2741650  66.1183457  71.0732169  87.7966855
  66.0768619  70.2161611  87.1245001  66.0407915  70.7294337  88.8281405
  65.2911392  71.7478238  87.5759247  68.6195260  70.9149703  87.9902027
  69.5423137  71.4951100  87.9906705  68.4475215  70.5060818  88.9858561
  68.7043428  70.0989606  87.2725444  66.4936627  74.7186435  86.3384214
  67.4296111  75.4482344  86.6459318  65.2248847  74.9495897  86.7070868
  64.6028296  74.1684356  86.5556108  64.6669674  76.1804845  87.2208487
  65.3969574  76.9875865  87.1592039  63.4453903  76.5601280  86.3788242
  63.8210876  76.8264996  85.3908987  62.8705942  75.6364531  86.3114887
  62.5307948  77.7026443  86.9114521  61.4447271  77.8136357  86.3063184
  62.8176812  78.4275471  87.8638482  64.3140200  75.9984406  88.7432006
  63.3668969  75.3138400  89.1371864  65.0005812  76.7471918  89.6057506
  66.0448688  77.6865371  89.2464516  65.5329668  78.5696808  88.8642032
  66.6060987  77.2149105  88.4397991  66.9283657  77.9980976  90.4748711
  66.8566793  79.0463630  90.7648705  67.9721894  77.7427109  90.2923575
  66.3093611  77.0658629  91.5560320  66.1839574  77.6400591  92.4740035
  66.9581545  76.2113575  91.7483525  64.9506728  76.5854708  91.0551413
  64.8098817  75.5265216  91.2717116  63.8180734  77.3902048  91.6927231
  63.6608434  77.4572447  92.9037600  63.0174020  78.1067888  90.8803373
  63.1656409  78.0794813  89.8816487  61.9763134  79.0893254  91.4350095
  62.3245533  79.5029583  92.3814429  61.7562109  80.2239935  90.4647140
  61.2418765  80.9855478  91.0508832  62.7605260  80.5705286  90.2210656
  61.0439100  79.9859684  89.2801747  60.9880469  80.7983054  88.7716594
  60.6689769  78.4323668  91.8424967  59.6310855  79.1089054  91.9875825
  60.6171856  77.1104977  92.0114492  61.4559303  76.6096276  91.7550594
  59.4376582  76.3223954  92.4860121  58.6851557  77.0317464  92.8304831
  58.8701730  75.5483307  91.2887112  58.4911389  76.2554511  90.5508670
  59.9848095  74.6736137  90.6438689  60.3640361  73.9658838  91.3810292
  59.5733778  74.1276614  89.7948936  60.7985859  75.3139557  90.3035300
  57.9058879  74.6457926  91.6102766  57.6023213  74.2043649  90.8136654
  59.7757714  75.3681505  93.6225001  60.9674044  74.9895606  93.7207887
  58.7972388  74.9331293  94.4762223  57.4252910  75.4515382  94.6689668
  56.7958281  75.0214974  93.8899022  57.4601644  76.5345305  94.5506002
  57.0024650  75.0442574  96.0336123  55.9162878  74.9808953  96.0992115
  57.3704128  75.7496067  96.7787285  57.6611900  73.6563696  96.2144409
  57.0429098  72.8989773  95.7325846  57.8533995  73.3647180  97.2469594
  59.0452112  73.8126556  95.4242067  59.8612313  74.0912063  96.0910043
  59.4123511  72.5456978  94.6801180  60.3535907  71.8478012  95.0515079
  58.7635682  72.3863906  93.5545443  58.0083812  73.0353034  93.3851214
  58.8939964  71.2068754  92.6583361  58.7348693  70.2946222  93.2332899
  57.9200630  71.2278711  91.5096956  58.2545527  72.0392494  90.8632583
  57.7660665  69.9085512  90.6597720  57.4311355  69.0967756  91.3054828
  57.0334739  70.0687643  89.8687344  58.7269956  69.6468751  90.2167793
  56.4433739  71.5648142  91.9310738  56.4135670  72.5500982  92.3962931
  55.8032921  71.5606460  91.0488167  56.0879999  70.8176378  92.6406777
  60.2782065  70.8287317  92.1882737  60.5269137  69.6398884  91.8499050
  61.1631812  71.7784669  92.0811105  60.7871689  72.7148436  92.1248460
  62.6047789  71.6127645  91.7662555  62.7435090  71.3717114  90.7123359
  63.3249338  72.9249273  92.0653874  63.0761032  73.8056596  91.4733628
  62.9122156  73.0335029  93.0683705  64.7972190  72.9156901  92.2121935
  65.5047232  73.8466843  92.9328637  66.7865410  73.4687049  92.8013168
  67.5129232  73.9979856  93.4180257  66.9484535  72.4535012  91.8851974
  67.7795167  71.9687674  91.5778426  65.7111572  72.2087566  91.4440999
  65.5565293  71.5374284  90.5994048  63.1919018  70.4244533  92.4503895
  63.9319436  69.6073064  91.8537398  62.9005143  70.3126720  93.7310235
  62.4843420  71.1140310  94.1834875  63.3980397  69.1912108  94.5899498
  64.4544178  68.9870036  94.4154109  63.1526452  69.3384430  96.0715753
  63.3251041  70.3807451  96.3398376  61.6655903  68.9199582  96.4880371
  61.4925304  67.8775714  96.2204914  61.5404403  69.0440388  97.5636960
  60.9492825  69.5527588  95.9640470  64.1472308  68.6541665  97.0173908
  63.9359106  69.0230722  98.0210607  63.9424294  67.5844832  96.9734183
  65.6000483  68.9024700  96.6854697  65.8057329  69.9719735  96.7296959
  66.2318212  68.3814508  97.4048452  65.8122512  68.5333862  95.6820520
  63.0306244  67.7768066  94.0771841  63.9850121  67.0007834  94.0925848
  61.8370400  67.5413800  93.5707608  61.2085954  68.3314998  93.5413107
  61.3929472  66.3005033  93.0145238  61.5384338  65.4546756  93.6864675
  59.8365865  66.5194492  92.8052150  59.6369754  67.4257006  92.2334083
  59.5758184  65.6473241  92.2056336  58.9875167  66.5284561  94.0980368
  59.2218575  67.3951447  94.7161275  57.4993437  66.6050542  93.6388910
  57.2641117  65.7384002  93.0210920  56.8487825  66.6145472  94.5134085
  57.3433610  67.5158370  93.0607523  59.1901105  65.1724276  94.7230325
  60.2478070  65.0275180  94.9429844  58.6152720  65.1080459  95.6468922
  58.8540145  64.3993965  94.0319743  62.0488537  66.0699797  91.6777895
  62.3587152  64.9096513  91.3683355  62.1895640  67.1201007  90.8395243
  61.7226003  67.9877417  91.0614327  62.9050323  67.0218689  89.5613160
  62.4500585  66.2942530  88.8892497  62.7919376  68.4904626  88.8873818
  62.9890864  69.1924526  89.6975926  63.6047552  68.5354299  88.1625331
  61.4179205  68.8773680  88.1707019  60.9821045  67.9318974  87.8478233
  60.7961562  69.3156533  88.9513537  61.4939696  69.8412147  86.9749151
  61.9403219  70.7975109  87.2476170  62.0418303  69.4110383  86.1365260
  60.0903162  70.0741775  86.5559756  59.7953363  69.4089322  85.8555936
  59.2350176  71.0465637  86.9178240  59.6050469  72.0384159  87.6259636
  60.5656419  72.1073247  87.9302806  58.9361111  72.7512888  87.8798074
  57.9814568  70.9293576  86.5996712  57.6670751  70.1166735  86.0889768
  57.3267712  71.6514353  86.8644148  64.3163412  66.5234372  89.7722516
  64.6235412  65.4360989  89.3488574  65.1076425  67.2696491  90.5088133
  64.7425084  68.1950051  90.6834347  66.4627050  66.9807255  90.9145506
  67.1153962  67.0549742  90.0447342  66.9699112  67.9570856  91.9963698
  66.8339223  68.9539439  91.5769896  66.2992146  67.8261310  92.8455558
  68.4217557  67.7924617  92.4619723  68.7511538  66.7898844  92.7348028
  68.9340858  68.1078986  91.5530627  68.7564750  68.7758964  93.6106290
  69.0184123  68.2844418  94.7194172  68.9715759  69.9941090  93.4022385
  66.6894558  65.4991915  91.2862996  67.6469478  64.8187069  90.8357725
  65.9323605  65.0916203  92.2800005  65.5004728  65.8061720  92.8483211
  65.8190497  63.6982548  92.7127950  66.8149769  63.3561434  92.9941989
  64.8673247  63.4820611  93.8674988  63.9074807  63.9057052  93.5719901
  64.6708186  61.9695540  94.2781614  65.6302231  61.5453259  94.5742595
  63.9731890  61.9069714  95.1133243  64.2732481  61.4111341  93.4306923
  65.3650828  64.2464923  95.1665411  66.1726644  63.6469941  95.5866778
  65.7619623  65.2035808  94.8280626  64.3090803  64.4845101  96.2266294
  63.9120360  63.5277891  96.5659532  64.7530842  65.0128436  97.0703258
  63.5013324  65.0843743  95.8073370  65.5135401  62.7299823  91.5521843
  66.3175294  61.7239027  91.3788408  64.3724768  62.9032378  90.8294893
  63.8140252  63.7017121  91.0953274  63.9067914  62.0750498  89.7542313
  63.7127259  61.0943760  90.1886466  62.9681024  62.5147430  89.4171375
  64.8497944  61.9097933  88.5398481  64.8197652  60.8184728  87.9408873
  65.5902680  62.9774261  88.1755146  65.4410490  63.8700485  88.6239099
  66.5303074  62.9149060  87.0241349  66.1158356  62.3395760  86.1963018
  66.7516614  64.3861529  86.5480720  66.5502380  64.8468959  87.5151521
  67.7547712  64.6572862  86.2188949  65.7125328  64.8890113  85.5089165
  64.7999265  64.3016319  85.6100892  65.3928230  66.3743609  85.7355862
  66.3049241  66.9624706  85.6341101  64.6630600  66.7062848  84.9970923
  64.9833122  66.5097582  86.7366201  66.1734617  64.3714838  84.1209141
  66.2103713  63.2821723  84.1326461  65.4697566  64.7024600  83.3571371
  67.1645628  64.7656909  83.8963736  67.7969530  62.1551867  87.3740789
  68.6754719  62.2619898  86.5243810  67.9367085  61.6918718  88.5713532
  67.2531220  61.9552847  89.2666390  69.1453406  60.9223694  89.0176753
  68.9467145  60.5559988  90.0248592  69.5239439  59.7254004  88.1240166
  68.6271798  59.3048454  87.6689926  70.2097984  60.0499535  87.3414767
  70.2116637  58.6491168  88.9986292  71.1423991  59.0146959  89.4324313
  69.5556738  58.2942383  89.7935132  70.5056267  57.5344864  88.0664168
  69.6088272  56.9803253  87.7893695  71.0155337  57.8737190  87.1647431
  71.4088001  56.6322000  88.8099046  72.3742563  56.9279929  88.7875391
  71.1229275  55.4433341  89.3234410  69.8972881  55.0648418  89.4701408
  69.1454994  55.6790722  89.1915103  69.6960955  54.1563208  89.8628374
  72.0566928  54.7728303  89.8360393  72.9950738  55.1462048  89.8475561
  71.8630645  53.8646759  90.2333582  70.3527298  61.9523050  89.2268597
  71.5082701  61.6341877  88.9261753  70.0434974  63.1905348  89.6977262
  69.0647578  63.3753758  89.8650637  70.9842579  64.3126286  89.7661376
  71.8967783  64.0016489  89.2575145  70.4926575  65.6273810  89.1343970
  69.7991424  66.1107510  89.8225027  71.3910572  66.2368804  89.0369881
  69.8489165  65.4803715  87.8061923  68.9949891  64.8057814  87.8681371
  69.3482546  66.9366239  87.3507743  70.2017484  67.6116984  87.2881529
  68.8679695  66.8674895  86.3747377  68.6347279  67.3205513  88.0798696
  70.6958700  65.0048405  86.6450097  71.1004663  64.0180108  86.8698838
  70.0822210  64.9491063  85.7458825  71.5156044  65.7045308  86.4820127
  71.5442052  64.5266978  91.1606115  72.7638931  64.6230309  91.2599357
  70.7061794  64.6209255  92.2167553  69.7997571  65.0532739  92.1091783
  71.1930693  64.3299929  93.6001911  72.1629217  64.7965623  93.7728134
  70.2025429  64.8941392  94.5918828  70.4241038  64.5234688  95.5926892
  70.2508751  65.9830642  94.5893409  68.8682794  64.4676044  94.2017523
  68.2258171  64.8183436  94.8228997  71.6397016  62.8887179  93.9172383
  71.6053755  62.0365475  93.0003565  71.8486368  62.6184563  95.1779919
  71.9951149  63.4197859  95.7750801  72.0526290  61.2476328  95.7617061
  71.2240438  60.5859225  95.5093467  73.3486862  60.6666106  95.1592189
  73.5653898  59.6997008  95.6133382  73.1240805  60.5285446  94.1015847
  74.6276220  61.4741723  95.2286323  75.1905647  62.2482001  94.1521290
  76.3366672  62.7418335  94.6061908  76.9459252  63.3160765  93.9082304
  76.5364264  62.4251237  95.8985414  77.2897614  62.7454956  96.4901055
  75.5013876  61.5536539  96.3050460  75.5231171  61.1082490  97.2996533
  72.0040483  61.1505783  97.2547029  72.2412787  62.1287170  97.9189291
  71.9261958  59.9044177  97.7649340  71.4030407  59.2683417  97.1802837
  72.3009984  59.4695125  99.0716606  72.1101953  60.2749063  99.7809101
  71.3439888  58.3054519  99.3806147  71.6158328  57.4405394  98.7755302
  70.3215543  58.6036291  99.1486272  71.5648257  57.7977633 101.1121462
  73.8374763  59.2558751  99.1946995  74.4884888  58.7704312  98.2565635
  74.3022090  59.4583393 100.4026137  73.7010164  59.8190638 101.1296245
  75.7492538  59.2779677 100.7075210  76.2866706  59.1925209  99.7630734
  76.3448063  60.4003448 101.4964290  75.8538107  60.5069325 102.4637250
  77.4143230  60.2531853 101.6466888  76.1340097  61.5657796 100.7318634
  76.4996902  62.3229031 101.1951576  76.1259588  57.9964085 101.4002636
  77.2483073  57.5318006 101.3457170  75.0947688  57.3306274 101.9416285
  74.1642036  57.7160343 102.0165237  75.4132603  56.1013056 102.7159029
  76.2534924  55.5556444 102.2865277  75.8002803  56.5706821 104.1124584
  76.4318201  57.4481951 103.9737942  74.9010311  56.8536573 104.6596109
  76.5845212  55.6015508 105.0227928  77.8455199  55.0696452 104.7842540
  78.1089906  54.2605119 105.7945037  79.0018892  53.6375336 105.7422621
  77.1785434  54.3706001 106.7331881  77.1859896  53.9653354 107.6582854
  76.1552766  55.1636416 106.2157914  75.2377363  55.3097123 106.7857777
  74.3406373  54.9567373 102.5693238  74.2866387  54.0696733 103.4633968
  73.5024949  54.8563833 101.5289703  74.0880831  54.1294774 101.9147089
  73.7618039  55.3018716 100.1661677  73.6328181  54.8608493 101.1545816
  72.7983121  54.6230263  99.2006297  71.9749138  54.1791717  99.7601906
  73.3243810  53.8434486  98.6496215  71.2945379  54.0191717 100.0336026
  75.2158818  55.0384687  99.7181517  75.9940361  54.2726848 100.3855915
  75.5797626  55.6399255  98.5534691  74.8501191  56.2501097  98.2137709
  76.7694946  55.3636484  97.6463078  77.7332302  55.6669241  98.0553761
  76.8861745  53.8836671  97.1304443  77.5329962  53.3538468  97.8297378
  75.5339153  53.1364466  97.0105172  74.8866832  53.6654565  96.3109887
  75.7088399  52.1234969  96.6479778  75.0536908  53.0940462  97.9881103
  77.7249960  53.7872344  95.8531048  78.7304347  54.1597741  96.0490877
  77.7797195  52.7472296  95.5313985  77.2628154  54.3859581  95.0682355
  76.7391633  56.4977799  96.5725345  75.8750761  56.4471860  95.7288199
  77.6368845  57.5462901  96.7162459  78.7888649  57.6884927  97.6642984
  79.2715650  56.7153506  97.7542721  78.3907464  57.9870610  98.6340704
  79.7193283  58.7569590  97.0567157  80.4073718  58.3638288  96.3082880
  80.2783808  59.3232937  97.8015826  78.6462947  59.6102307  96.4248438
  79.1313610  60.2111487  95.6556186  78.0885272  60.2625132  97.0967980
  77.7186048  58.6182097  95.7875042  76.7350068  59.0624270  95.6348471
  78.2522170  58.0318551  94.4134288  78.9526517  57.0109449  94.4086750
  77.9930575  58.7040302  93.2657642  77.9762728  59.7136448  93.2434955
  77.8333833  57.9650739  91.9787332  77.1854744  57.0999718  92.1198411
  77.1956520  58.8919388  90.9206371  77.9340716  59.6384822  90.6282185
  76.9262996  58.2889639  90.0534748  75.9700569  59.5811333  91.4513759
  75.3516443  58.8542951  91.9780380  76.2737454  60.3675245  92.1423638
  75.1819223  60.1841144  90.3212508  75.8650825  60.8213431  89.7597076
  74.8504032  59.3610538  89.6881902  73.9712773  61.0035307  90.7663403
  73.3843855  61.2048844  89.8701733  73.3966287  60.3694632  91.4414970
  74.2892757  62.2684528  91.4363799  74.8213889  62.8563144  90.8107810
  73.4327254  62.7382046  91.6928068  74.8327378  62.0820654  92.2670470
  79.1958530  57.5844195  91.3892888  80.0869377  58.4273581  91.4875110
  79.3303864  56.3831697  90.8667914  78.6538924  55.7378333  91.2488857
  80.2589299  55.8926293  89.8536452  81.2979230  55.9267530  90.1814074
  79.8524895  54.4091308  89.6472567  79.8110073  53.8321211  90.5710740
  78.8408799  54.6717713  89.3377958  80.5368248  53.5502677  88.5242026
  80.5031186  54.0793921  87.5718413  82.0498709  53.3107294  88.9430270
  82.0843881  52.7812058  89.8951364  82.5491610  52.7154784  88.1785099
  82.5560194  54.2708640  89.0433046  79.9754851  52.1083505  88.7327276
  78.8906041  52.1215781  88.6280495  80.4038957  51.4396241  87.9861551
  80.2395103  51.7557740  89.7297630  80.1705907  56.6121540  88.5420647
  81.1029369  56.6488611  87.7986455  79.0327885  57.2824592  88.2308316
  78.2166505  57.0733979  88.7878876  78.8915416  58.2575185  87.1017883
  79.8727257  58.4382398  86.6627932  77.9324421  57.7242424  85.9823662
  78.2154700  56.6804601  85.8463038  76.9358668  57.7757330  86.4208711
  77.9297151  58.4358943  84.6197019  77.6314252  59.4359287  84.9344324
  78.9057419  58.4835499  84.1367942  76.8900145  57.8786799  83.6239787
  76.1626237  58.7387588  83.0791339  76.6617550  56.6540191  83.5017602
  78.3687992  59.5889256  87.7194011  77.1575629  59.7862403  87.7733494
  79.3157741  60.4474344  88.2224738  80.7963029  60.2124029  88.1912856
  81.1097051  60.2584573  87.1483291  80.9735525  59.2093973  88.5794368
  81.4602962  61.3070599  89.0601526  82.3837012  61.6729745  88.6112330
  81.6641352  60.9506523  90.0698678  80.4156258  62.3500997  89.0703871
  80.7566145  63.0231177  88.2837025  80.3957321  62.8834646  90.0207689
  79.0137983  61.8246563  88.7357022  78.3781849  61.7586427  89.6187289
  78.2878414  62.6117142  87.6435733  78.5368109  62.3928873  86.4126477
  77.3247131  63.4750502  87.9471053  76.9858940  63.5085926  88.8979869
  76.6748648  64.3479192  86.9371405  76.2974105  63.9462540  85.9967722
  75.5627252  65.2445189  87.6103185  74.8626844  64.5577492  88.0861238
  76.0739641  66.2828008  88.6658428  76.7737470  66.9702471  88.1906352
  75.2282288  66.8435519  89.0638261  76.5761825  65.7581470  89.4786246
  74.5191095  65.7967507  86.6709233  74.3706143  64.9739951  85.9715499
  73.6445975  65.8876016  87.3151860  74.7154704  67.0977857  85.8923836
  75.5895916  67.0075246  85.2475076  73.8334408  67.2936018  85.2826467
  74.8635772  67.9211312  86.5911443  77.7953896  65.2042663  86.2523816
  78.6313584  65.6853942  87.0269597  77.8593891  65.3915619  84.8925307
  76.9733444  64.8663616  83.8996225  76.0548961  65.4533330  83.8954275
  76.7402730  63.8296638  84.1425925  77.7595210  64.9967102  82.5945748
  77.1254207  64.9619465  81.7086812  78.5547964  64.2572255  82.5007629
  78.3456511  66.4145127  82.8158182  77.5436419  67.1500871  82.7540885
  79.1694014  66.7209231  82.1711108  78.8174098  66.2980597  84.2206297
  79.8207051  65.8806631  84.3059341  78.7859660  67.6839370  84.8667323
  77.7252849  68.2683720  84.8954414  79.9865190  68.2071656  85.1459763
  80.7039476  67.5005232  85.2237719  80.3230686  69.6142461  85.5603974
  79.7371265  69.8752321  86.4416790  81.7729973  69.7701060  85.8875785
  82.0478026  68.9518274  86.5531621  82.3300093  69.6817628  84.9548228
  82.0999393  71.0764187  86.5418757  83.1159692  71.3933583  86.3066454
  81.3903520  71.7786038  86.1042445  81.9216342  71.0456275  88.0034599
  82.7682664  70.4862333  88.7304234  80.9799811  71.6437983  88.5141831
  79.7098766  70.6533793  84.5126766  79.2253422  71.7234301  84.8369414
  79.8565860  70.2933507  83.2381741  80.2628190  69.3733921  83.1446308
  79.5869960  71.0654211  82.0132947  78.5900602  71.5061124  82.0102426
  80.6501040  72.2262993  82.0198687  80.5010497  72.8386236  82.9092173
  81.6165586  71.7260451  82.0816042  80.7305657  73.1874542  80.8362180
  81.3348754  72.9776364  79.6345691  81.7649293  71.9877957  79.4817009
  81.2702170  74.0639842  78.8742290  81.8975440  74.2233460  78.0988813
  80.4855735  75.0233011  79.4800653  80.2964222  76.3987267  79.1415623
  80.6699799  76.8018592  78.2002667  79.6004886  77.1647855  80.1122915
  79.4444107  78.2205222  79.8905714  79.1172338  76.6495448  81.3069517
  78.5618221  77.2516096  82.0260729  79.3522690  75.2601023  81.6239326
  78.9204546  74.8757710  82.5480141  80.1535197  74.4554283  80.7386795
  79.6304420  70.2040353  80.7340242  80.4063180  69.2259111  80.7673620
  78.9490439  70.4480226  79.6540562  77.9090142  71.5159790  79.5062982
  78.4014181  72.4460852  79.2225004  77.4065200  71.6491426  80.4643514
  76.9493019  70.9865479  78.4014651  76.5792226  71.8127952  77.7944596
  76.1069726  70.4619022  78.8523858  77.8043334  70.0356760  77.5818154
  78.3131020  70.5819292  76.7875479  77.2184673  69.2256677  77.1473650
  78.8405204  69.4636008  78.5719161  78.5316710  68.5205677  79.0229138
  80.1897292  69.2453419  77.7610358  80.9006398  70.2302125  77.6333254
  80.4472316  68.0442222  77.2214610  79.7298855  66.8647229  77.4343316
  78.8486107  66.9163443  76.7949646  79.4207507  66.8720470  78.4795498
  80.6211230  65.6833676  77.1032948  80.0551885  64.8401198  76.7073777
  81.2049025  65.3565328  77.9638073  81.5204701  66.2993668  76.0380174
  81.1652785  66.2307621  75.0097999  82.4927647  65.8134094  76.1191853
  81.6333019  67.7494235  76.4466573  82.4680903  67.7751110  77.1470620
  81.9253901  68.7096752  75.2570543  81.0299715  69.0899190  74.5487992
  83.2467098  68.9525646  75.1051471  83.9195668  68.5629699  75.7498011
  83.7018794  69.9777137  74.1602762  83.2805641  70.9639298  74.3551365
  85.2565653  70.0332494  74.4211024  85.4623540  70.2731415  75.4642717
  85.7603639  69.1036160  74.1563975  85.7768814  71.1782355  73.5157919
  85.4227707  70.9531089  72.5097977  85.3266123  72.6435916  73.9184064
  85.6807817  72.8696272  74.9241751  85.7500442  73.3605231  73.2149752
  84.2389136  72.7098023  73.8933467  87.3161088  71.1554372  73.5162668
  87.6659131  70.1964625  73.1340314  87.6920807  71.9579255  72.8816340
  87.6817633  71.2957571  74.5334719  83.1663516  69.7730471  72.7092402
  82.7725550  70.7859952  72.0735498  82.9173259  68.4909437  72.2658315
  83.2370375  67.6597953  72.7423564  82.3074756  68.3383624  70.8771837
  82.8292530  69.0261222  70.2117260  82.6117161  66.8885109  70.4276091
  82.0887693  66.1882745  71.0789889  82.2760462  66.7481628  69.4001227
  83.6848432  66.7068472  70.4867346  80.8106070  68.7856923  70.8089616
  80.4390390  69.0668360  69.6491394  80.0662385  68.8488640  71.9053278
  80.4629169  68.6382306  72.8099709  78.6196048  69.2340610  71.8361245
  78.0672920  68.6211640  71.1237994  78.0499630  68.9879687  73.2401322
  76.9645618  69.0804395  73.2020183  78.3172959  67.9802054  73.5580102
  78.5738586  69.9320166  74.1670728  78.2070497  69.7628030  75.0379447
  78.4145705  70.6937574  71.4488346  77.4563639  70.9436621  70.7101920
  79.4223298  71.5371400  71.8635814  80.2601984  71.2001102  72.3157833
  79.1612449  72.9723362  71.8723320  78.6735679  73.2730253  70.9450476
  78.2306136  73.3216042  73.0554627  77.9513189  74.3738268  73.0014137
  77.3330123  72.7050571  73.0076963  78.9444248  73.0635262  74.7558990
  77.8657695  73.4656909  75.4219804  80.3107602  73.9504258  71.7594860
  79.9939534  75.1465423  71.6250549  81.5822877  73.5477842  71.5539466
  81.8634381  72.5814661  71.6392886  82.6329134  74.5699790  71.1821265
  83.4959469  73.9969246  70.8431854  82.2172612  75.1296839  70.3442345
  83.0855382  75.5608326  72.2716792  83.5673639  76.6189955  71.8821150
  83.0555204  75.1846596  73.5648403  82.7340289  74.2447673  73.7474468
  83.2742749  76.0757094  74.7029517  84.1578577  76.7030537  74.5853940
  82.0111786  77.0097147  74.8762799  81.9110605  77.5914250  73.9599346
  80.7253928  76.2580366  75.1388229  80.8245898  75.6764131  76.0553245
  79.9047239  76.9673044  75.2462576  80.5188363  75.5878582  74.3043788
  82.1856643  78.0589204  76.0260960  83.0434014  78.6959574  75.8102884
  81.2874131  78.6721077  76.0985241  82.3477792  77.5398759  76.9707718
  83.7054033  75.3793159  76.0102227  82.9581587  74.4988306  76.5109782
  84.8991349  75.6567347  76.5077784  86.1077807  76.1058149  75.8560543
  86.0659998  77.1877187  75.7302022  86.1858167  75.6296083  74.8786922
  87.1986081  75.6768156  76.7892190  88.0470194  76.3467373  76.6495690
  87.4912984  74.6606946  76.5247726  86.6737628  75.7364400  78.2118687
  86.6339160  76.6782439  78.7591499  87.1983310  74.9912339  78.8098618
  85.2395298  75.2484752  77.9000803  85.3142787  74.1614489  77.8703361
  84.2804348  75.6620789  79.0157074  83.5119658  76.5907996  78.8617652
  84.3746584  75.1192056  80.2240858  84.9667180  73.8768950  80.6137972
  86.0242037  74.1143173  80.7297928  84.8322354  73.2358881  79.7425202
  84.3729266  73.2893335  81.8489216  85.1165316  72.8120436  82.4871574
  83.5717823  72.5822048  81.6338909  83.8325245  74.5326862  82.4766616
  84.6178423  74.9735816  83.0906537  82.9522942  74.3466154  83.0920249
  83.4892419  75.4454162  81.3705016  82.4510549  75.2874100  81.0784401
  83.6908396  76.9487191  81.7983111  84.6937207  77.3713890  82.3588284
  82.7236685  77.8226403  81.5904199  82.0004849  77.4357991  81.0009636
  82.6352235  79.2709643  81.9659744  81.7389641  79.6852141  81.5042220
  82.5679200  79.5187708  83.4694265  83.5450942  79.2489495  83.8699592
  82.3549746  80.5616789  83.7041537  81.5333380  78.6769767  84.2307299
  80.2043772  79.2726132  84.4378277  79.9935859  80.2464384  83.9958646
  79.2472181  78.6333203  85.1638188  78.2637715  79.0447594  85.3910885
  79.6074639  77.3267007  85.6417613  78.8544576  76.7518769  86.1808894
  80.8897511  76.7845400  85.4313584  81.0823433  75.7890873  85.8314615
  81.8880587  77.4622207  84.7481128  82.8796049  77.0198319  84.6520499
  83.7343722  80.2031495  81.3414869  84.3175228  81.0620393  81.9644836
  84.0611234  79.9970112  80.0697689  83.5709977  79.2184271  79.6530161
  85.0298639  80.7255223  79.2504238  85.3199798  81.6230919  79.7965929
  86.2922269  79.9326945  78.9072917  86.0881454  79.3739521  77.9939150
  87.0891521  80.6528063  78.7216870  86.7340001  78.9479140  80.0301348
  85.8908670  78.3403825  80.3589706  87.5579204  78.2970387  79.7375281
  87.1952251  79.8265119  81.2061150  88.0363435  80.7297913  81.0982490
  86.6890433  79.5729080  82.3793861  86.9667683  80.1276053  83.1764314
  86.0212501  78.8227837  82.4864708  84.4138834  81.1596555  77.9522769
  83.3236321  80.6537976  77.6554035  85.0910349  81.9795637  77.1444394
  85.7577521  82.6109292  77.5651116  84.8028086  82.1245492  75.7089723
  83.8454737  82.6281017  75.5746441  85.8908585  82.9518079  75.0221532
  86.8514141  82.4627742  75.1842587  85.6768856  82.9860937  73.9539116
  85.9461266  84.4275376  75.5970829  84.9487121  84.8670279  75.5864318
  86.3254084  84.4132427  76.6188672  86.8844308  85.2658171  74.7143538
  87.8953213  84.8933850  74.8801663  86.5957901  85.0833565  73.6792238
  86.8423406  86.7594086  74.9961636  85.8165308  87.1248214  75.0439987
  87.3575837  87.0019128  75.9255803  87.5333988  87.3944123  73.8766869
  87.0558710  87.1701801  73.0154165  87.5380044  88.3957964  74.0082496
  88.4840833  87.0562694  73.8324446  84.5278566  80.7697269  74.9443444
  85.2284966  79.7594170  75.1808241  83.7091675  80.7815930  73.8792076
  82.8569068  81.8203061  73.3823870  83.4417099  82.5148971  72.7793540
  82.4079963  82.3554096  74.2191919  81.8071471  81.0432313  72.5459065
  81.2881750  81.6831369  71.8322625  81.0765528  80.5298439  73.1710199
  82.7164028  80.0441112  71.8391321  83.1857968  80.4888282  70.9616384
  82.1925256  79.1336293  71.5481426  83.7746782  79.7226420  72.8850250
  83.4696934  78.7814961  73.3425477  85.2033106  79.5906660  72.3522241
  85.7561889  80.5778235  71.8282138  85.7019405  78.3778515  72.1731069
  85.3377761  77.6431489  72.7627642  86.7869386  78.0578706  71.2681293
  87.4945673  78.8864944  71.2408635  87.5456013  76.7660861  71.7314798
  87.9083936  77.1106210  72.6998685  86.7984409  75.9865442  71.8803619
  88.7238849  76.1989383  70.9135212  88.3974156  76.0122049  69.8904624
  89.9107671  77.2338580  70.9047524  90.2381067  77.4207569  71.9275018
  90.7414460  76.8299423  70.3260250  89.5754469  78.1682406  70.4546525
  89.2448769  74.8339826  71.3136527  88.4453766  74.0986068  71.2235352
  90.0708847  74.5538363  70.6599476  89.5937888  74.8659355  72.3458051
  86.2789678  77.9264779  69.8319776  87.0078325  78.1632439  68.8723740
  84.9896623  77.5326003  69.6185539  84.4266112  77.2376672  70.4034662
  84.4022559  77.4468717  68.2612108  85.1337132  77.9896208  67.6624680
  84.4022467  75.9759178  67.8210054  83.7479617  75.4529402  68.5185051
  83.9430973  75.6989495  66.3844190  84.5972340  76.2212591  65.6862805
  83.9855867  74.6274435  66.1890507  82.9196252  76.0509879  66.2552904
  85.6927396  75.5397504  67.6947399  85.6941784  74.6200510  67.4195102
  82.9996602  78.0603171  68.2577671  82.1305478  77.8265919  69.1212960
  82.7098166  78.6945487  67.1092176  83.5086668  78.8198177  66.5040354
  81.4867277  79.3056596  66.7414583  81.2397356  80.1190687  67.4237043
  81.6301777  79.8533541  65.3944220  82.4841191  80.5287990  65.3428721
  81.7561292  79.0529786  64.6652887  80.4338627  80.5763732  65.1049488
  80.4924508  80.9521636  64.2235018  80.1922515  78.4353907  66.8835450
  80.1305113  77.3192838  66.3631275  79.1480406  79.0496772  67.4286217
  79.1268253  80.2252099  68.3011301  79.2246608  81.1061388  67.6667069
  79.9897231  80.1575872  68.9636507  77.7596867  80.1944075  69.0887500
  77.3966327  81.2056526  69.2722558  77.8731081  79.6717091  70.0384991
  76.8103381  79.4145352  68.1360379  76.3100702  80.0657124  67.4192399
  76.0655888  78.8318600  68.6781982  77.7879424  78.4645344  67.3931420
  77.8109184  77.5176952  67.9326471  77.3017417  78.2239223  65.9628365
  76.6291947  77.2585793  65.7367491  77.7122715  79.0619597  64.9754741
  78.2891111  79.8594770  65.2020168  77.2483736  78.8953778  63.5448273
  76.2153134  78.5492966  63.5114570  77.3304044  80.2284410  62.8576429
  76.9828815  80.1017501  61.8323252  76.6703171  80.9196593  63.3816678
  78.5843293  80.7242399  62.8488747  78.5894519  81.5736187  62.4015167
  78.1446519  77.7709778  62.9349577  77.7080754  77.0874746  61.9805797
  79.3789063  77.5611269  63.3888086  79.7553127  78.2390758  64.0359584
  80.2579120  76.5291497  62.8898475  80.0805809  76.4214850  61.8197722
  81.7846247  76.8284093  63.1185768  82.0577513  77.7069671  62.5340794
  81.9436382  77.0331966  64.1772916  82.6529177  75.6429393  62.6927949
  83.6626598  75.9536923  62.9610379  82.3330011  74.8383315  63.3548838
  82.6394300  75.1347562  61.2080993  81.6134985  75.2309003  60.8526841
  83.2843408  75.8057879  60.6407318  83.0971101  73.7210249  60.9815104
  84.1017458  73.6237480  60.9448525  82.3704491  72.6518947  60.9186893
  81.0523912  72.7471087  60.8672926  80.6141014  73.6570009  60.8772050
  80.4901584  71.9094929  60.8183675  82.7688871  71.4323338  60.8099359
  83.7572174  71.2293793  60.7639714  82.0912038  70.6844458  60.7711079
  79.8071802  75.1655928  63.4496282  79.6424468  74.1502109  62.7465803
  79.4284523  75.1379307  64.7168985  79.7214997  75.9140402  65.2929858
  78.7868276  74.0052183  65.3617716  79.3576133  73.1173250  65.0898373
  78.6861305  74.0730025  66.8802845  78.5593641  75.1456013  67.0271229
  77.7642289  73.5582898  67.1509656  79.8324907  73.5678627  67.7660707
  79.5853455  73.8464858  68.7904677  80.0918242  71.9947411  67.6907805
  80.3394979  71.7154121  66.6667044  80.9193428  71.7304764  68.3491708
  79.1939818  71.4625192  68.0049768  81.1308221  74.3060022  67.4377073
  80.9958093  75.3738227  67.6098426  81.9322548  73.9340786  68.0760486
  81.3911801  74.1370067  66.3928374  77.4450632  73.6597488  64.7753094
  77.1499591  72.5034742  64.4533583  76.6440278  74.6409354  64.2953906
  77.0048465  75.5758999  64.4208920  75.2722240  74.4774568  63.6675162
  74.5915271  74.0697061  64.4148383  74.7026461  75.7908240  63.1569309
  74.8486617  76.5478737  63.9274207  75.2530671  76.0750583  62.2600766
  73.2880504  75.6858448  62.8435969  72.9670452  76.5328409  62.5255510
  75.1341105  73.4808172  62.4933100  74.1270309  72.8079673  62.4000863
  76.1475586  73.5009328  61.6459427  76.8200276  74.2439175  61.7718728
  76.3038110  72.6051521  60.4827441  75.3314257  72.5213532  59.9974155
  77.3258269  73.0712555  59.4497872  78.3336374  72.8520612  59.8024501
  77.1535055  72.5596410  58.5028680  77.1715325  74.5959426  59.2468276
  76.1217365  74.8613000  59.3717865  77.7681321  75.1114609  59.9994310
  77.6286127  75.0030370  57.8855893  77.2296293  74.2693903  57.1851083
  77.1858345  75.9778871  57.6813485  79.0490857  75.0942860  57.6967930
  79.4927411  74.4443280  57.0636864  79.7503490  76.1317488  58.1323728
  79.4224152  77.0135993  59.0429403  78.5292015  76.9450638  59.5093867
  80.0641937  77.7582692  59.2746442  81.0318082  76.1944532  57.7837691
  81.4316837  75.4669316  57.2085196  81.5995404  76.9693201  58.0957952
  76.6284743  71.1501750  60.8917740  75.9410464  70.2209246  60.5076300
  77.4969206  70.9895496  61.8808587  78.2186895  71.6825585  62.0182913
  77.6126176  69.7039270  62.6029159  77.5277117  68.8998509  61.8719222
  78.9045225  69.5336001  63.3577706  78.9026250  69.9714433  64.3559634
  78.8725399  68.4470371  63.4381317  80.2186786  69.9663660  62.5959220
  80.2262930  70.0620398  61.3259832  81.1170484  70.3973557  63.3001063
  76.4016661  69.2627069  63.4552264  76.0419164  68.0809391  63.3060353
  75.7348134  70.1991979  64.1614085  76.2501555  71.0484967  64.3436542
  74.4227779  70.0142431  64.8318505  74.5260626  69.1815608  65.5276031
  73.8945816  71.2636416  65.6201380  73.9288527  71.9940653  64.8118026
  72.8852301  71.2226780  66.0295663  74.7557387  71.7753838  66.6823100
  74.7882603  73.1344642  67.0290260  75.5322429  73.1561425  68.1297539
  75.6995242  74.1387694  68.5708437  75.9459317  71.9560461  68.5018066
  76.5349796  71.7454730  69.2947640  75.4441967  71.0321583  67.6325849
  75.6358340  69.9713710  67.7941605  73.3930906  69.4672961  63.8871696
  72.4162568  68.8531011  64.3412746  73.4972240  69.6255661  62.6073923
  74.3095470  70.1110090  62.2544393  72.4467277  69.2813452  61.6766783
  71.4945883  69.5255146  62.1477526  72.6289472  70.1948079  60.4074659
  73.5739262  69.9556552  59.9196949  71.8075563  70.0201801  59.7125397
  72.6317005  71.2419304  60.7101640  72.3804138  67.8047541  61.3826814
  71.4775325  67.2817899  60.7590286  73.4292303  67.0963242  61.6792499
  74.2287932  67.6550143  61.9412880  73.5906935  65.6294228  61.6148999
  73.2763848  65.2452413  60.6444805  75.0700490  65.2038987  61.8639031
  75.1094640  64.1231797  61.7275460  76.1095652  65.8751757  60.9462265
  76.0710613  66.9559533  61.0823767  77.1060044  65.5129018  61.1991408
  75.8881666  65.6322997  59.9069506  75.5108472  65.4430604  63.1712227
  76.4242010  65.1603803  63.2576929  72.6822932  64.7890787  62.6092377
  72.6991144  63.5599176  62.4923309  71.9506726  65.4525268  63.5002269
  71.9875887  66.4570189  63.4015757  71.1320577  64.8889602  64.5805752
  71.3249980  63.8202324  64.6738179  71.4699818  65.5616184  65.9039452
  71.0345156  66.5516161  65.7683982  70.9196652  65.0260000  66.6774854
  72.9723777  65.7058420  66.3357866  73.5981791  65.7852289  65.4468709
  73.1477426  66.9845134  67.2102073  72.5225563  66.9056497  68.0996011
  74.1917919  67.0812658  67.5080339  72.8516649  67.8619224  66.6352361
  73.4968060  64.5225238  67.0620331  73.4246894  63.6422120  66.4233237
  74.5397911  64.6924234  67.3292737  72.9116394  64.3626383  67.9676355
  69.5966546  65.0476803  64.3680045  69.1334133  65.8789366  63.5931720
  68.7682217  64.2209621  64.9908728  69.1923036  63.4495350  65.4860032
  67.2497888  64.2612947  64.8815029  66.9812399  64.1701414  63.8290430
  66.5357022  63.1267163  65.6780493  65.4829068  63.3962655  65.5939991
  66.6790843  62.1076099  65.3189343  66.9319221  63.1857318  67.1246066
  68.0684058  62.9084028  67.5551206  65.8595068  63.3962503  67.9361302
  65.9906669  63.4565805  68.9357587  64.9374582  63.4911752  67.5349864
  66.6553700  65.6568033  65.2438286  67.2948510  66.3546115  66.0087042
  65.5711188  66.1910000  64.6899584  65.0049836  65.5128320  64.2003888
  65.1051277  67.6448535  64.7082156  65.8690120  68.2439927  64.2126227
  64.1753630  67.7020268  64.1422049  64.8706764  68.1970331  66.0972841
  65.1461480  69.3660168  66.2521991  64.5111255  67.3881371  67.0767770
  64.2152578  66.4596718  66.8112326  64.4192812  67.7754090  68.5137899
  63.8964346  68.7210378  68.6570268  63.6102486  66.6453074  69.2249711
  64.1261068  65.6935203  69.0981188  63.5244958  66.8727168  70.2875301
  62.6145005  66.5795624  68.7864937  65.8280581  68.0062691  69.0680184
  66.0772495  69.0703010  69.5987931  66.7378249  66.9948616  68.9494631
  66.4167893  66.1044807  68.5969617  68.1178521  67.0927228  69.4388322
  68.1496760  67.4452693  70.4697529  68.7332124  65.6576148  69.3827014
  68.0019182  64.9981768  69.8500873  68.8663387  65.3704279  68.3396764
  70.0740599  65.5391283  70.1208769  70.7570660  66.2603365  69.6720315
  69.9726143  65.8015976  71.6302717  69.2900898  65.0804356  72.0799210
  70.9583511  65.7001337  72.0842857  69.5972807  66.8108196  71.7996711
  70.6404578  64.1331943  69.8911789  70.7907048  63.9713664  68.8237816
  71.5937280  64.0356151  70.4106551  69.9402245  63.3915539  70.2755509
  68.9780906  68.0793186  68.7987428  69.7041660  68.7695895  69.5059072
  68.8616520  68.3649575  67.4626969  68.3526466  67.6901806  66.9098054
  69.4675725  69.4988018  66.7812050  70.5557661  69.4885134  66.8430756
  69.0444178  69.3385311  65.2594421  69.5800186  68.4695379  64.8772355
  67.9734149  69.1359952  65.2537905  69.3362186  70.5390516  64.3796597
  68.9649350  71.4725011  64.8026506  70.4229407  70.5808948  64.3062697
  68.7658568  70.3777085  62.9941573  67.8151462  69.6312371  62.7572381
  69.2472944  71.1363906  62.0206804  68.8796075  71.0448912  61.0844456
  69.9798034  71.8028052  62.2192341  69.0102662  70.7944155  67.4386920
  69.8850892  71.5470422  67.8665645  67.7216862  71.0391163  67.6714321
  67.0975146  70.3056532  67.3672265  67.1449626  72.2211635  68.2976273
  67.4301331  73.0995471  67.7186461  65.6091568  72.1587442  68.3722607
  65.1716094  71.7956982  67.4422881  65.2621287  71.5422238  69.2014616
  65.0391280  73.5740149  68.6055145  64.5967944  74.4029165  67.5581397
  64.6237780  74.0475140  66.5280616  64.1164389  75.7000800  67.8454803
  63.8251351  76.3961016  67.0588440  64.0180856  76.0892857  69.2150848
  63.5825600  77.0641435  69.4343326  64.4561939  75.2703312  70.2570558
  64.3917193  75.5974416  71.2948140  64.9733389  74.0385287  69.9585583
  65.3430321  73.3946896  70.7566173  67.6312364  72.4381648  69.7388196
  67.9962025  73.5868061  69.9963501  67.6558506  71.3717317  70.5817482
  67.2930488  70.4700240  70.3071621  68.1046032  71.5357734  71.9074180
  67.5975288  72.4040429  72.3282302  67.7235536  70.3026712  72.7270582
  68.2307984  69.4264289  72.3233229  68.0227214  70.4489686  73.7649387
  66.6450941  70.1522510  72.6780886  69.5665287  71.8157152  71.9778487
  69.9871692  72.6815440  72.7569714  70.3727953  71.1906787  71.0880969
  69.9667155  70.6132338  70.3657701  71.8377256  71.3106979  71.1436359
  72.0955185  71.1642773  72.1925416  72.5930279  70.2682637  70.3017052
  72.5591218  70.5268742  69.2433710  74.0195634  70.2792280  70.7742549
  74.0543169  70.0202380  71.8324685  74.5974765  69.5522412  70.2036361
  74.4430485  71.2731701  70.6298942  72.0918347  68.9930780  70.5295444
  72.5759272  68.3588871  69.9956374  72.2162340  72.6593695  70.6549342
  73.0702927  73.3281504  71.2901994  71.6658587  73.1749065  69.5604473
  71.1259643  72.5692744  68.9589299  71.8687828  74.6000403  69.1377129
  72.9083542  74.7868119  68.8684419  70.9752414  74.8540888  67.8833202
  69.9524477  74.5484938  68.1037831  70.9920733  75.9165162  67.6402878
  71.5055720  74.0447695  66.6841218  72.4901593  74.4437283  66.4401533
  71.6048636  73.0111160  67.0154881  70.6032279  74.0991260  65.4309919
  71.0057661  73.3531017  64.7457840  69.6141964  73.7872741  65.7666472
  70.4953535  75.4606656  64.7048831  70.0045866  76.1383294  65.4034675
  71.5187696  75.7945424  64.5338716  69.7695429  75.4559357  63.4429363
  68.8210731  75.1469986  63.6012484  69.7596486  76.3891439  63.0567699
  70.2243821  74.8283826  62.7953272  71.5630524  75.6239140  70.2481238
  72.3654595  76.4557326  70.6716869  70.3567799  75.5362705  70.8388246
  69.6177397  75.1308647  70.2824389  70.0044471  76.1991690  72.0505029
  70.0451090  77.2732595  71.8694635  68.6123647  75.8444904  72.5775178
  67.8845455  75.9611086  71.7745367  68.6116680  74.8098195  72.9203817
  68.2378631  76.7739111  73.7490039  67.4870188  76.3806607  74.4343415
  69.1650127  76.9562617  74.2923676  67.7386075  78.0907239  73.1869996
  68.4396152  79.0183755  72.9631855  66.4697028  78.1616728  72.8276611
  66.1025916  79.0231505  72.4492604  65.8723027  77.3541242  72.9329216
  71.0849630  76.1806283  73.1488232  71.5312763  77.2825839  73.4564843
  71.4471125  75.0138820  73.6745654  70.7463985  74.2912852  73.5911807
  72.5702526  74.7869029  74.5762704  72.3815777  75.2416755  75.5487326
  72.7514277  73.2493545  74.7715478  71.8536429  72.8876423  75.2727922
  72.7303382  72.9449432  73.7251305  74.0412037  72.6307834  75.4792573
  74.1095506  73.0141361  76.4973291  73.9393857  71.0889693  75.5154413
  73.8714668  70.7048263  74.4976397  74.8244652  70.6771577  76.0003602
  73.0503168  70.7960439  76.0738780  75.4397672  72.8028210  74.7693811
  75.6635218  73.8638431  74.6586323  76.2146141  72.3296502  75.3725585
  75.4087076  72.3339877  73.7858520  73.7842779  75.6735006  74.2160689
  74.3604738  76.4991470  74.9676249  74.2061261  75.5094912  72.9347747
  73.6560563  74.8513770  72.4014753  75.3789599  76.1069223  72.2998881
  76.2688518  75.8436284  72.8716118  75.5594124  75.6094943  70.8491561
  74.7171788  75.8951436  70.2189607  76.4845155  75.9818067  70.4090792
  75.6175874  74.2109512  70.9458765  75.7302727  73.8340554  70.0701760
  75.4166064  77.6705104  72.2804944  76.4336360  78.2977715  72.5494243
  74.2482270  78.2284771  71.8977833  73.5112471  77.6701927  71.4912388
  74.0373610  79.6606255  72.0248756  74.9278783  80.2008614  71.7035916
  72.8478679  80.0966793  71.1378011  71.9500059  79.6580077  71.5731290
  72.7875308  81.1832392  71.1998255  72.9644530  79.6640014  69.6315409
  73.8276577  80.1462767  69.1728593  73.0751076  78.5817352  69.5640305
  71.6937069  80.0922492  68.8996664  70.8475764  79.5957727  69.3747172
  71.5891993  81.1716871  69.0091725  71.6902384  79.7611243  67.4651009
  72.2251681  78.9580126  67.1668373  70.7880059  80.3123577  66.5852354
  70.0296143  81.3704944  66.8779686  70.1045437  81.8059057  67.7862101
  69.3841156  81.7311600  66.1899632  70.7664158  80.0509577  65.3692449
  71.4373034  79.4020448  64.9833407  70.0781067  80.4889184  64.7738293
  73.7551453  80.2063294  73.4617627  74.1302891  81.3316538  73.7774115
  73.1991419  79.4063873  74.3341330  72.8752528  78.4974089  74.0358822
  72.9111623  79.8326458  75.7179485  72.6455025  80.8819365  75.8464523
  71.8287717  78.9966254  76.2892808  72.2396965  77.9870897  76.2804046
  71.3048080  79.2971496  77.6196887  70.8932645  80.3064269  77.6292181
  70.5206866  78.5832012  77.8717412  72.1090367  79.2263351  78.3520152
  70.6732969  78.8575460  75.4211409  70.0146320  78.3069894  75.8508482
  74.1127139  79.8749254  76.6901687  74.1195064  80.7059561  77.6420363
  75.1327732  79.0442329  76.4403327  75.0064512  78.4285210  75.6497374
  76.3511143  78.9140048  77.2299215  76.2100304  79.3144371  78.2338381
  76.6930449  77.4116051  77.3412570  76.7518805  77.0229260  76.3246125
  77.6822765  77.3837626  77.7981439  75.7372369  76.5590792  78.1535259
  74.7580999  76.6904499  77.6929464  76.0644788  75.0437329  78.2501091
  77.0433373  74.9115391  78.7110426  75.3077193  74.5459969  78.8564708
  76.0723459  74.6087721  77.2506854  75.6811539  76.9969438  79.6109230
  75.3452773  78.0323820  79.6670831  74.9847658  76.3595606  80.1557969
  76.6732177  76.9127556  80.0545677  77.5714151  79.6643152  76.7190504
  78.6090336  79.5236882  77.3491520  77.3918680  80.6253282  75.8037659
  76.4524275  80.8483035  75.5073998  78.5209742  81.3613598  75.1787691
  79.3131858  80.6758859  74.8777285  77.9875393  82.0869863  73.9166624
  77.3341999  82.9004959  74.2320178  78.8343713  82.4949006  73.3647733
  77.2357080  81.1612934  73.0490636  76.9170805  81.6341562  72.2767443
  79.2328078  82.3993195  76.0231876  80.3192631  82.8284731  75.6781138
  78.6093327  82.9674707  77.1136888  77.6738875  82.5923680  77.1795637
  79.0227558  84.0352639  78.0964589  80.1037739  84.1748339  78.0920713
  78.3556450  85.3528737  77.6703148  77.3001039  85.2779381  77.9316901
  78.8178519  86.1501172  78.2524381  78.4960524  85.6802129  76.1158217
  79.5466331  85.6010722  75.8363261  77.9146659  84.9507170  75.5519710
  77.9724920  87.1364911  75.7899439  76.9668818  87.2506820  76.1946754
  78.6361408  87.8646096  76.2563269  77.9306918  87.3943605  74.3538582
  77.0207565  87.2439360  73.9421671  78.8868753  87.9761608  73.6045936
  79.9568748  88.3893575  74.1786524  80.0679456  88.2743529  75.1759173
  80.6832610  88.8277609  73.6306877  78.9063209  87.9788706  72.3045430
  78.1670551  87.5212935  71.7905301  79.6606008  88.4385381  71.8147815
  78.7170821  83.6971795  79.5444363  79.1578711  84.4622199  80.4524144
  78.1996892  82.5216505  79.8815966  77.9853723  81.8886024  79.1243531
  77.8548290  82.1181647  81.2368644  77.0355735  82.7054420  81.6516235
  77.4042472  80.6762519  81.1158174  78.2171370  80.0738495  80.7103280
  77.1279772  80.2975506  82.0998705  76.5430969  80.6188173  80.4500692
  79.0466532  82.3253032  82.1990877  80.2460660  82.1234721  81.8695984
  78.7733573  82.6809734  83.4651718  77.7743415  82.6536551  83.6111875
  79.6402846  83.1824209  84.5788290  80.6779448  82.8643659  84.4778259
  79.5998295  84.6984331  84.6211985  78.5708038  84.9761488  84.8494096
  80.5483184  85.3510694  85.6486720  81.5776418  85.0741670  85.4208164
  80.4453318  86.4351712  85.6015936  80.2929047  85.0055162  86.6503991
  79.8916803  85.1674759  83.3360826  79.8728843  86.1272894  83.3338333
  79.2340037  82.5051935  85.9604795  78.0991367  82.6271786  86.3149576
  80.1091937  81.9326773  86.7943694  81.5193525  81.6226737  86.4331491
  82.1415542  82.4981182  86.6190583  81.5726805  81.3572582  85.3773036
  81.8748348  80.4305755  87.3617546  82.9278629  80.4388848  87.6431119
  81.6302064  79.4740026  86.8999901  80.9954253  80.6948738  88.5362555
  81.4580424  81.3138863  89.3049609  80.7679089  79.7123979  88.9498701
  79.7464301  81.3424554  88.0488102  79.0350169  80.5565090  87.7952796
  79.1467970  82.2423234  89.1211579  79.6055557  83.3701866  89.3600011
  78.1199326  81.7736857  89.8003408  77.8263224  80.8543847  89.5023844
  77.3525099  82.4447293  90.9222467  76.8758867  83.3379782  90.5184697
  76.2646588  81.4993585  91.5169600  76.7910920  80.6015637  91.8408937
  75.4323850  82.0676834  92.7014616  74.9052632  82.9652947  92.3781395
  74.7094979  81.3207924  93.0296212  76.0982521  82.3158504  93.5279804
  75.2426188  81.1416206  90.4367785  74.3440770  81.7443589  90.5688008
  75.6677693  81.3350230  89.4519222  74.8868910  79.6723232  90.5536787
  74.4612218  79.4782292  91.5381751  74.1584508  79.4121037  89.7857204
  75.7849152  79.0688932  90.4212986  78.3035579  82.8740996  92.0717314
  79.1611410  82.0515601  92.3666247  78.1829633  84.0708097  92.6434437
  77.3053087  85.1149696  92.1404194  76.3223007  84.6570600  92.0303549
  77.6906983  85.3874383  91.1579049  77.2978529  86.2494754  93.0733964
  76.2735986  86.5423136  93.3041518  77.8290114  87.0974702  92.6411039
  78.0305322  85.7208898  94.3286814  77.3258610  85.3793913  95.0869138
  78.6720389  86.4940473  94.7515245  78.8667922  84.5650614  93.8500104
  79.8635406  84.8739501  93.5350840  78.9849034  83.5518102  95.0073400
  78.2000231  82.5924550  95.2000693  80.0475154  83.7037313  95.7716839
  80.6654209  84.4832483  95.5966257  80.3825373  82.7563805  96.9299415
  80.4012245  81.7203746  96.5916491  81.7878720  83.1265493  97.4703410
  81.8244650  84.2070823  97.6089361  81.9224628  82.6325716  98.4326150
  82.9345397  82.6853348  96.4905083  83.9038635  82.4954588  96.9514412
  82.5370562  81.7548641  96.0851316  83.0955019  83.6882875  95.3791461
  82.5807201  83.6004909  94.2580388  83.6603711  84.7817705  95.6073798
  79.3514966  82.9173795  98.0515441  78.8606319  84.0373868  98.3585383
  79.1452003  81.8442893  98.7281897  79.4681926  80.9733911  98.3315644
  78.4340576  81.8036729 100.0342631  77.4198198  82.1994580  99.9815860
  78.3619039  80.3515954 100.3482678  79.2917122  79.8418351 100.0958788
  78.1866656  80.2764000 101.4214580  77.1788495  79.6848719  99.5806070
  75.8611449  80.0010547  99.9606701  75.6672891  80.6401209 100.8221304
  74.7799085  79.4780914  99.2088867  73.7717642  79.8511113  99.3894501
  75.0352100  78.6557071  98.1031620  73.9725958  78.0121966  97.4017532
  73.1076958  78.2080530  97.7694322  76.3634002  78.2749636  97.7975837
  76.5943928  77.5453615  97.0214241  77.4057737  78.8733970  98.5356582
  78.4442801  78.6834247  98.2645216  79.1855115  82.6211670 101.1380522
  80.3990400  82.8831698 101.0621234  78.4729811  82.9616689 102.2018717
  77.4700930  82.8541896 102.1493076  79.0391822  83.6133991 103.3813229
  79.7018903  84.4233858 103.0766285  77.9066622  84.2041151 104.2620288
  77.2519804  83.3855999 104.5612342  78.4325533  84.5864380 105.1368818
  77.0760787  85.3167749 103.6443613  76.6220597  85.0002972 102.7053142
  75.9803097  85.6219835 104.6612172  76.4335785  85.9389949 105.6004457
  75.3414422  86.4184474 104.2796489  75.3819652  84.7268618 104.8310447
  77.7359908  86.7170549 103.3479966  78.5649790  86.5886120 102.6520221
  76.9936012  87.3835349 102.9089482  78.1064235  87.1487996 104.2777681
  80.0222811  82.7728753 104.2650186  80.9857742  83.2878182 104.8124489
  79.6549823  81.5140579 104.3228068  78.8096677  81.2914611 103.8168490
  80.3102501  80.4435676 105.0922608  81.3913965  80.5206040 104.9769906
  79.9625215  80.5519908 106.6050404  80.0895846  81.5900267 106.9123441
  78.9213202  80.2587411 106.7392217  80.8944573  79.6186360 107.4935057
  80.6289643  78.5801877 107.2954164  81.9304826  79.7902951 107.2014667
  80.7302326  79.9114976 108.9906083  80.6982638  80.9899247 109.1457597
  79.8007459  79.4661964 109.3453769  81.8793444  79.3339276 109.7485027
  81.9475308  78.2582955 109.5858164  82.8152374  79.8061029 109.4497487
  81.6240348  79.6052605 111.2068749  80.7570750  79.1674545 111.4840147
  82.3824812  79.2284544 111.7572167  81.5612433  80.6019273 111.3579100
  79.8863706  79.0902711 104.5048115  78.7129410  78.9662655 104.3383649
  80.7818108  78.1712907 104.1778697  81.7158351  78.5304583 104.0411346
  80.5074181  76.7840075 103.7923723  80.0490574  76.7766256 102.8034587
  81.7761080  75.9316538 103.7492430  82.5476096  76.5420368 103.2798635
  82.0529058  75.7295837 104.7839655  81.6371623  74.5805323 102.9737245
  81.0579997  74.1642489 103.7979694  81.0885494  74.4475565 102.0412850
  82.9032394  73.8545803 102.8786646  83.0770562  72.8572094 103.5525548
  83.9398787  74.5257950 102.4363087  84.8361291  74.0676589 102.3529539
  83.8369422  75.4975940 102.1811378  79.3929383  76.1446550 104.5415191
  79.4336839  76.1049800 105.7767963  78.4032151  75.6429324 103.8350033
  78.3936335  75.9956946 102.8886596  77.3252204  74.7393457 104.2513211
  76.5588018  75.2354419 104.8467959  76.6604995  74.1027789 102.9584508
  77.4467730  73.7821193 102.2750390  75.7816368  72.8783909 103.3489626
  74.9948020  73.1983732 104.0320460  75.3322497  72.4522107 102.4520109
  76.4016933  72.1261795 103.8366173  75.8588731  75.2117666 102.2264416
  75.0117139  75.4802972 102.8575624  76.5146021  76.0750094 102.1127270
  75.3650405  74.7847703 100.8890806  74.7088297  73.9217941 101.0020379
  74.8123627  75.6028205 100.4270846  76.2117184  74.5165039 100.2572029
  77.9207812  73.6908731 105.2180980  79.0426879  73.1556192 105.0088712
  77.2019089  73.4236742 106.3620274  75.9263302  73.9637906 106.7314517
  75.1635011  73.5128687 106.0967381  75.9461449  75.0408989 106.5654875
  75.7561758  73.6172917 108.1545750  74.6949754  73.6133275 108.4034468
  76.2709025  74.3534037 108.7720674  76.3652503  72.2533935 108.3254874
  75.7271235  71.4355344 107.9908240  76.7002915  72.0586435 109.3442708
  77.5710614  72.3849082 107.3963844  78.4268654  72.7711745 107.9500054
  77.9304857  70.9795542 106.7912633  77.1480013  70.5308917 105.9500563
  79.0708846  70.4483869 107.1385923  79.6484984  70.7919902 107.8925143
  79.5774858  69.3509955 106.3253750  79.1961451  69.4388478 105.3080450
  81.0588994  69.3789705 106.2800173  81.3607384  70.3003436 105.7819571
  81.4305836  69.3818894 107.3046843  81.6870041  68.1850385 105.5310715
  82.1093849  67.3670809 106.2947878  81.7473607  68.0931273 104.2445166
  82.1731176  67.2822870 103.8186423  81.3685270  68.8325102 103.6701485
  79.1023569  67.9512487 106.7730305  79.0394188  67.0159575 105.9745982
  78.7794507  67.8041004 108.0853780  78.8604298  68.5598732 108.7504714
  78.5026773  66.4232294 108.6069916  79.3726797  65.7811207 108.4695455
  78.1931803  66.5076786 110.0842383  78.9609790  67.1327604 110.5401519
  77.2228691  66.9941543 110.1839258  78.1603649  65.2693594 110.7261743
  77.9596035  65.3963405 111.6563197  77.4767908  65.6203655 107.7976403
  76.5215210  66.1084468 107.2077401  77.6991478  64.3159555 107.7841871
  78.5245043  64.1103319 108.3288015  77.0615938  63.2395424 107.0831209
  76.0167091  63.4852320 106.8935116  77.7605725  62.9989370 105.7383779
  77.9850969  63.9508920 105.2572647  78.6853674  62.4425893 105.8911250
  76.7949667  62.0476243 104.5414570  77.7105874  62.0674198 103.5770167
  76.9278011  61.9159720 107.8415765  76.9703869  60.7844293 107.3036996
  76.8443254  62.0004416 109.1617487  76.9370970  62.9295270 109.5468372
  76.7349212  60.8936578 110.0716467  77.4302180  60.1157953 109.7560655
  77.1273056  61.3603645 111.5062823  76.5271186  62.2440789 111.7229011
  76.9073646  60.2826307 112.6426901  77.5076298  59.3987437 112.4269901
  77.2086446  60.7002114 113.6033967  75.8540191  60.0051074 112.6820056
  78.6368194  61.6768184 111.5308412  78.8545011  62.4677164 110.8130690
  78.9236457  62.0046432 112.5300215  79.2005050  60.7820301 111.2668084
  75.4123827  60.1758549 110.1323415  75.4391287  58.9111221 110.2292153
  74.3258308  60.9081538 110.0450463  74.3862261  61.8662648 109.7312389
  72.9927229  60.3939780 110.5125240  73.0661217  59.3200991 110.6842676
  72.5407491  61.0681075 111.8126079  73.2983371  60.9059734 112.5793362
  72.4252326  62.1376703 111.6371334  71.3166778  60.5296108 112.2429573
  71.0460798  60.9605216 113.0570166  71.9001850  60.5211586 109.4274267
  71.8419520  61.4855649 108.7255417  71.0753488  59.5371004 109.2600570
  71.2749300  58.7571841 109.8699729  69.9274656  59.4236013 108.3246266
  69.0299546  59.7285035 108.8627789  70.1051657  60.1103455 107.4970372
  69.7206075  58.0279649 107.7715724  69.8489436  57.0261736 108.4525312
  69.3087207  57.9277801 106.5237050  68.7306159  58.1614429 107.3182467
  69.0522089  56.6960644 105.8348842  69.1363864  57.6615717 106.3336927
  70.0905448  56.6282673 104.7322074  69.9551178  55.7099358 104.1608696
  71.0883334  56.6388607 105.1708481  69.7310651  55.1512680 103.7127288
  67.5842062  56.6115840 105.3293823  66.7365103  55.8521299 105.8085514
  67.4026077  57.4970582 104.3645531  68.2054337  57.9270549 103.9278924
  66.0868792  57.8423792 103.8719874  65.4935266  56.9356257 103.7543865
  65.3372637  58.8108436 104.8745797  65.5522439  58.5523186 105.9114247
  65.6068173  59.8519276 104.6968578  63.5238854  58.7202501 104.6961623
  63.2464104  59.6145906 105.6406521  66.2084908  58.6004809 102.5379471
  66.7958227  59.6724618 102.4414470  65.8357882  57.9511503 101.4586637
  65.5503612  58.6380505 100.7754364  65.3544920  56.5826437 101.3061501
  65.2127947  56.7641568 100.2407511  66.6252995  55.6497924 101.4973616
  66.5108126  54.7504195 100.8922821  66.7176916  55.3714581 102.5471681
  67.8895938  56.2472744 100.2869649  63.9624306  56.1066274 101.7476595
  62.9784519  56.5893914 101.2048393  63.8717864  55.1296711 102.6533289
  64.5822163  55.0707520 103.3688128  62.7988306  54.1430707 102.6619626
  62.7139073  53.7578494 101.6458466  63.1115833  53.3400977 103.3294350
  61.4081963  54.6710811 103.1214571  60.4337697  54.4531251 102.3488842
  61.4272839  55.5040026 104.1998761  62.2501595  55.5865508 104.7796699
  60.1572352  56.2482026 104.6299408  59.3465317  55.5293433 104.7486853
  60.3517702  57.0012044 105.9705297  60.7595357  56.2987531 106.6974333
  61.0086671  57.8677744 105.8954106  59.0546524  57.4944223 106.5325043
  58.2685132  56.7966633 107.3521003  58.6730210  55.9056405 107.8322581
  57.0616410  57.4021604 107.4006480  56.2892389  57.0154388 107.9240416
  57.0430473  58.6396529 106.6861695  56.0814839  59.6145421 106.4306546
  55.0554352  59.4284316 106.7479646  56.5013595  60.7846011 105.7745750
  55.8065818  61.5988096 105.5685449  57.8590219  60.9164623 105.3680369
  58.1761338  61.8366459 104.8773214  58.8061103  59.9256240 105.5662797
  59.7897189  60.0206680 105.1062998  58.3784965  58.7437035 106.2613518
  59.6680346  57.2080265 103.5061993  58.6065947  56.9916334 103.0473320
  60.5108275  58.1267757 103.0894403  61.3630850  58.2366437 103.6201809
  60.2584312  59.0555675 101.9717607  59.5258060  59.8125354 102.2516878
  61.5829572  59.7579269 101.6240422  62.3877039  59.0228308 101.6347974
  61.4941594  60.1840755 100.6247363  61.8954608  60.8701129 102.6262422
  61.7831868  60.5232920 103.6534766  63.3552734  61.2517966 102.3739314
  63.4682501  61.5991789 101.3469647  63.6473026  62.0468070 103.0600641
  63.9918567  60.3817374 102.5347388  61.0462359  62.1197133 102.4978484
  59.9966768  61.8626297 102.6407928  61.3485150  62.8443330 103.2539271
  61.1821779  62.5517357 101.5063972  59.6227647  58.3266113 100.7298219
  58.5585726  58.7360083 100.2797383  60.1443940  57.2026188 100.3586821
  61.0086153  56.9511828 100.8169407  59.6436309  56.3190726  99.2380035
  59.7114457  57.0182410  98.4045385  60.5659107  55.1203413  98.9508238
  60.4638773  54.3533031  99.7185099  60.1200106  54.5538502  97.6023402
  60.2222052  55.3202249  96.8340136  60.7415727  53.6963841  97.3444419
  59.0779456  54.2405528  97.6659476  61.8592465  55.5972075  98.6619103
  62.4409954  54.8551674  98.4815078  58.2232153  55.8096852  99.4074553
  57.3945370  55.8637986  98.4852638  58.0570274  55.1327404 100.5419372
  58.8995969  54.9156956 101.0548384  56.7716835  54.6478703 101.0732018
  56.3603023  53.8907410 100.4056542  56.9633039  54.0131788 102.4921991
  57.5529139  54.6853186 103.1156470  55.9892102  53.8512043 102.9537248
  57.6952340  52.6676761 102.3549734  56.9207519  51.9380220 102.1185771
  58.3584576  52.7834259 101.4977463  58.5149137  52.1743029 103.5813274
  59.1551660  51.3403083 103.2938748  59.1292035  52.9850964 103.9729412
  57.5108036  51.7042495 104.6814690  56.7180548  52.4454371 104.7829135
  57.0781302  50.7482979 104.3864273  58.1921803  51.5540550 105.9431728
  58.5928111  52.4398527 106.2169559  57.5345006  51.2501200 106.6468638
  58.9265225  50.8669844 105.8495011  55.7590255  55.7375680 101.1539150
  54.6057623  55.4863293 100.8370522  56.0638100  57.0057453 101.5639916
  56.9707888  57.2131339 101.9570293  55.0230814  58.1038085 101.5428909
  54.0443309  57.7114253 101.8189019  55.3943686  59.2401690 102.5236413
  56.4754425  59.3288554 102.4163377  54.7671668  60.5958348 102.3974573
  53.6860588  60.5080107 102.5051237  55.1572894  61.2511447 103.1762207
  55.0014450  61.0154956 101.4191429  55.0484526  58.6806685 103.7694593
  55.2399204  59.3111516 104.4676221  54.7240918  58.7190697 100.1530190
  53.5976470  59.2041056  99.8997281  55.7495606  58.6529948  99.2599166
  56.6443975  58.4220269  99.6673722  55.7006304  58.9909131  97.8209413
  55.2148690  59.9653610  97.7700864  57.0891639  59.1056826  97.2011360
  57.6577064  58.2127071  97.4608541  57.0150145  59.2399622  95.6599975
  56.4469746  60.1330292  95.3994923  58.0229598  59.3194637  95.2527798
  56.5228467  58.3620320  95.2415349  57.7986293  60.3837332  97.6475435
  57.9048399  60.3809890  98.7323540  58.7851425  60.4322583  97.1865265
  57.2125850  61.2507057  97.3425653  54.8075860  57.9707623  97.0788238
  54.0020736  58.3771644  96.2494174  54.8698875  56.7141425  97.4030322
  55.5948651  56.3971299  98.0307343  53.8626203  55.6970436  96.8937104
  53.9033546  55.6231498  95.8069815  54.2121561  54.3149901  97.4969168
  54.3468067  54.5028638  98.5621266  53.3173154  53.7113737  97.3452347
  55.4424114  53.5584033  96.9482179  55.2961683  53.3134801  95.8962073
  56.3395176  54.1677873  97.0575505  55.6044080  52.2442548  97.7693944
  56.4921758  51.7138007  97.4250319  55.7168264  52.4928371  98.8246993
  54.3621335  51.3445428  97.5820011  53.4752824  51.9703240  97.4820330
  54.4850219  50.7428767  96.6814482  54.2094895  50.4673962  98.7343100
  54.0951734  51.0247164  99.5688312  53.3964513  49.8819807  98.6064133
  55.0309781  49.8871476  98.8268691  52.4716458  56.0312239  97.3125628
  51.5982374  55.7465418  96.5435863  52.1799962  56.4449823  98.5550267
  52.9238342  56.6117287  99.2175975  50.8284341  56.7106164  98.9665937
  50.1691435  55.9074436  98.6374301  50.7644466  56.8015719 100.5059032
  51.4803872  57.5817870 100.7643459  49.7541674  57.1514929 100.7180146
  51.0430881  55.5979741 101.3024320  50.4560370  54.7628347 100.9203142
  52.1030479  55.3484338 101.2543264  50.6591038  55.8684616 102.7216239
  49.4549886  55.8872868 102.9812509  51.5356796  56.0721627 103.5861045
  50.3062039  58.1015420  98.4168560  49.1424431  58.4212612  98.3022154
  51.2154980  58.9705889  98.0050226  52.1280946  58.8599996  98.4233965
  50.9628867  60.1719907  97.1820626  49.9668387  60.5897761  97.3284970
  52.0067708  61.2940563  97.3994423  52.9237307  60.9768858  96.9027656
  51.5945667  62.6264281  96.8764757  50.6778641  62.9444934  97.3730543
  52.3832748  63.3533419  97.0704729  51.4204843  62.5578483  95.8026541
  52.3756093  61.3782966  98.7748661  53.0224495  62.0781881  98.8904083
  50.7136615  59.9547712  95.6783650  49.8577903  60.6355680  95.1254734
  51.3926286  58.9335501  95.1057908  52.0103059  58.4138139  95.7127902
  51.3373949  58.5676028  93.7081139  51.1746851  59.4870029  93.1456833
  52.6515018  57.9640572  93.2760053  52.7139129  56.9962189  93.7734931
  52.8528013  57.7774308  91.7715167  52.7909821  58.7449674  91.2733693
  53.8324973  57.3365121  91.5874364  52.0785990  57.1176097  91.3799204
  53.7474934  58.7946770  93.6115930  54.5635925  58.3799827  93.3224369
  50.2333119  57.6005675  93.3627627  49.3094036  58.0444909  92.7301596
  50.3287674  56.3019881  93.6844795  51.1252563  56.1495482  94.2865318
  49.5227027  55.0980613  93.2409369  48.4685888  55.2778048  93.4522078
  49.6827674  54.8207678  91.7313312  49.5196206  55.7606279  91.2039362
  50.7058261  54.4838227  91.5642414  48.7091062  53.7685174  91.2080094
  48.7141747  52.9255613  91.8990233  47.7126375  54.2094450  91.1808990
  49.0812041  53.2928720  89.8386870  48.9944549  54.1031283  89.1147684
  50.1005597  52.9069286  89.8308494  48.1798932  52.2290130  89.4537548
  47.5841881  51.8138817  90.1558237  48.1732040  51.7150111  88.2382021
  48.9495305  52.0602017  87.2352916  49.6372347  52.7891991  87.3606936
  48.8547499  51.5948476  86.3439096  47.2660728  50.8326047  87.9240591
  46.5801653  50.5517518  88.6101733  47.2535815  50.4340922  86.9960879
  49.9531578  53.9052330  94.1110570  51.1539352  53.7469725  94.3792288
  49.0493797  53.1195827  94.5753078  48.1102019  53.4381575  94.3841153
  49.2215668  51.8970874  95.3712487  49.8248792  52.0579782  96.2646845
  47.8021600  51.3061966  95.8125482  47.2257520  51.2212605  94.8913316
  47.7936400  49.9926306  96.5286640  48.3695036  50.0769184  97.4502801
  46.7669024  49.7145574  96.7665385  48.2383003  49.2280490  95.8916453
  47.1734914  52.1991853  96.5718294  46.3207647  51.8483349  96.8389652
  50.0189011  50.9157100  94.5424096  49.7241813  50.7592525  93.4007979
  51.0039583  50.1990176  95.1563872  51.2477173  50.4906705  96.0921326
  51.7754644  49.1357467  94.5454549  51.1212268  48.4906303  93.9590274
  52.8089469  49.7058618  93.6465095  53.5654583  48.9334687  93.5079502
  52.3193332  49.9091673  92.6941202  53.4535805  50.9449648  94.1450124
  52.8369187  51.7274250  93.7027624  53.4160271  51.0240359  95.2314915
  54.9154530  51.1089254  93.6666697  55.8070121  50.5755365  94.3560394
  55.1522760  51.8597732  92.6886838  52.3951861  48.2026264  95.5515266
  53.3968091  48.5659083  96.1719229  51.9968694  46.9182870  95.6761542
  50.6219563  46.5253601  95.3663488  50.6455901  45.9233575  94.4579796
  50.0497985  47.4350148  95.1839674  50.1011902  45.7378635  96.5851255
  49.3294464  45.0148604  96.3209717  49.7331153  46.3876493  97.3791033
  51.4221636  45.0295563  97.0133209  51.6314451  44.1199008  96.4504470
  51.3823489  44.7967067  98.0774147  52.5069150  46.0626707  96.7483568
  52.6300194  46.7083547  97.6178599  53.7732482  45.3651225  96.4729523
  54.1055071  44.3386214  97.0594551  54.5690574  45.9075865  95.6010593
  54.3936416  46.8800043  95.3919367  55.6202627  45.2301377  94.8774340
  55.2443330  44.2816469  94.4938439  56.1454513  46.1250583  93.6623356
  56.6009934  47.0211975  94.0836624  57.1896152  45.3832933  92.7617955
  56.7346249  44.4872293  92.3397128  57.5079241  46.0431664  91.9547344
  58.0542432  45.1023551  93.3631201  54.9810865  46.5616902  92.7583427
  54.6070042  45.6425005  92.3075061  54.2283148  46.9665120  93.4347697
  55.2889605  47.6108873  91.6294482  56.0413639  47.2065594  90.9523160
  54.3766732  47.8242383  91.0723911  55.6626768  48.5305706  92.0795799
  56.7600240  44.8655797  95.7782600  57.2476983  43.7087963  95.7563735
  57.2251345  45.7966080  96.6439242  56.7727765  46.6994643  96.6618704
  58.3650095  45.5914513  97.4862934  58.5667857  44.5227447  97.5587626
  59.6219434  46.2938539  96.9355742  59.4768733  47.3412954  97.1999985
  60.5267163  45.9205121  97.4152636  59.7907423  46.1944826  95.4564873
  59.5196129  47.0345657  94.6085720  60.2031295  45.0397940  94.9686217
  60.3297259  44.9322935  93.9723703  60.3902554  44.2688719  95.5937328
  58.0690663  46.0778858  98.9323298  56.9250048  46.2905287  99.2351105
  59.0280223  46.2546635  99.8734435  59.9453110  45.9601562  99.5702172
  58.8730486  46.7206238 101.2294885  58.0819578  47.4695194 101.2673044
  58.4493921  45.5190128 102.0756422  57.5976899  45.0730369 101.5620188
  59.5399754  44.4300097 102.3153806  60.3918593  44.8751642 102.8294147
  59.1255760  43.6285042 102.9269042  59.8657163  44.0242442 101.3575978
  58.1072181  45.9381219 103.3511764  57.8424304  45.1797670 103.8769003
  60.1156779  47.4215753 101.8494291  60.0404462  47.9065741 102.9883020
  61.1977684  47.4968753 101.0290602  61.1509105  46.8771025 100.2329538
  62.4488416  48.2112577 101.2786910  62.2939610  48.9948883 102.0203340
  63.6130819  47.3188586 101.7422407  64.4471182  48.0021406 101.9022704
  63.4060324  46.4489991 103.0119418  62.5723970  45.7650947 102.8524849
  64.3116836  45.8765655 103.2124779  63.1884819  47.0939251 103.8633187
  64.0119272  46.4517211 100.7400212  64.7376279  45.9088523 101.0566476
  62.7654918  49.0618303 100.1161473  62.4808561  48.6741410  98.9884685
  63.4044658  50.1910719 100.3911230  63.6386280  50.4353193 101.3427587
  63.7353557  51.1593449  99.3134489  64.0385230  50.6118701  98.4210027
  62.5483254  52.0388028  98.9632577  62.5246717  52.8900623  99.6436230
  62.8450786  52.3761943  97.9701794  61.1416714  51.3974496  98.8908735
  60.6742054  50.9894781  97.5988209  61.2628885  51.1542374  96.6963765
  59.4418890  50.3725239  97.5160880  59.0664359  50.1591604  96.5152820
  58.6475766  50.1126728  98.6261233  57.5176346  49.3821697  98.4882349
  57.3635087  49.0965938  97.5847465  59.0602932  50.5190703  99.9369914
  58.4404012  50.4143693 100.8274250  60.3410140  51.0784032 100.0368067
  60.7687797  51.2892188 101.0169462  64.9025123  52.0401428  99.6574454
  65.0713316  52.3831564 100.8572882  65.6244430  52.3960288  98.6299644
  65.4175721  52.0106018  97.7196074  66.7780111  53.2937373  98.7595982
  66.4440453  54.2519505  99.1575851  67.8287227  52.7231548  99.6894593
  68.6431101  53.4351354  99.8234597  67.3893770  52.4878021 100.6588325
  68.3148897  51.5752574  99.1173594  68.9848275  51.1921008  99.6883009
  67.4247129  53.6143683  97.4134846  67.3626115  52.8771366  96.4774815
  68.0399707  54.7806755  97.3486814  67.0503663  54.6497565  97.1949195
  68.9308621  55.0198724  96.1417654  68.3231027  55.0670289  95.2381592
  69.6723888  56.3069142  96.2854168  68.8986964  57.0400979  96.5133222
  70.3614851  56.2331821  97.1267311  70.4408344  56.7474090  95.0323682
  69.9827523  57.8178898  94.2865536  69.1055885  58.3891765  94.5903867
  70.6877047  58.1702713  93.0917601  70.3047979  58.9777169  92.4676480
  71.7281081  57.3776089  92.6371295  72.3715532  57.7508752  91.5223965
  72.0260730  58.5626257  91.1438410  72.2228345  56.3024701  93.4545299
  73.1005884  55.7250231  93.1643512  71.5544029  56.0053256  94.6397266
  71.9005827  55.1862102  95.2700516  68.0082516  54.9774997  94.8977865
  67.1220804  55.8188057  94.6312928  68.3275454  54.1531868  93.9046552
  69.1333135  53.5618924  94.0502844  67.6401705  54.0730338  92.6387024
  67.8324216  55.0292391  92.1520710  68.1759814  52.9626384  91.7544662
  67.8978838  52.0075425  92.2000601  67.6289800  53.0417723  90.3618132
  67.9070852  53.9964699  89.9153721  68.0387417  52.2282380  89.7631845
  66.5426115  52.9582614  90.3923113  69.5637642  53.1343690  91.6066947
  69.9148565  52.4367824  91.0483871  66.0962021  53.8475747  92.8102502
  65.3964699  54.4718738  92.0310875  65.6249619  53.0843086  93.7634293
  66.3069553  52.6008215  94.3301961  64.1676794  52.8082166  94.0110483
  63.6768588  52.4467876  93.1074093  64.0724624  51.6998195  95.1084086
  64.2016789  51.9428091  96.1630926  63.0117086  51.5713637  94.8930006
  64.7953768  50.4420012  94.7989529  64.7128242  49.5342139  95.6901596
  65.1226493  50.1249916  93.6321506  63.3597514  54.1173712  94.4037522
  62.2787354  54.4077300  93.8609548  63.9653727  55.0278998  95.2054595
  64.7460904  54.6759080  95.7408855  63.5144949  56.4063015  95.4532981
  62.4482141  56.3928312  95.6790478  64.2674306  57.0721792  96.6445415
  64.2739683  56.4514867  97.5405311  65.2903650  57.2208988  96.2987270
  63.7435358  58.4483325  97.0683956  62.3704184  58.6801131  97.4245071
  61.5695032  57.9580761  97.2654559  62.0881670  59.9223679  98.0088188
  61.0621964  60.0853371  98.3388583  63.0470565  60.9298760  98.1783809
  62.7522840  61.8506346  98.6817820  64.3863146  60.7703648  97.7078942
  65.1496929  61.5482825  97.7219588  64.6900311  59.4991130  97.1999855
  65.7054796  59.2695721  96.8770686  63.5516956  57.3592295  94.2318877
  62.5522160  58.0188721  93.9605314  64.5741341  57.2897618  93.3893156
  65.3837727  56.7556396  93.6709146  64.6129578  57.9603168  92.1446494
  64.4755212  59.0353344  92.2610425  66.0232346  57.7020433  91.5467563
  66.7403933  57.8887134  92.3460917  66.0563616  56.6487402  91.2682691
  66.3765740  58.5566738  90.3393078  65.4572311  59.1359257  90.2534199
  67.2223494  59.2339149  90.4580956  66.5673102  57.7666148  89.0726502
  67.4492294  56.9163457  89.0245146  65.9131435  58.1671934  87.9687323
  66.0239586  57.6543122  87.1057292  65.3137966  58.9792246  88.0073314
  63.6025613  57.6146442  91.1197659  62.9317226  58.4991562  90.6073228
  63.3905774  56.2997366  90.8832817  64.2028985  55.7560017  91.1374196
  62.2351880  55.5931922  90.2388685  62.1562895  55.9197571  89.2019357
  62.3999001  54.0481782  90.2617300  62.6284109  53.7379913  91.2813702
  61.4607630  53.5937515  89.9461071  63.5393180  53.5901048  89.3148248
  63.1642153  53.8824308  88.3340372  64.3618490  54.2464172  89.5990763
  64.0242785  52.1799219  89.2614530  64.5834804  51.9604892  90.1709812
  63.1669406  51.5103854  89.1922295  64.9189353  51.9786044  88.0592041
  64.3334584  52.1493951  87.1557950  65.7337777  52.7010939  88.1054641
  65.4566641  50.6561954  88.0345419  64.7017873  49.9865792  87.9912417
  66.0490011  50.5487114  87.2235646  65.9995695  50.4978800  88.8713747
  60.9413529  56.0360543  90.8810148  60.0262688  56.4016308  90.1568810
  60.7879922  56.0591513  92.2068866  61.5514816  55.7432793  92.7877551
  59.4743133  56.4787842  92.8922953  58.7684942  55.7684901  92.4617132
  59.4386924  56.3426287  94.4010769  60.1337718  57.0539784  94.8471109
  58.4302308  56.5463499  94.7610813  59.7264163  55.3294808  94.6818711
  59.0094455  57.9079218  92.6273072  57.7854134  58.1438755  92.5349534
  59.9475391  58.8076799  92.6369930  60.8188630  58.4414577  92.9930482
  59.8523647  60.2319748  92.3856573  58.9071134  60.6419161  92.7413921
  61.0513026  61.0765932  93.0297821  61.9772847  60.5712846  92.7553379
  61.1165116  62.5654608  92.5713050  60.1909962  63.0715787  92.8458352
  61.9579991  63.0592882  93.0572409  61.2461883  62.6078134  91.4898746
  60.9803077  61.0030758  94.5947344  61.0622705  59.9641927  94.9142747
  61.7994317  61.5802920  95.0236365  60.0298042  61.4135713  94.9355238
  59.6353625  60.5174613  90.8851702  58.8179099  61.4227399  90.4854353
  60.3178324  59.7704676  89.9909671  61.0577324  59.1346968  90.2525828
  60.0193548  59.9348360  88.5827253  60.0687246  60.9843252  88.2924938
  61.0849443  59.1428587  87.7689761  62.0601759  59.4168134  88.1714327
  60.9453904  58.0654910  87.8578791  61.0449513  59.5120782  86.3199331
  60.4951947  60.5623003  85.9364254  61.5523401  58.6607055  85.4931809
  61.5512094  58.8605063  84.5031415  61.9481251  57.7986972  85.8401634
  58.6167958  59.4781267  88.2394908  57.9077565  60.2073950  87.6136410
  58.2150598  58.4037254  88.8637185  58.8663148  57.9160306  89.4621498
  56.8729233  57.8828487  88.7439223  56.6525899  57.6258045  87.7078332
  56.7515678  56.5928309  89.6145588  57.7227077  56.0982653  89.5947724
  56.5272066  56.9111668  90.6326080  55.6944638  55.6372634  89.1453267
  54.7189917  56.0902554  89.3223956  55.8297271  55.4734240  88.0762324
  55.7767108  54.2763542  89.8922642  56.8350038  54.0561653  90.0323776
  55.3042793  54.4200865  90.8639889  55.0944547  53.0906039  89.1553497
  54.0072947  53.1409763  89.2157335  55.3972768  53.0283254  88.1101132
  55.5610116  51.9232063  89.8608492  55.2801422  51.9805121  90.8293161
  55.1614016  51.0951539  89.4428287  56.5683464  51.8761109  89.8046545
  55.7987944  58.9269167  89.2467175  54.8929753  59.2118287  88.4699300
  56.0238938  59.5417917  90.3942732  56.7736374  59.1516854  90.9472658
  55.2421511  60.6832226  90.9638869  54.2229634  60.3550582  91.1680038
  55.8820204  61.2106486  92.3095652  55.7854438  60.4378620  93.0721745
  56.9374638  61.4257743  92.1426512  55.1450484  62.5276033  92.7958662
  55.1537710  63.2318440  91.9639590  53.7017113  62.2911852  93.2488446
  53.6922143  61.5873537  94.0810885  53.2610131  63.2358211  93.5675118
  53.1229318  61.8818338  92.4208675  55.8923565  63.1572770  93.9909314
  56.9090023  63.4116150  93.6911933  55.3718427  64.0599642  94.3108104
  55.9246322  62.4454818  94.8157980  55.0490078  61.8924981  90.0330494
  53.9491136  62.3313329  89.7383518  56.1724158  62.3639619  89.4458737
  57.0369350  61.8717794  89.6204085  56.2032652  63.5282662  88.5572721
  55.6625099  64.3411300  89.0419734  57.6143275  64.0095669  88.2270328
  58.1836703  63.1474918  87.8795066  57.4715209  64.7068027  87.4014611
  58.3731283  64.6988700  89.3450379  58.4731507  64.0470238  90.2129048
  59.7572647  65.0153183  88.7845819  59.6580780  65.6675458  87.9169068
  60.3533581  65.5152529  89.5480208  60.2501341  64.0894432  88.4880430
  57.6864500  66.0608865  89.7657800  56.6711547  65.8651588  90.1106940
  58.2594383  66.5243743  90.5688770  57.6550479  66.7327203  88.9080200
  55.5441940  63.1645246  87.2301602  54.9547652  64.0637845  86.6018208
  55.6505149  61.9459365  86.7229740  56.2842941  61.3141643  87.1912550
  54.9567911  61.4659832  85.4690401  55.0808420  62.1646086  84.6416145
  55.5341463  60.0594881  85.0337683  55.3098221  59.3379440  85.8193592
  54.9310983  59.5865817  83.7270875  55.1554175  60.3074366  82.9408632
  55.3527267  58.6171410  83.4615440  53.8506084  59.4944052  83.8372944
  56.9407791  60.1389014  84.9215380  57.2894459  59.2843820  84.6572875
  53.3935499  61.3769627  85.6105367  52.7221790  61.8976919  84.6885002
  52.9008017  60.8243213  86.7480298  53.6036812  60.6092972  87.4407234
  51.5034609  60.5655328  87.0772306  50.9239866  60.1309864  86.2626889
  51.5506000  59.5531920  88.2449108  52.1199067  59.9777595  89.0717919
  50.5360293  59.3340782  88.5776804  52.0291442  58.6330400  87.9096274
  50.8087176  61.7868338  87.5417116  49.5990048  61.8798082  87.2547277
  51.4605938  62.8096209  88.1504462  52.4297771  62.6804147  88.4036040
  50.8135100  64.0718500  88.5060674  49.7847165  63.9192749  88.8322634
  51.6171758  64.6638148  89.6757387  51.2192074  65.6520968  89.9059972
  51.4989145  64.0140104  90.5428422  53.0305372  64.7755455  89.3423742
  53.5068983  65.1469640  90.0885165  50.6915584  65.1302201  87.3678044
  50.3744313  66.2595701  87.7025281  50.9710572  64.7295003  86.1085074
  51.4000933  63.8162946  86.0628706  50.8623327  65.5125977  84.8662302
  51.0110136  66.5745473  85.0618219  51.9339009  65.0432766  83.9166975
  52.8358298  65.0582804  84.5285786  51.7411824  64.0248422  83.5794278
  52.1298524  65.9706279  82.6810043  51.1513340  66.1189213  82.2242640
  52.7390177  67.3268606  83.0303475  53.7178211  67.1793915  83.4867415
  52.8475085  67.9215020  82.1233017  52.0871040  67.8490105  83.7306819
  52.9303102  65.3897604  81.5576944  52.4400696  64.4884894  81.1896260
  53.0052214  66.1177103  80.7498711  53.9294360  65.1394375  81.9143244
  49.4521677  65.4792312  84.3165109  48.8436862  64.4373527  84.0432334
  48.8708071  66.5651453  84.1335233  70.0972623  55.8624063 101.3245048
  46.8447857 110.6444597 103.0129670  46.8026075 109.6366261 103.0638919
  45.9394054 111.0199695 103.2566456  47.6704955 110.9599013 103.5016383
  47.0558758 111.0208137 101.6137173  46.2052146 111.6456940 101.3416895
  48.3149080 111.7973182 101.3781910  48.3724929 111.9907356 100.3070355
  48.3957231 113.1078917 102.1324800  48.3386664 112.9152295 103.2037995
  49.3394608 113.6024471 101.9025381  47.5672939 113.7507007 101.8348187
  49.3957646 111.0193419 101.8507162  50.2176794 111.4954079 101.7113693
  46.8966132 109.8829483 100.6661231  47.1479705 108.7258976 101.0389304
  46.3240322 110.0949062  99.4419263  46.1214720 111.0769071  99.3205060
  45.8589114 109.1594674  98.4188120  44.9256723 108.6576772  98.6744884
  45.6012164 110.1018864  97.2034122  45.0110367 110.8909033  97.6695019
  46.4181870 110.5471657  96.6356222  44.7404818 109.3564404  96.2797585
  45.1629507 108.3676604  95.7043106  43.6278461 109.8807843  95.8974203
  43.0274005 109.3758646  95.2613221  43.3611191 110.7943699  96.2355310
  46.6696193 107.9135516  98.0805701  46.1783170 106.7858263  98.0421188
  47.9413580 108.0730439  97.7859722  48.1775630 109.0526187  97.7171265
  48.9650628 107.0734214  97.3936849  48.5503930 106.2625629  96.7948055
  49.9858188 107.8723216  96.5157499  50.1009503 108.8182466  97.0449661
  50.9074942 107.2962157  96.5977040  49.6889753 108.1438506  95.0564402
  49.5448927 107.1654998  94.5979964  48.7912995 108.7460110  94.9161442
  50.8561766 108.8399133  94.3632434  51.8161792 109.3907592  94.9635773
  50.8737210 108.9710128  93.0787645  51.6523740 109.4338740  92.6320425
  50.1087092 108.6100727  92.5268764  49.5151844 106.2884199  98.6194989
  49.6911869 105.1223670  98.4530274  49.7646833 106.9330448  99.7540697
  49.6502679 107.9361321  99.7827831  50.2380221 106.2612318 100.9473755
  51.1147351 105.6585610 100.7101804  50.6183501 107.2717248 102.0032167
  49.8478540 108.0426478 102.0138321  50.6337827 106.7609123 102.9659900
  51.9997578 107.9257713 101.7434150  51.9748572 108.4251623 100.7748648
  52.3320557 108.9358135 102.8239527  52.3575947 108.4370408 103.7928038
  53.3058311 109.3806795 102.6191198  51.5720060 109.7169848 102.8379589
  53.1736685 106.9099566 101.7064838  53.0029442 106.1854045 100.9102571
  54.1077834 107.4400080 101.5205373  53.2354645 106.3904015 102.6626966
  49.0627697 105.3148544 101.4166734  49.2283782 104.1155573 101.6460779
  47.8616564 105.8836789 101.4141236  47.8154930 106.8908961 101.3551175
  46.6067493 105.1366734 101.6520561  46.6633460 104.6145896 102.6072129
  45.3531519 106.1399967 101.6890693  45.5666299 106.9658683 102.3676432
  45.1689602 106.5309506 100.6884052  44.0813164 105.3657399 102.1907892
  43.7617790 104.6171272 101.4658232  44.5276488 104.8691480 103.0523494
  42.9186103 106.1061255 102.6344565  41.8402151 105.9834002 102.1260627
  43.0102962 106.8176998 103.7532530  42.2118498 107.3419081 104.0815677
  43.8779944 106.8309621 104.2699979  46.4302826 104.0175878 100.7002977
  46.2692264 102.8604273 101.1314836  46.5419682 104.1580145  99.4073075
  46.6966510 105.0502004  98.9598962  46.4561319 102.9311742  98.5410830
  45.4911803 102.4359729  98.6494498  46.6070985 103.3718405  97.1334622
  45.7383209 103.9770580  96.8745480  47.5035364 103.9910317  97.1002767
  46.7428262 102.2337876  96.1425134  45.5699548 101.7946563  95.4651358
  44.6193518 102.2885043  95.6665495  45.6281297 100.7673165  94.5722593
  44.6950768 100.3338173  94.2122696  46.8400370 100.1527332  94.2765414
  46.7811630  99.2231037  93.2899352  45.8987552  99.1164828  92.9271843
  48.0121872 100.6753014  94.8536206  48.9698407 100.3108199  94.4819308
  47.9770494 101.6070867  95.8457172  48.8867942 101.8560390  96.3920570
  47.5963899 101.9654875  98.9127210  47.3409270 100.7811928  98.9182778
  48.8613948 102.3798648  99.1338413  49.0450812 103.3076600  98.7795044
  49.9910557 101.5822640  99.6053634  50.1189420 100.7586306  98.9029587
  51.3624504 102.3506243  99.7362880  51.0720660 103.2091884 100.3417991
  51.9996558 101.6904977 100.3247625  52.1185848 102.8261050  98.5197007
  51.4338162 103.3955661  97.8912846  53.2600214 103.6673732  98.8841393
  53.9455103 103.0984130  99.5122222  53.7779987 103.9891648  97.9806735
  52.9075784 104.5417682  99.4312386  52.6032868 101.6193741  97.6835203
  51.7439042 101.0316968  97.3607260  53.1470162 101.9773881  96.8092860
  53.2611471 100.9970657  98.2901925  49.6797818 100.7607359 100.8560292
  50.1646579  99.6224890 100.8776693  48.8895173 101.2923237 101.7805412
  48.6232915 102.2640185 101.7096022  48.4457691 100.5413800 102.9369871
  49.2234613  99.8634810 103.2887640  48.1341711 101.5363522 104.0402373
  49.0123535 102.0572968 104.4216973  47.4477381 102.2583015 103.5978583
  47.4372933 100.8084785 105.1861391  46.5826884 100.3314977 104.7063051
  48.1827917  99.7877773 106.0179588  49.0373284 100.2641562 106.4985096
  47.5168882  99.3832162 106.7801947  48.5319564  98.9796334 105.3752396
  47.1377696 101.9539540 106.1694852  46.4985938 102.6918754 105.6846907
  46.6303692 101.5558162 107.0481958  48.0719183 102.4265627 106.4729754
  47.1889357  99.5951661 102.6639047  47.1693845  98.3823090 103.0503221
  46.1402613 100.2057207 102.1078551  46.3043449 101.1615709 101.8258507
  44.8582713  99.6554134 101.8933317  44.5724308  99.1585297 102.8204246
  43.8064670 100.5820609 101.5207556  44.2800417 101.2662399 100.8166780
  43.0744224  99.9693426 100.9946500  43.1046431 101.3850859 102.6181727
  42.5225952 100.6970180 103.2312662  43.8645595 101.8658891 103.2341737
  42.2043363 102.4201426 102.0444872  42.1480587 103.2671869 102.7281888
  42.6032870 102.7531486 101.0863407  40.8225165 101.8849657 101.8289113
  40.2428947 101.9018701 102.6558648  40.3257652 101.3970915 100.7350403
  41.0098735 101.5220668  99.5935474  41.9033343 101.9930523  99.5928144
  40.6302110 101.1449459  98.7369636  39.1654570 100.8210960 100.7465316
  38.6475642 100.7526917 101.6109436  38.7841949 100.4431437  99.8910259
  44.8525577  98.5838749 100.7545716  44.0334912  97.6795982 100.7745188
  45.6966018  98.7559800  99.7772291  46.1713237  99.6470273  99.7494269
  45.8104790  97.8801169  98.6270161  45.2441368  96.9495628  98.6647605
  45.4486562  98.6137737  97.3587603  46.2471188  99.2890668  97.0512931
  45.2473798  97.4951141  96.2523077  44.4487050  96.8196617  96.5588749
  44.9822033  97.9640957  95.3047645  46.1727266  96.9317892  96.1318913
  44.2820561  99.6199102  97.5379689  44.5581534 100.3686632  98.2804251
  44.0756747 100.1108730  96.5869369  43.3912807  99.0883173  97.8726764
  47.1132419  97.0694910  98.5400482  47.1212578  95.8601118  98.6724066
  48.3116575  97.7764399  98.3510152  48.3531829  98.7855766  98.3467696
  49.5709658  97.0009091  97.9914064  49.2289613  96.3590568  97.1795211
  50.7686492  97.8650449  97.4749475  51.1630935  98.4695936  98.2916689
  51.8508613  96.9531215  96.9574054  51.4572708  96.3485385  96.1402965
  52.6880468  97.5504068  96.5961976  52.1912058  96.2998315  97.7608228
  50.1495915  98.5947551  96.2617697  49.3033664  99.1969916  96.5924002
  50.8987607  99.2414973  95.8050754  49.8093201  97.8612671  95.5308035
  49.9736228  96.1184240  99.2213643  49.9521277  94.8882616  99.0702106
  50.1608787  96.7191388 100.4237046  50.1629231  97.7287679 100.4509840
  50.4984358  96.0053311 101.6223746  51.3892620  95.3914543 101.4893965
  50.7848500  97.0515986 102.6807447  51.7502921  97.3678613 102.2857781
  50.1026963  97.9016318 102.6952311  50.9665295  96.5175218 104.1080389
  51.4366988  97.3062943 104.6953035  49.6426225  96.0967314 104.7792702
  49.1720668  95.3076099 104.1927862  49.8454191  95.7293081 105.7852396
  48.9737220  96.9555693 104.8346772  52.0841942  95.4597226 104.3331510
  53.0488679  95.8851767 104.0565777  52.1036511  95.1688386 105.3834411
  51.8844976  94.5827354 103.7174289  49.4326769  94.9510218 102.0177882
  49.7855866  93.8711735 102.4116655  48.1345579  95.2039345 101.8291561
  47.8366435  96.1185092 101.5210984  47.0773008  94.2048689 102.2313418
  47.3294725  93.6943107 103.1607712  45.7269742  95.0590422 102.4619388
  45.9874018  95.7835824 103.2335075  45.5641309  95.5777887 101.5172251
  44.4387761  94.3164145 102.8686806  44.1617279  93.6874956 102.0226273
  44.6981436  93.6863919 103.7195049  43.2519646  95.2226978 103.2444442
  43.1523067  95.2826445 104.3282217  43.3986645  96.2232635 102.8376925
  41.9248461  94.5840656 102.6220775  41.9851705  94.6054811 101.5339585
  41.8232578  93.5526269 102.9595879  40.7409298  95.3718005 103.0693737
  40.8346606  96.3274872 102.7563605  39.9014393  94.9698656 102.6771953
  40.6846048  95.3517280 104.0776017  46.9792198  93.0346448 101.2368571
  46.7559458  91.8901821 101.5666689  47.1655516  93.3364407  99.9321649
  47.1758047  94.3102470  99.6644048  47.3266057  92.3048016  98.8611806
  46.4513866  91.6704036  98.7210736  47.6503912  92.9620767  97.5646736
  48.5262803  93.5950134  97.7071857  47.9370638  91.9375265  96.4773568
  47.0614045  91.3044758  96.3339444  48.1695330  92.4519107  95.5449051
  48.7859539  91.3210309  96.7730241  46.6662376  93.8832105  97.0942609
  46.9528915  94.2586145  96.2584968  48.4427126  91.3567081  99.2966715
  48.2051860  90.1519051  99.3279905  49.6046882  91.9127842  99.6881956
  49.5772786  92.9223954  99.6939652  50.8354618  91.2448367 100.1461078
  51.1404880  90.4888405  99.4225555  51.9653379  92.2662497 100.2917698
  51.5178851  92.9620038 101.0015665  52.7169443  91.6624345 100.8002923
  52.6211285  93.0461979  99.1626335  51.8375922  93.4769303  98.5392225
  53.5219207  94.1710734  99.7043322  54.3060306  93.7410447 100.3275062
  53.9745579  94.7080214  98.8707213  52.9238412  94.8616988 100.2988385
  53.5131539  92.1367826  98.2671234  52.9024684  91.3488406  97.8263173
  53.9616690  92.7348476  97.4738682  54.3006314  91.6891615  98.8734350
  50.7803603  90.5977641 101.5031689  51.3450326  89.5439212 101.8298574
  49.8913290  91.1028891 102.3549704  49.4746501  91.9918985 102.1180310
  49.6145722  90.5330823 103.6900340  50.5581847  90.2056115 104.1264483
  48.9662154  91.5054375 104.6263501  49.5098144  92.4095332 104.3521054
  47.8952560  91.6812668 104.5252059  49.2187174  91.2811820 106.0380254
  48.4069976  90.6210752 106.9539643  47.5460187  90.0809597 106.5601493
  48.8978199  90.8059610 108.2279265  48.5556526  90.2699645 109.0126104
  49.9360032  91.6911051 108.2651348  50.6661794  92.2429843 109.3511196
  50.3686230  92.0189760 110.3755117  51.7485231  93.0598569 109.0125370
  52.3067730  93.5528638 109.8084020  52.1424380  93.2668723 107.6669677
  52.9884200  93.9053037 107.4123714  51.4361604  92.6401068 106.6048764
  51.8263308  92.7864718 105.5976798  50.2530088  91.8930173 106.8783353
  48.8544706  89.2246997 103.6104493  48.8478127  88.4951809 104.6068765
  48.2269780  88.9707781 102.4687568  48.3171610  89.6109531 101.6927785
  47.3675532  87.7978291 102.3042036  47.2595855  87.2429381 103.2361575
  45.9769967  88.3261840 101.8795229  46.1556450  89.2830519 101.3890255
  45.5930078  87.6114601 101.1516339  44.9522424  88.5117664 103.0014908
  45.2085728  89.4832020 103.4242301  44.0027609  88.5859253 102.4713141
  44.8246911  87.4512218 104.1615139  44.6525882  86.4730054 103.7125460
  45.7634282  87.4361836 104.7152701  43.6811978  87.7818428 105.1107193
  43.9961629  88.6905391 105.6237191  42.8342475  88.0062496 104.4623244
  43.2896438  86.7851530 106.0896952  44.0741833  86.5773862 106.6908861
  42.5248463  87.1410932 106.6451152  42.9973487  85.9432012 105.6145321
  47.8293351  86.7727482 101.3051277  47.1180208  85.7933970 100.9423697
  49.0533737  86.8968809 100.7453122  49.4532822  87.8236316 100.7814449
  49.7761124  85.8689739 100.0445961  49.1724863  85.4442716  99.2424971
  51.0440248  86.5117684  99.4236819  50.8270658  87.4765791  98.9652407
  51.7653974  86.6470132 100.2295543  51.7564550  85.6401003  98.3230043
  52.9012325  84.8763644  98.4727133  53.1333359  84.2556004  97.3541401
  53.9714584  83.5617220  97.2894687  52.2343925  84.6207799  96.4501053
  52.1659764  84.2918349  95.4976274  51.3772236  85.5548756  97.0393902
  50.6017335  86.0353024  96.4428112  50.1990301  84.5847701 100.8044087
  50.3994562  84.6069948 101.9862109  50.3402623  83.4712353 100.0561831
  50.0131875  83.4937891  99.1008754  50.9397333  82.2355112 100.5540041
  50.3244775  81.6726270 101.2559449  51.0154057  81.4734920  99.2655269
  50.0243152  81.5471443  98.8178506  51.7343684  82.0087439  98.6452866
  51.4211716  80.0066384  99.3627727  51.4844319  79.4838493  98.4084192
  52.4188512  80.1012002  99.7914865  50.5718165  79.1960808 100.2984127
  49.6422623  78.5058922  99.8900332  51.0222860  79.1398771 101.5463459
  50.5108645  78.6151038 102.2414449  51.8742527  79.6221597 101.7946554
  52.2901558  82.2742935 101.2253601  52.4698597  81.6058393 102.2745262
  53.1885323  83.1585374 100.7506629  53.1381611  83.6689521  99.8805831
  54.3484573  83.2769207 101.5224499  54.2232024  82.6992880 102.4382833
  55.6043024  82.7604128 100.7798096  55.9483070  83.5390249 100.0989842
  56.4004341  82.5155220 101.4828763  55.3641496  81.4799169  99.9112365
  55.0733419  80.1984005 100.4540565  54.9784753  80.0883432 101.5343285
  54.9107209  79.0965250  99.6278931  54.6705988  78.1434769 100.0992119
  55.0438298  79.1753055  98.2385401  54.9586635  78.3110172  97.5798654
  55.3084197  80.4908426  97.6805803  55.3872444  80.6552465  96.6059370
  55.4638358  81.5683247  98.5696249  55.6817155  82.5648310  98.1854329
  54.5292833  84.7249881 101.9843706  55.6298804  85.3005140 101.9480123
  53.3816333  85.3706981 102.3809653  52.4907449  85.0351384 102.0435979
  53.4020298  86.5555139 103.1664088  53.9878927  87.2843707 102.6063804
  51.9447837  87.1119298 103.3424002  51.3483596  86.3970879 103.9093035
  51.9797685  88.0606616 103.8779227  51.4929081  87.2649500 102.3623530
  54.0975562  86.3707144 104.5533933  54.6637083  87.3136935 105.0768810
  53.8935710  85.2447640 105.2162385  53.3958677  84.5568557 104.6692715
  54.1967303  84.9311264 106.6302936  53.6326663  85.5855905 107.2948294
  53.8089628  83.5101689 106.9143396  54.0667006  83.4992266 107.9733725
  52.7859170  83.1565190 106.7862418  54.7024466  82.4983738 106.2424592
  54.4048271  81.7569447 105.1470083  53.4212942  81.8866550 104.6954133
  55.4787135  80.9618615 104.8375432  55.5532109  80.5342662 103.9255608
  56.4070499  80.8550649 105.8490921  57.5380188  80.1077321 106.0906828
  57.7653439  79.3512793 105.3395496  58.2975920  80.3297871 107.2079371
  59.2302381  79.7970364 107.3935382  57.8564676  81.2784879 108.1463059
  58.3656354  81.4342759 109.0973988  56.7491756  82.0444572 107.8746139
  56.6029055  82.8464503 108.5981558  55.9227467  81.8654127 106.7544571
  55.6659645  85.2191242 107.0183259  55.8744354  85.6316961 108.1764145
  56.7299550  85.1245689 106.1361299  56.8076182  84.6157497 104.7681181
  56.7053026  85.4755584 104.1060298  55.9563500  83.9489320 104.6310209
  58.1435326  83.8975178 104.5941712  58.5307171  84.0039120 103.5808265
  58.0683040  82.8393432 104.8445882  59.0335285  84.6497671 105.6240534
  59.7177803  85.3762990 105.1858185  59.6040387  83.8924299 106.1616947
  58.0448267  85.3726447 106.6057922  58.1497589  84.8322697 107.5465803
  58.3853201  86.8673888 106.8289293  59.2254033  87.1618143 107.6361616
  57.7153775  87.7828326 106.0699737  56.9704771  87.4926235 105.4527206
  58.2132528  89.1822291 105.9662259  59.1002619  89.3107325 106.5865491
  58.5811604  89.4989052 104.5156749  57.7520199  89.6237348 103.8192247
  59.1513972  90.4262064 104.5708345  59.4849329  88.4785106 103.9224405
  58.9815085  87.5682073 102.9564841  57.9080171  87.5980683 102.7698709
  59.7986115  86.6514042 102.2488198  59.3731984  85.9381538 101.5428466
  61.1546592  86.6748743 102.4686264  61.8169474  85.9959148 101.9315154
  61.6988891  87.6091271 103.4201145  62.7794713  87.6513192 103.5567239
  60.8887747  88.4308505 104.1427122  61.3130499  89.0744925 104.9133064
  57.3237566  90.1908975 106.6101721  57.5863958  91.3821592 106.5542768
  56.2307899  89.7598253 107.2621463  55.9781604  88.7840220 107.1982266
  55.4032180  90.6440256 108.1102544  55.1228266  91.5514693 107.5754406
  54.0811254  89.8513603 108.4928427  54.3667877  88.9010235 108.9437931
  53.5214247  90.4430053 109.2172677  53.2072410  89.5902310 107.2638738
  52.6288972  90.5065433 107.1455904  53.8300343  89.4379414 106.3823759
  52.2198244  88.3907058 107.3893840  52.4909163  87.4672564 108.1597426
  51.1076418  88.2827557 106.6268602  50.4953832  87.4877700 106.7419192
  50.8945620  88.9976336 105.9459431  55.9902081  91.0971266 109.4657603
  55.3438435  91.8688282 110.1618096  57.1332076  90.4528814 109.8828936
  57.5455993  89.8182761 109.2140824  57.7698578  90.6004058 111.1670704
  57.3960322  91.4864546 111.6801701  57.4526577  89.3614991 112.0286220
  57.7539660  89.6456541 113.0368722  56.3673049  89.2702176 111.9864660
  58.0890562  88.0247332 111.6662866  59.1141966  88.3230586 111.4467646
  58.0920484  87.2613290 112.4443015  57.4785167  87.4364255 110.4145188
  56.6230180  87.9132233 109.6718003  57.8027587  86.1629131 110.2037694
  57.4433375  85.6811482 109.3920918  58.4067490  85.6840990 110.8564822
  59.2798739  90.7296800 110.9462409  59.8666359  90.3796592 109.8951383
  59.9786376  91.4342039 111.8322010  59.5365046  92.1419560 113.0489863
  58.7032211  91.5675191 113.4536603  59.1796654  93.1194364 112.7244916
  60.6623980  92.2399664 113.9871638  60.8224806  91.3321883 114.5688953
  60.5912511  93.0943835 114.6602247  61.7675386  92.4457236 112.9642126
  62.6626872  92.0368385 113.4328498  61.9390156  93.4902659 112.7041614
  61.4285726  91.6489043 111.7143746  61.6393560  92.1760013 110.7838707
  62.1647033  90.2925575 111.7145307  61.6145021  89.3300262 112.2379209
  63.3875284  90.1704775 111.1393575  63.6266652  90.7466075 110.3450105
  64.3523962  89.1418966 111.5732576  63.9653937  88.1329229 111.4307778
  65.6751172  89.3000175 110.7234841  65.9313677  90.3578606 110.7818185
  66.8929959  88.4530851 111.1407012  66.6376396  87.3950357 111.0821712
  67.7279648  88.6623327 110.4720138  67.1760709  88.7019590 112.1634582
  65.3507389  88.9578270 109.3201672  64.5792262  89.6330050 108.9500256
  66.2452733  89.0572000 108.7053235  64.9885394  87.9309677 109.2704445
  64.6310816  89.1805608 113.0668517  64.7026956  90.2969997 113.5866369
  64.8133291  88.0882300 113.7118358  64.5465791  87.2090207 113.2923899
  65.2804588  88.0842800 115.1587740  65.2865189  89.1012340 115.5510328
  64.3469852  87.2445683 116.0054807  64.4353691  86.1740435 115.8203748
  64.6983962  87.4688521 117.0126089  62.8289177  87.6811264 115.8662756
  62.0223371  86.7126900 116.0142878  62.5099940  88.8914960 115.7726903
  66.7374917  87.6716981 115.3206268  67.0419727  86.6658264 115.9823680
  67.6600376  88.3839903 114.7124025  67.3409862  89.3046445 114.4465049
  69.0461075  88.0138055 114.4083918  69.0280764  87.1800115 113.7065645
  69.7463352  89.2070292 113.7361862  69.7802593  90.0470158 114.4299958
  70.7618478  88.9240468 113.4591384  69.1938104  89.4967887 112.8423994
  69.9121261  87.6469934 115.6166342  70.7276723  86.6901547 115.5167534
  69.5716980  88.2712364 116.7282323  69.0814062  89.1383858 116.5616036
  69.9664362  87.9616306 118.0688501  71.0540740  88.0248199 118.1027688
  69.3813527  88.9705956 119.0824851  69.6738069  89.9656410 118.7471429
  67.8930147  88.9096907 119.2238307  67.5998160  87.9150113 119.5596111
  67.5662694  89.6500814 119.9540085  67.4271959  89.1195473 118.2609835
  69.8800937  88.7121391 120.4908980  70.9665043  88.7975753 120.5135842
  69.4443298  89.4438430 121.1712059  69.5884819  87.7089389 120.8017883
  69.7418297  86.4966363 118.5195491  70.6133639  85.8361449 119.1062690
  68.6214493  85.8968848 118.0793188  68.0398224  86.4167888 117.4378289
  68.1886158  84.5298219 118.4739379  68.5172127  84.2982906 119.4871094
  66.6465263  84.4698820 118.4296202  66.2739061  85.4015450 118.8553636
  66.3548949  84.4078711 117.3811900  66.0481941  83.2788441 119.1995730
  64.9925685  83.5384946 119.2791792  66.1659873  82.4479132 118.5040295
  66.5792514  82.8694429 120.5794841  67.6159101  82.5348688 120.5407807
  66.4834470  83.6697135 121.3133015  65.6683432  81.6826839 120.9875213
  64.6230751  81.9639555 120.8594530  65.8911201  80.8191883 120.3607478
  65.9097751  81.3487199 122.3680120  65.7029927  82.1485878 122.9490043
  65.3173914  80.5758130 122.6359605  66.8781887  81.0876459 122.4868164
  68.7517695  83.4058675 117.5224519  69.0789282  82.3702943 118.0024198
  68.9480092  83.6966719 116.2449262  68.5083466  84.5106931 115.8397527
  69.7402566  82.8384448 115.3791669  69.5229484  81.7834884 115.5463293
  69.3425948  83.2041343 113.9116434  69.5402826  84.2741158 113.8471573
  69.9897708  82.6729000 113.2137514  67.8282972  82.9245110 113.5439130
  67.7598341  81.8534124 113.7340750  66.6243923  83.6302921 114.1674279
  66.6919189  84.7014498 113.9772695  65.7062959  83.2408693 113.7274852
  66.6152107  83.4525816 115.2428046  67.7966703  83.1594060 112.0553613
  68.4827371  82.4698275 111.5635347  66.7860442  82.9935512 111.6822283
  68.0983270  84.1849440 111.8423497  71.2492678  83.0289166 115.6507669
  72.0396061  82.2291852 115.2065506  71.6037141  83.9819859 116.5269482
  70.8746459  84.6591713 116.7000924  72.9633791  84.2790508 117.0132727
  72.9255617  85.1808656 117.6243367  73.5603006  83.1324168 117.8612115
  73.7726339  82.2607914 117.2421129  74.4864937  83.4951504 118.3069588
  72.6206839  82.7200328 118.9691523  71.9354427  83.4074372 119.6781084
  72.5739340  81.4110829 119.0907690  71.9832456  80.9932284 119.7954566
  73.1289437  80.8299851 118.4788945  73.9011454  84.8614596 115.9103438
  75.1017142  84.5919510 115.7847698  73.2491899  85.4951609 114.9190444
  72.2657349  85.7019359 115.0198400  73.9242296  85.8118334 113.5816077
  74.4478325  84.9095072 113.2657807  73.0129960  86.2467411 112.4779961
  72.6968041  87.2333150 112.8168085  73.6446888  86.3512861 111.5958767
  71.7730419  85.4039040 112.1242271  71.1765214  85.1965954 113.0126455
  70.9625974  86.2199178 111.1560876  71.5583361  86.4272466 110.2671507
  70.0682562  85.6652265 110.8722353  70.6727448  87.1597809 111.6259209
  72.1204417  84.0069227 111.5239341  72.7070527  83.4369661 112.2444454
  71.1998323  83.4685454 111.2987019  72.6975705  84.1375703 110.6085367
  75.0356129  86.8764431 113.8486330  74.6788932  88.0715958 114.2195978
  76.3591630  86.5990771 113.6355671  76.9368961  85.3402414 113.0733837
  77.1134319  85.4806035 112.0069720  76.2223679  84.5301470 113.2193130
  78.1997352  85.1302209 113.8406319  78.9045225  84.5111550 113.2855362
  78.0038874  84.6753919 114.8116497  78.7383983  86.6135145 114.0082116
  79.3290941  87.0048198 113.1799255  79.3192041  86.6742757 114.9285769
  77.4242273  87.4339030 114.1546400  77.2074432  87.5575303 115.2156863
  77.6046701  88.7532344 113.5356648  78.2533053  89.5902816 114.1512665
  77.2208798  89.0035400 112.3127188  76.7689686  88.2482232 111.8173681
  77.5073708  90.2204781 111.5911113  77.7616463  91.0265386 112.2793769
  78.6838999  89.9744556 110.6818648  78.2904594  89.3408605 109.8869679
  78.9323088  90.9547183 110.2750748  79.8950560  89.3567879 111.2472996
  80.0825548  88.1933089 110.8521051  80.6730593  89.9484102 112.0603740
  76.3360655  90.8675113 110.8109614  76.4663182  91.8550749 110.0975929
  75.1070980  90.2625354 111.0635482  75.1092023  89.5529574 111.7822929
  73.8766725  90.5347612 110.3812050  73.8779760  90.1123355 109.3763896
  72.7863073  89.8955788 111.1638101  73.0413024  88.8447311 111.3009087
  72.6920040  90.3760770 112.1376316  71.4317920  90.0060386 110.3961938
  71.2454625  89.2420305 109.2554362  72.0662620  88.6113045 108.9140093
  69.9832796  89.2675804 108.5122946  69.7895563  88.6106663 107.6643341
  69.0537108  90.2884079 108.8468780  67.9945792  90.4152931 107.9732823
  68.0297019  89.7878529 107.2475518  69.1784564  90.9800135 110.0507410
  68.3626054  91.5985784 110.4247265  70.3770084  90.8728048 110.7869585
  70.5172016  91.4674927 111.6896170  73.5998776  92.0242933 110.2174598
  73.4906280  92.4275350 109.0996751  73.7133044  92.7821735 111.2129637
  73.8637452  92.3027678 112.0891126  73.4897831  94.2795272 111.2431018
  72.7115834  94.5463860 110.5280558  73.0458292  94.7502861 112.6612795
  73.8595439  94.4190422 113.3064501  73.0030223  95.8394452 112.6614999
  71.7492549  94.1998631 113.1709642  70.5381988  94.5093395 112.5228001
  70.5144072  95.2595540 111.7324131  69.3505071  93.8430532 112.9006201
  68.4712564  93.9425523 112.2641298  69.2805014  93.1295643 114.0343793
  68.0550361  92.6439789 114.4264604  67.3478325  92.8772043 113.8205985
  70.4979604  92.9032220 114.7154634  70.4290786  92.2680246 115.5985716
  71.7240858  93.4273206 114.3317668  72.6131794  93.2281986 114.9300670
  74.6454374  95.1660016 110.7130952  74.5674285  96.3886441 110.6682071
  75.7905701  94.5860028 110.3559683  75.9426265  93.6352473 110.6609964
  76.8605554  95.2540502 109.5802537  76.8062630  96.3285459 109.7552120
  78.2683046  94.7590786 109.9809560  78.3424450  93.7197690 109.6608968
  78.9868103  95.3618834 109.4255497  78.5733296  94.8548114 111.4840581
  78.3889667  95.8687248 111.8391507  77.9458839  94.1566414 112.0381091
  79.9775705  94.5153554 111.6902234  80.5654847  95.1790390 111.0562045
  80.2068523  94.7161320 112.7367501  80.3224775  93.0576902 111.3623130
  79.4901774  92.4117263 111.6417907  80.5166416  92.9577041 110.2944168
  81.4934801  92.6746436 112.0991965  81.3136310  92.7668100 113.0887719
  81.7256692  91.7148383 111.8871539  82.2649343  93.2728114 111.8400583
  76.6300659  95.0031018 108.0967884  76.4954543  95.9390605 107.3497034
  76.5021388  93.7494630 107.7326696  76.8218159  93.1216204 108.4563543
  76.0656388  93.1917479 106.5023580  76.7497553  93.3654849 105.6717563
  75.8241549  91.6441011 106.6682857  75.3202827  91.5150679 107.6261811
  75.0455258  91.0129347 105.6254268  75.5490333  91.1411566 104.6672306
  74.9421370  89.9495855 105.8415286  74.0578175  91.4717548 105.5805296
  77.1622193  90.8961993 106.8444232  77.6549185  91.0522033 105.8847300
  77.6681112  91.4824822 107.6115251  77.2229431  89.4276831 107.2098800
  76.7176227  88.8406793 106.4429526  78.2641555  89.1130208 107.2803335
  76.7308131  89.2709578 108.1697473  74.8123651  93.8243739 105.8959799
  74.8122915  94.2523102 104.7579028  73.7943559  94.0448577 106.7430798
  73.8713572  93.5746359 107.6336198  72.5894382  94.8361978 106.4769140
  72.3175903  95.0488140 105.4429932  71.4365659  94.0856847 107.1660080
  71.6722548  93.9180021 108.2169284  70.1879825  94.9384723 107.0583841
  69.9513809  95.1062090 106.0076773  69.3551332  94.4266905 107.5406103
  70.3583362  95.8966047 107.5493637  71.2784972  92.6285185 106.6893454
  72.2203894  92.1139384 106.8794697  70.4880812  92.1697332 107.2833640
  70.9271970  92.5184134 105.1978207  71.7174314  92.9766042 104.6031018
  70.8294323  91.4680066 104.9236186  69.9851238  93.0324014 105.0069957
  72.7452834  96.3369737 106.9970995  73.1183571  96.4368837 108.1922748
  72.5078488  97.3226178 106.1650156  72.6383227  97.1275004 105.1826688
  72.3396099  98.7489679 106.5893458  72.9952572  98.9407351 107.4387286
  72.6835757  99.7476044 105.4661078  73.6340739  99.4598300 105.0168435
  71.8993447  99.7121125 104.7099185  72.7918966 101.1673555 106.0208682
  71.7969103 101.5444847 106.2572504  73.4017286 101.1614022 106.9242903
  73.4578707 102.0907776 104.9489381  74.4411904 101.6735195 104.7319656
  72.8377725 102.0426829 104.0538042  73.6059626 103.5258709 105.3800017
  72.7274191 103.8469505 105.9396176  74.4947459 103.6466354 105.9993396
  73.7373162 104.3296362 104.1888353  72.9136621 104.2182100 103.6150080
  73.8386419 105.3006959 104.4474395  74.5515791 104.0325610 103.6703554
  70.9947064  99.0720522 107.3453618  71.0520549  99.7195164 108.4146323
  69.8226243  98.5274587 106.9791756  69.8888954  97.8662653 106.2185635
  68.4373681  98.8159080 107.5740052  68.6687920  99.2628702 108.5408387
  67.7700467  99.9326752 106.6406391  67.5145431  99.4118086 105.7178628
  66.5275062 100.6804872 107.1700228  66.7823735 101.2020119 108.0926030
  66.1929487 101.4028356 106.4254537  65.7286632  99.9653501 107.3663122
  68.7242130 100.9673483 106.6510857  68.4116406 101.6963466 106.1102897
  67.5228532  97.5939640 107.6415868  66.9419924  97.2436249 106.5796323
  67.3847099  96.9182901 108.7718396  68.2353581  96.9119287 109.9403703
  68.6074871  97.9274870 110.0755057  69.0708460  96.2444566 109.7293251
  67.4028199  96.4402257 111.1061423  66.7244464  97.2040799 111.4861887
  68.0009506  96.0451485 111.9272726  66.6278718  95.3001547 110.3849629
  65.6677056  95.1778486 110.8861825  67.1481058  94.3426701 110.3588959
  66.4026795  95.8297589 108.9179493  66.6191231  95.0474675 108.1904395
  64.9655681  96.3808247 108.6749218  64.6144365  97.4517581 109.2118363
  64.3152645  95.7985587 107.5913898  64.8412560  95.1400805 107.0347582
  63.0267741  96.2936886 107.0603484  62.4627858  96.7837504 107.8539830
  63.2732740  97.3294923 105.9070442  64.0784987  97.9830690 106.2425286
  63.6070366  96.7576521 105.0411912  62.0144786  98.2050043 105.5079940
  62.2696027  98.9709524 104.7756443  61.2001476  97.5914532 105.1226084
  61.4908180  98.9914444 107.0207191  62.6650673 100.2463172 107.4615023
  62.7218165 100.9876299 106.6644239  62.3501839 100.7307480 108.3857728
  63.6456353  99.7926055 107.6054928  62.0237851  95.1745458 106.7856534
  62.4781789  94.1744276 106.2267357  60.7102273  95.3711043 107.1676699
  60.4861264  96.2928986 107.5143302  59.7055519  94.3505648 107.2504921
  59.8268512  93.7092070 106.3775397  59.7444527  93.5011443 108.4746888
  59.2815557  92.5343757 108.2767396  60.8154470  93.3664079 108.6260738
  59.1471539  94.0930825 109.6875133  59.9026523  94.8405514 110.4081196
  57.9160361  93.9047641 109.8706392  58.2816707  94.9562900 107.0324108
  58.0275219  96.1164258 107.3925111  57.3573903  94.1995791 106.3836462
  57.7056017  93.3934560 105.8846334  55.9743973  94.6416772 106.1203395
  56.0151750  95.5387724 105.5025559  55.1466609  93.6243838 105.4253146
  55.0982497  92.7529571 106.0782856  54.1490739  94.0487589 105.3120627
  55.6892747  93.1981500 104.0323107  56.1192084  94.1042554 103.6054257
  56.4849348  92.4837749 104.2437232  54.4869062  92.4384321 102.7924962
  53.9270986  91.1581452 103.9289411  53.4877843  91.6221961 104.8119806
  53.1799551  90.5357971 103.4364372  54.7742929  90.5405354 104.2271378
  55.2612685  95.3363760 107.3275366  54.4806983  96.2696369 107.1420041
  55.5140154  94.8626539 108.5235263  56.1711433  94.0970650 108.5699585
  54.9447460  95.3354168 109.7350763  53.8722367  95.4601790 109.5858873
  55.1188213  94.5900845 110.5111414  55.5605129  96.7076675 110.1959042
  54.8018731  97.6127558 110.6036772  56.8602831  96.8488733 110.0637220
  57.4654959  96.0608562 109.8824877  57.4856420  98.2345678 110.1500351
  57.2501519  98.6288404 111.1385657  59.0700522  98.3556334 109.9131080
  59.2581040  97.9355036 108.9250657  59.6621505  99.7622696 109.9892147
  59.4748867 100.1829007 110.9771931  60.7367362  99.7147461 109.8128453
  59.1977816 100.3939696 109.2319714  59.8561380  97.6256353 110.8006625
  60.7832723  97.7548498 110.5877634  56.8756622  99.1510612 109.0659528
  56.6352565 100.3786278 109.3218072  56.7101797  98.6696884 107.8123736
  57.1509800  97.7797191 107.6286645  56.0832955  99.3692428 106.7046964
  56.5068931 100.3584770 106.5312601  56.1405094  98.5377261 105.3793359
  55.7828948  97.5306586 105.5938754  55.2680500  99.1694422 104.2538607
  55.6253789 100.1764213 104.0384311  55.3381022  98.5592155 103.3534071
  54.2293621  99.2153169 104.5811559  57.6325966  98.3331992 104.9468737
  57.9400303  99.3525898 104.7135756  58.0960354  98.0195614 105.8822641
  58.0714400  97.4035479 103.8279144  57.6087379  97.7168564 102.8920488
  59.1560854  97.4421357 103.7271444  57.7647407  96.3838277 104.0607365
  54.6643581  99.8220204 107.0037916  54.3445063 100.9722174 106.8419903
  53.7844517  98.8878643 107.5192887  54.0015155  97.9276159 107.2936663
  52.4687421  99.1838252 108.1966280  51.8109690  99.7271372 107.5182138
  51.7667778  97.8382487 108.6067694  52.1248812  97.0271595 107.9727383
  51.9887838  97.6091043 109.6490296  50.1976963  97.9997792 108.4232997
  49.8633699  98.9503974 108.8388136  49.9327022  97.9522489 107.3670700
  49.5218327  96.8538278 109.1686538  49.8810476  95.8963692 108.7913785
  49.7307998  96.9246560 110.2360879  48.0627149  96.9560381 108.9441584
  47.7929307  98.0047853 108.8198745  47.8006314  96.4045306 108.0412459
  47.3294047  96.3927202 110.0946497  47.5717886  96.9038966 110.9313387
  46.3357511  96.4680118 109.9300788  47.5789272  95.4208173 110.2097252
  52.5182623 100.2377349 109.3791626  51.8004139 101.2124579 109.3645127
  53.4334162 100.1239736 110.3361980  54.0635527  99.3367326 110.2789349
  53.5452074 101.0101765 111.4731502  52.5636718 101.1237118 111.9333640
  54.5095291 100.4795595 112.5141488  54.1825429  99.4605893 112.7212213
  55.4828039 100.4557306 112.0239770  54.6192759 101.2562767 113.8273784
  55.2079736 102.1526854 113.6324748  53.6110419 101.5423707 114.1269055
  55.2706065 100.4554982 114.9426084  54.6091329  99.6088577 115.1263242
  56.2163323 100.0957587 114.5372818  55.5275930 101.1946605 116.2547845
  56.4365486 101.7854084 116.1411305  54.6842100 101.8590739 116.4428250
  55.6860975 100.2532690 117.4052907  56.4678116  99.6378023 117.2314417
  55.8537741 100.7799755 118.2506100  54.8437848  99.7060719 117.5110440
  53.9842673 102.4569069 111.1068738  53.4393670 103.3481834 111.6566773
  54.9260028 102.6205566 110.1671196  55.4564503 101.7863885 109.9600242
  55.3008751 103.9059438 109.4555864  55.6795021 104.6482122 110.1582800
  56.4106029 103.5758481 108.4443679  56.2311353 102.6055970 107.9812228
  56.4653409 104.3423295 107.6713155  57.7554918 103.5348488 109.2309727
  57.8977852 104.5131152 109.6901548  57.6576982 102.7790367 110.0102586
  58.9922081 103.1968731 108.3276515  59.0343765 102.1305938 108.1054597
  58.9612333 103.7608003 107.3953822  60.2269342 103.5788409 109.0773916
  60.0436010 103.6609701 110.0672113  61.4197489 103.7184687 108.6691477
  61.6854822 103.8298440 107.4083807  60.9347537 103.8059269 106.7331513
  62.6424827 103.9402129 107.1049532  62.3610138 103.8515361 109.5767585
  62.1182768 103.8398199 110.5570858  63.3226947 103.9648920 109.2896715
  54.0259941 104.4633220 108.8154902  53.6827849 105.6141408 108.9645588
  53.3562455 103.6674016 107.9471598  53.8143038 102.8161026 107.6546331
  52.0915594 104.0917622 107.2193062  52.2380148 105.0034027 106.6400293
  51.7696796 102.9729403 106.2775467  51.9554665 102.0752814 106.8672849
  50.7067766 103.0413202 106.0458974  52.5771470 102.9023476 104.9669926
  53.6379165 102.9812405 105.2049945  52.3126734 101.5679075 104.2216978
  51.2521138 101.4885071 103.9829349  52.8947451 101.5441336 103.3004334
  52.6050525 100.7320448 104.8572671  52.1926694 104.0988699 104.1082491
  52.4251658 105.0199878 104.6426521  52.7524075 104.0706372 103.1733707
  51.1247211 104.0640263 103.8929091  50.9948224 104.5899054 108.2226981
  50.2880925 105.5587509 107.9468532  50.8351753 103.8942274 109.3719883
  51.3621719 103.0428498 109.5043898  49.7732111 104.2141680 110.3377149
  48.9214441 104.6523193 109.8175076  49.3068693 102.9506212 111.0604873
  50.2017380 102.3519133 111.2303641  48.9043889 103.2812598 112.0179776
  48.2779257 102.1211197 110.3443943  48.1120594 102.4528283 109.3194267
  48.6763345 101.1065652 110.3374170  46.9658292 102.1426139 111.1001170
  46.4549871 103.1062960 111.6551622  46.3616406 101.0352602 111.0366121
  50.0836839 105.3647198 111.2840674  49.1781979 106.1337719 111.6189823
  51.3741873 105.6162404 111.5853720  52.0849169 104.9751307 111.2629730
  51.7935835 106.7726526 112.4090446  50.9433777 107.1837664 112.9533191
  52.8647051 106.2970977 113.4417997  53.7704819 105.9016449 112.9821427
  53.0966407 107.2289592 113.9574936  52.3572422 105.2881550 114.4642384
  51.8874378 105.7346850 115.5214137  52.2672325 104.0254461 114.2003394
  51.9256913 103.3883383 114.9057067  52.5388958 103.6822799 113.2900994
  52.3538368 107.8995361 111.5200531  52.9198606 108.8307912 112.0353840
  52.1049458 107.9727644 110.1961774  51.8065634 107.0884347 109.8101356
  52.3203367 109.0775184 109.2907181  52.1236009 108.7007138 108.2870187
  51.4821274 110.3130397 109.5151152  51.5971557 110.6137356 110.5564844
  51.8370038 111.1128973 108.8651993  50.0017495 110.0793952 109.2362185
  49.6631514 109.6902354 108.1396990  49.0920926 110.3200253 110.1916830
  48.1123002 110.1638777 110.0026737  49.3909073 110.6563099 111.0959636
  53.8029039 109.5015814 109.2166914  54.1469436 110.5550626 109.7395624
  54.6560796 108.5164869 108.8925125  54.2845818 107.5985936 108.6936137
  56.1283962 108.6915683 108.9041016  56.4025569 109.4597330 109.6271909
  56.8469681 107.3376385 109.3066107  56.5491643 107.3428804 110.3551261
  56.3943837 106.4821690 108.8051734  58.3620366 107.2380861 109.2105964
  59.1895852 107.7572956 110.2500591  58.7435618 108.2641372 111.1057893
  60.6276087 107.6088593 110.1652001  61.2224721 107.6777519 111.0759652
  61.2200082 107.1082468 108.9570263  62.5600666 107.2046407 108.7108538
  63.0420271 107.6341493 109.4213719  60.3716257 106.7567422 107.9016890
  60.8231183 106.4181154 106.9691726  58.9927094 106.8296457 108.0174374
  58.3599744 106.5667502 107.1697154  56.5989759 109.2191572 107.5290839
  57.1650240 110.3123451 107.5652459  56.2719505 108.5351578 106.4474216
  55.9258537 107.5965891 106.5867234  56.3843614 109.0437943 105.0601603
  57.3944283 109.4277032 104.9170591  56.1102182 107.9750693 103.9934188
  55.0272945 107.8884207 104.0821169  56.3675815 108.2862204 102.9809717
  56.7639970 106.6030268 104.2935180  58.0755809 106.3291844 103.9397382
  58.6706515 107.1062239 103.4599465  58.6404254 105.0667380 104.1928227
  59.7129256 104.9094781 104.0783041  57.8253359 104.0401696 104.7530827
  58.2239968 102.7891353 104.9080306  59.1223512 102.6412811 104.6035666
  56.4775098 104.3730565 105.0036866  55.8675801 103.5714228 105.4201835
  55.9128573 105.6195860 104.7563131  54.8486516 105.7798356 104.9291902
  55.3718305 110.2001660 104.8236298  54.2478613 110.1934299 105.3913920
  55.8172256 111.1244894 103.9720950  56.8098432 111.2525485 103.8364094
  54.9192353 112.0216035 103.3068210  53.8839135 111.7711117 103.5380391
  55.2047204 113.4815155 103.8040144  54.3711572 114.1214242 103.5145519
  55.3109476 113.4925723 104.8887695  56.4511574 114.1163957 103.2421356
  57.6957331 113.8977768 103.7197055  57.7705607 113.1990703 104.5529580
  58.6236517 114.6279206 103.0276274  59.6071258 114.6999330 103.2460135
  57.9721320 115.2933907 101.9823228  58.4709543 116.0917475 100.9468887
  59.5452862 116.2758033 100.9526429  57.6208935 116.5860599 100.0104625
  58.0186454 117.1342670  99.1564354  56.2518433 116.4088682 100.1157691
  55.5465147 116.8547788  99.4145025  55.7343400 115.6238638 101.1654064
  54.6796610 115.3598444 101.0876456  56.5962855 115.0668267 102.1327092
  54.9945585 111.9167105 101.7822168  54.1230710 112.4793501 101.0784412
  55.9202618 111.0842688 101.2426363  56.5386848 110.7213139 101.9539141
  56.2131039 110.7855661  99.8688644  55.4954145 111.2616955  99.2007911
  57.5973123 111.3311392  99.5626441  57.5274495 112.4153232  99.6507551
  58.3303290 110.9555891 100.2766110  58.0584020 110.9931629  98.1828481
  58.4958744 109.9139727  97.8052762  58.0291026 111.9690094  97.3409775
  58.3259617 111.8183687  96.3874147  57.7094258 112.8795689  97.6389522
  56.0149241 109.3375981  99.5456082  56.6317862 108.4485496 100.1205889
  55.1202392 108.9935146  98.6124921  54.6245662 109.7342077  98.1373277
  54.7580272 107.5877150  98.2961822  54.4601414 107.0998576  99.2242762
  53.5667109 107.6577205  97.3877452  53.8514819 108.1356726  96.4504259
  53.2036304 106.6500588  97.1855310  52.7779828 108.2383806  97.8661185
  55.8807761 106.7340339  97.6783525  56.0511146 105.6015386  98.0830971
  56.7475052 107.3518145  96.8574476  56.5021124 108.2526992  96.4723654
  57.9796723 106.6889974  96.3656837  57.7177423 105.7196933  95.9414887
  58.6804496 107.5130712  95.2979569  57.9144400 107.8683878  94.6086973
  59.1422013 108.3647028  95.7975658  59.7796058 106.7151016  94.4959707
  60.2960073 106.0293688  95.1676856  59.2388900 106.1447712  93.7406881
  60.8251614 107.5936642  93.7924743  60.9170983 108.7952644  93.7665768
  61.8218074 106.9830839  93.1376304  62.5241138 107.5344191  92.6655111
  61.8663003 105.9742345  93.1190692  58.9299146 106.2880992  97.5095405
  59.5043166 105.2634541  97.4832037  59.1843777 107.2101754  98.5019663
  58.8029357 108.1365792  98.3739928  60.0136181 106.9604599  99.6734157
  61.0409440 106.7586129  99.3701689  60.0053467 108.2003934 100.5936523
  60.2389045 109.0796942  99.9933357  59.0089114 108.3078955 101.0222080
  61.0457804 108.0626898 101.7341700  60.7629085 108.8613647 102.4198833
  60.9308936 107.0996891 102.2316937  62.5062211 108.2471913 101.3106726
  63.3163861 108.6864029 102.1363408  62.8982873 108.0484223 100.1217353
  59.5355709 105.7013338 100.4260618  60.3761076 105.0284757 101.0425681
  58.2496825 105.3965348 100.3348932  57.6130864 106.0899939  99.9688888
  57.6737829 104.1223928 100.8912120  58.1316376 103.8918208 101.8531397
  56.1705793 104.2803171 101.0924306  55.8690987 105.1636050 101.6554681
  55.5716992 104.2068291 100.1846629  55.7087359 102.8383164 102.1238532
  54.4129239 103.1289082 102.1968325  58.0801081 102.9313697 100.0018118
  58.6789837 101.9592843 100.4848232  58.0072406 103.0323860  98.6514111
  57.6218505 103.8706311  98.2404137  58.4096129 101.9110856  97.7368889
  57.8465947 101.0020720  97.9485583  58.2716023 102.2659921  96.2332136
  58.8858751 103.1513163  96.0689866  58.6916275 101.1609876  95.2486497
  58.0774404 100.2754361  95.4119697  58.5553372 101.5135414  94.2262841
  59.7401182 100.9099669  95.4091334  56.8220328 102.7146389  95.9522238
  56.1725406 101.8524678  96.1036227  56.5689569 103.4908004  96.6744602
  56.6203231 103.2792785  94.4717535  56.8727789 102.5034762  93.7489142
  55.5811511 103.5784160  94.3348683  57.2691975 104.1418080  94.3197510
  59.8905703 101.3858146  97.9696134  60.0813993 100.1367990  97.9025369
  60.8496178 102.3333987  98.2983706  60.6751206 103.3182929  98.1582514
  62.1280781 101.9370806  98.7689503  62.6132421 101.3017850  98.0279277
  63.0151644 103.1657231  99.0182801  62.8244491 103.4413215 100.0554746
  64.0361965 102.7962672  98.9229077  62.8285310 104.4119040  98.1088345
  61.7841261 104.7003234  98.2277187  63.4671499 105.1590380  98.5800656
  63.1516358 104.3623993  96.6299411  63.6992424 103.3624319  96.1649668
  62.8312271 105.3646634  95.8061682  63.0608082 105.3006232  94.8246934
  62.3609453 106.1816287  96.1688031  62.2278126 101.0646569 100.0453593
  63.1444364 100.2440801 100.1119057  61.3190860 101.1243988 101.0200223
  60.6624246 101.8906098 101.0626345  61.4046376 100.2250796 102.1604884
  62.4463297 100.0063553 102.3953002  60.7648441 100.8851936 103.3654866
  59.8289737 101.2690535 102.9594112  60.5494409 100.1560854 104.1465773
  61.5840901 102.0519094 103.9620998  62.7729117 102.2293716 103.6442031
  61.0089563 102.7346246 104.8602050  60.9124111  98.8174668 101.7946410
  61.5937782  97.8265959 102.1167635  59.8794130  98.6338633 100.9336470
  59.3272762  99.4246443 100.6337976  59.5477973  97.3137164 100.3983657
  59.3239650  96.6355932 101.2218626  58.3188181  97.3776416  99.4632167
  58.5970658  97.9633617  98.5870835  58.1813802  96.3356427  99.1743408
  56.9509453  97.8902528  99.9157991  55.8719870  97.0053045 100.2715060
  56.0759012  95.9364473 100.2077642  54.5734401  97.4675853 100.6953001
  53.7741288  96.8192499 101.0542758  54.3735022  98.8482434 100.6228371
  53.3514422  99.2105953 100.7332654  55.4038862  99.7421054 100.4210785
  55.2371692 100.8146255 100.5211096  56.6923246  99.2527089 100.0798166
  57.5193125  99.9482750  99.9370625  60.8066830  96.8434704  99.5725112
  61.0981661  95.7078324  99.6643035  61.4598887  97.7240730  98.7768716
  61.1616397  98.6856368  98.6959892  62.5525330  97.2472584  97.8868170
  62.2769763  96.3344692  97.3586280  62.7822412  98.3606389  96.8552086
  61.9235608  98.7028519  96.2775776  63.0601974  99.1258422  97.5799874
  63.9767764  98.1378452  95.8850753  64.5039845  97.0085609  95.6536133
  64.2716413  99.1126862  95.0675052  65.0403005  99.0099667  94.4204260
  63.7296329  99.9647309  95.0861467  63.7866895  96.8374164  98.7433608
  64.4224985  95.7527917  98.5595260  63.9849042  97.5662446  99.8187646
  63.4640413  98.4230424  99.9400025  65.0016259  97.2306432 100.8061803
  65.9261989  97.0903940 100.2461855  65.2094558  98.3447906 101.8133369
  64.2606344  98.5547257 102.3070631  66.2176025  97.9553481 102.8267834
  67.1668835  97.7456920 102.3338234  66.3507490  98.7695510 103.5391349
  65.8779218  97.0638795 103.3540417  65.7389099  99.4653958 101.1596771
  65.8718337 100.1730604 101.7946121  64.7513257  95.9017309 101.5913095
  65.7392066  95.1379897 101.6601270  63.4722220  95.6947544 101.9341671
  62.7549581  96.3819303 101.7513527  63.0890755  94.4495998 102.6483211
  63.6070657  94.3675537 103.6038596  61.5965081  94.5116498 102.9099381
  61.4311142  95.3652835 103.5672459  61.1194336  94.6969751 101.9475689
  61.0044327  93.2770139 103.5333062  61.2586726  92.4316267 102.8939445
  61.4701946  93.1461666 104.5100595  59.2635089  93.3480571 103.7297526
  58.7470579  92.9722152 102.0218020  59.1232386  91.9899980 101.7357310
  57.6587207  92.9755257 101.9617040  59.1500636  93.7261416 101.3455752
  63.4467480  93.1800215 101.8657291  64.0962099  92.2370956 102.4011690
  63.0601760  93.1154560 100.5226228  62.4750293  93.8375997 100.1273873
  63.4276962  91.9734672  99.6729566  63.1317206  91.0302373 100.1321024
  62.7109784  92.1188847  98.3882705  62.9089550  93.0278707  97.8202487
  63.0122026  91.2513264  97.8011534  61.2172255  92.0303088  98.5523096
  60.6336014  90.9381969  99.2828248  61.2102243  90.1765218  99.8076647
  59.2428983  90.8890734  99.2943835  58.7734362  89.9693914  99.6435125
  58.4328992  91.9890462  98.8696960  57.3519396  91.9969160  99.0095684
  59.0663021  93.0748504  98.2600084  58.4585475  93.9038035  97.8972808
  60.4051567  93.1083519  98.1170013  60.8829105  93.9748533  97.6598073
  64.9726863  91.8904435  99.4771952  65.5291931  90.8410365  99.6787173
  65.6564996  92.9579045  99.1468556  65.0905563  93.7786260  98.9849180
  67.0769266  93.0569289  98.9392832  67.3419684  92.4066504  98.1056226
  67.3970698  94.4893926  98.5573773  67.3490794  95.1390258  99.4313189
  68.8401118  94.5016164  97.9821050  68.8887747  93.8525234  97.1077997
  69.1086253  95.5181711  97.6946747  69.5368541  94.1427410  98.7396400
  66.5977209  95.0078180  97.5509235  66.8608117  95.9126468  97.3674339
  67.9378934  92.6505788 100.0811009  68.9763353  92.0701780  99.8843796
  67.4431466  92.8694064 101.2491973  66.6293475  93.4675083 101.2594160
  68.0092020  92.3999692 102.5795018  68.9955644  92.8330741 102.7456598
  67.0566358  92.8585382 103.7431861  66.0922459  92.8262565 103.2362251
  67.0528597  92.1544713 104.5752772  67.2742097  94.2899447 104.3052217
  68.1066834  95.1162306 103.8116379  66.6880034  94.6125621 105.4170347
  66.8150984  95.5378879 105.8013769  66.1073994  93.9368234 105.8928256
  68.2318512  90.9003667 102.5788455  69.2354868  90.4167046 103.0628203
  67.2570794  90.1379241 102.0021279  66.4543681  90.6467694 101.6603231
  67.2806087  88.7214706 101.8362976  67.5645488  88.2197757 102.7613810
  65.8458809  88.2728305 101.4488697  65.0716596  88.6119375 102.1371190
  65.5600450  88.5260717 100.4279550  65.8398938  86.4693084 101.5377642
  64.5675099  86.3167964 101.1818461  68.3016668  88.4219827 100.6853835
  69.1994464  87.5814766 100.8789484  68.1817488  89.1449741  99.5799383
  67.3443324  89.6980854  99.4663565  69.0786186  88.9747986  98.4064517
  69.1254206  87.9222877  98.1269352  68.5573315  89.7719869  97.2166107
  68.6181199  90.8290536  97.4754817  69.2615949  89.5539867  96.4137477
  67.1399819  89.4423870  96.7534369  66.5249752  88.1380733  96.7829253
  67.1408655  87.2696550  97.0166521  65.1413987  87.9748783  96.5137922
  64.6897647  86.9938908  96.6614130  64.3355313  89.0753594  96.1206748
  63.0510808  88.8436058  95.8467679  62.8059318  87.9212433  95.9504457
  64.9583160  90.3677117  95.9738901  64.3797082  91.2226361  95.6240077
  66.3322980  90.5222793  96.2879400  66.8106570  91.4953696  96.1767285
  70.5442611  89.1703908  98.8005911  71.2953601  88.2753993  98.3467944
  70.9305451  90.0654203  99.6895680  70.2498718  90.7990620  99.8257773
  72.2502343  90.1532984 100.4492363  73.0499464  90.3174840  99.7270156
  72.2154507  91.3492262 101.4748229  71.2977359  91.2343717 102.0516317
  73.3818631  91.4305530 102.4059389  74.2999622  91.5458901 101.8298381
  73.2593508  92.2872243 103.0686649  73.4380906  90.5179362 102.9992923
  72.2037065  92.6712863 100.5795948  73.2250489  92.8311457 100.2340441
  71.5584357  92.4711184  99.7242247  71.7099053  93.9242348 101.3090318
  72.3550052  94.1253194 102.1643160  71.7343921  94.7750522 100.6281432
  70.6883921  93.7652909 101.6544988  72.7789559  88.9542581 101.2453354
  73.9328434  88.4374234 101.0912718  71.8061629  88.2952143 101.9161044
  70.9867051  88.8807099 101.9921510  71.8984649  87.1110932 102.7800070
  72.9318157  86.9721334 103.0977735  70.9920365  87.2723713 104.0652454
  70.6556099  88.3020467 104.1864270  70.1292958  86.6248236 103.9088465
  71.7429580  86.8276816 105.3283856  72.7580017  87.6656858 105.8319075
  72.9471147  88.6384307 105.3779216  73.5334989  87.2369601 106.9336717
  74.2801062  87.9166058 107.3444772  73.2476915  86.0374648 107.5865531
  74.0418629  85.5458365 108.5705101  74.7992160  86.1057794 108.7561978
  72.1799162  85.1784222 107.1342050  71.9576170  84.2146912 107.5923602
  71.4047247  85.6389691 106.0428483  70.5226072  85.0818082 105.7273477
  71.9198572  85.7054082 102.2875814  72.7069091  84.8652113 102.7781468
  71.1038599  85.4040190 101.2771513  70.5789983  86.1974561 100.9379210
  70.8328607  84.0526784 100.6646261  71.5101163  83.2790912 101.0265472
  69.3940181  83.7101103 101.1320607  68.8601273  84.6217513 100.8637873
  68.9044947  82.8533573 100.6689827  69.3381903  83.5344262 102.7141579
  68.9915225  84.4995176 103.4533953  69.8549957  82.4305389 103.2302410
  69.8362393  82.2872242 104.2298454  70.2657151  81.7366248 102.6220521
  70.9572143  83.8505458  99.1571535  70.9241011  84.8785057  98.4380659
  71.0223872  82.6048642  98.6574359  70.9503995  81.8441125  99.3178706
  71.1737235  82.2720226  97.2037785  71.0131474  83.1639179  96.5981075
  72.5926396  81.7390842  96.9286880  72.6490060  80.7282594  97.3326129
  72.7283171  81.7059101  95.8476740  73.7013120  82.6071469  97.5594150
  73.3250839  83.6301139  97.5690030  73.8235962  82.2559295  98.5840100
  75.0732312  82.5670960  96.8313851  75.6106253  81.6905137  97.1931998
  74.8752135  82.4567789  95.7652150  75.9279210  83.8259526  97.0667299
  76.9805815  83.5621632  96.9646436  75.6672867  84.5745929  96.3185945
  75.6829706  84.3836748  98.4386797  75.9248258  83.6902749  99.1320789
  76.2515896  85.2074156  98.5736747  74.7076934  84.6285697  98.5333363
  70.1734895  81.1691815  96.7481949  69.8006947  80.3523133  97.5941999
  69.6396611  81.2068335  95.4841022  69.8438669  82.3386278  94.4624718
  70.8892030  82.3541881  94.1540395  69.5894782  83.2896123  94.9304611
  68.8808473  81.9756552  93.2937511  69.3885513  82.1194953  92.3399976
  67.9968831  82.6121316  93.3338333  68.4826060  80.4103938  93.5266923
  69.1782995  79.7417149  93.0197625  67.4652901  80.1870275  93.2053271
  68.6008919  80.2354925  95.0272002  67.6550694  80.5067631  95.4961675
  68.9532883  78.7955868  95.3901027  70.1023127  78.3811021  95.3577388
  67.9503681  78.0308729  95.8449453  67.0137509  78.3048630  95.5846054
  68.1170289  76.8501077  96.6761292  67.4116731  76.0921139  96.3355154
  69.1350699  76.4831875  96.5455099  67.8780662  77.1201086  98.1344424
  67.5488134  76.1846884  98.8564171  68.0946720  78.3136669  98.6450652
  68.6828838  78.9591003  98.1375990  67.5619040  78.7334792  99.9448981
  67.5785302  77.8587700 100.5950571  68.3295603  79.8972464 100.6532199
  68.2673365  80.7596545  99.9895335  67.7938757  80.1116937 101.5779655
  69.7591813  79.6109466 100.9625563  70.1660441  78.4775426 101.1412712
  70.5763504  80.5593930 101.0468657  66.1079525  79.1520089  99.7567941
  65.7853420  79.9983848  98.9607160  65.1762020  78.4262168 100.4245334
  65.5842828  77.7251554 101.0262662  63.7263563  78.4582325 100.2858270
  63.4615490  78.3557110  99.2334651  63.0654736  77.3202393 101.0700172
  63.2058350  77.4087681 102.1473104  62.0021695  77.3761484 100.8368677
  63.6201814  75.9822179 100.5938133  63.2638075  75.6923684  99.4489876
  64.3991219  75.3397361 101.2718353  63.1630953  79.8501184 100.6678266
  62.1874080  80.3569028 100.1342409  63.9596954  80.6049115 101.4584187
  64.7258171  80.1618682 101.9451111  63.6443492  82.0179074 101.7816592
  62.6003227  82.2264349 102.0153773  64.5479176  82.5207563 102.9478946
  64.3314118  81.9460968 103.8484456  66.0683078  82.3351297 102.5577019
  66.2856996  82.9099066 101.6574392  66.6990424  82.6871200 103.3740214
  66.2701532  81.2801705 102.3721792  64.3383425  83.8798762 103.5217320
  65.1713033  84.1214684 104.1819670  64.2950589  84.6073431 102.7111656
  63.0177896  83.9224697 104.3225359  63.0605094  83.1955442 105.1336180
  62.8756034  84.9205387 104.7369519  62.1842648  83.6814165 103.6628165
  63.6776977  82.9392018 100.4613575  62.7932903  83.8216123 100.3657477
  64.5133767  82.5518204  99.4914249  65.2952466  81.9657780  99.7470285
  64.4817486  83.1451563  98.0803142  64.2310289  84.2011356  98.1810445
  65.8512411  83.0265911  97.3506667  66.0452122  81.9713593  97.1584157
  65.8635081  83.7998827  96.0220130  65.6700539  84.8553461  96.2135161
  66.8379834  83.6901461  95.5461389  65.0911941  83.4032092  95.3630116
  66.9863684  83.6420217  98.2175698  67.0455674  83.1127077  99.1685820
  67.9365375  83.5501070  97.6914233  66.7736891  84.6951925  98.4011444
  63.3063967  82.7029766  97.1744229  62.7359809  83.5882391  96.5367253
  62.8667070  81.4407513  97.2181416  63.5428263  80.7866215  97.5856687
  61.5745541  80.8933755  96.6472208  61.5101863  81.1186376  95.5826960
  61.5260298  79.3390355  96.8337107  62.1712529  79.0861289  95.9923875
  61.9955436  79.0130704  97.7618291  60.2011934  78.6486120  96.6736453
  59.4846710  79.0542237  97.3879111  59.6911473  78.8822393  95.2527944
  60.4069704  78.4764548  94.5379272  58.7294605  78.3852912  95.1251156
  59.5725557  79.9519124  95.0800639  60.3464824  77.1613107  97.1984033
  60.6363042  77.1728689  98.2491027  59.3938489  76.6427108  97.0904920
  61.1094249  76.6433338  96.6172684  60.3925439  81.6362557  97.2114290
  59.5316393  82.0277434  96.4391476  60.3795179  81.9094680  98.5019527
  61.0772585  81.4736082  99.0878568  59.3303901  82.7134863  99.1473421
  58.3328504  82.4526482  98.7938210  59.4222774  82.3852356 100.6090162
  60.4845897  82.4819633 100.8331490  58.8741270  83.1929300 101.0940533
  58.9184884  81.0557914 101.1220716  57.9674707  80.8955644 100.6141410
  59.6444416  80.3214196 100.7730844  58.6780993  80.8542999 102.9305116
  60.3092142  81.0656602 103.7137632  60.6963253  82.0587922 103.4858752
  60.2116402  80.9532606 104.7935531  60.9970168  80.3115696 103.3311719
  59.4480274  84.2030049  98.8104374  58.4306782  84.8272472  98.5735702
  60.6412763  84.8348347  98.7669703  61.4127753  84.2499170  99.0546506
  60.9166181  86.2703709  98.4620216  60.2950136  86.7798249  99.1983392
  62.3649611  86.7518879  98.6254411  62.9981239  86.2573179  97.8888237
  62.4088259  87.8306648  98.4757196  62.7178538  86.5100884  99.6279874
  60.4481180  86.6703196  97.0687224  59.6157552  87.6236737  96.8931290
  60.8901547  85.9741264  96.0557542  61.4263028  85.1555067  96.3057671
  60.7495582  86.3003913  94.6516428  61.1353518  87.3067927  94.4891040
  61.5025380  85.3348142  93.7363050  61.2762923  84.3201384  94.0639405
  61.1315252  85.4796684  92.7216786  63.0514142  85.5577175  93.7618115
  63.4689294  85.8210197  94.7336417  63.5062752  84.6315976  93.4103822
  63.3499013  86.7141109  92.7308039  64.5398836  87.0353441  92.5397085
  62.4175528  87.2207978  92.0547094  59.2999179  86.3413840  94.2994619
  58.7989532  87.2948486  93.6528756  58.4712542  85.3911247  94.7321105
  58.9861855  84.5750039  95.0302579  57.0355785  85.3009416  94.6508814
  56.7758122  85.2528627  93.5933801  56.5273468  84.0079999  95.3461917
  56.7720527  84.0454819  96.4077067  55.4468203  83.9306268  95.2254602
  57.0060708  83.1394367  94.8939524  56.4543302  86.6272840  95.1050580
  55.7498111  87.3183048  94.3747347  56.6896699  87.0294045  96.3672419
  57.3410433  86.4204155  96.8415251  56.0598751  88.0864186  97.1286228
  54.9764015  88.0490569  97.0155381  56.3991605  87.9011010  98.5874202
  56.2556792  86.8822171  98.9471257  57.4445574  88.1848633  98.7087640
  55.5036807  88.8677361  99.4036841  55.5846352  89.8597776  98.9593859
  54.0618214  88.4393402  99.4136632  53.9800069  87.4475095  99.8582719
  53.4756055  89.1484361  99.9981585  53.6835313  88.4111984  98.3917997
  55.9596858  88.8026201 100.8440671  57.0047211  89.1055960 100.9089234
  55.3494063  89.4727152 101.4495691  55.8540788  87.7825477 101.2133887
  56.3773821  89.4924006  96.6141660  55.6431092  90.4761585  96.6245482
  57.5256085  89.5866797  96.0283260  58.1384944  88.7905785  95.9249182
  57.9744336  90.8727553  95.5198679  57.6142204  91.6652264  96.1758673
  59.5167552  90.9486666  95.4544273  59.8942667  90.8766181  96.4744241
  59.8651120  90.0921336  94.8772802  60.0412934  92.2696766  94.7959989
  59.5825106  92.4706768  93.8278986  59.7541555  93.0486408  95.5023032
  61.5247274  92.2548754  94.6490385  62.0845496  91.1917793  94.2309634
  62.1717636  93.3238160  94.8411300  57.3601239  91.0440438  94.1098332
  56.9521413  92.2057752  93.8288769  57.2201066  90.0430259  93.2356923
  57.6148169  89.1279936  93.4000672  56.5895182  90.3106206  91.9209158
  56.8720152  91.2829679  91.5173871  57.1179980  89.2249144  90.9905201
  56.9785721  88.2509335  91.4595838  56.5663937  89.2574216  90.0509584
  58.6245803  89.4527301  90.7124560  58.6562735  90.3861768  90.1505186
  59.0597681  89.6085487  91.6995903  59.4504148  88.3448369  89.9411888
  58.9243766  87.9963550  89.0524014  60.4403475  88.7037214  89.6595245
  59.5900561  87.1955445  90.9315626  60.0361596  87.5603972  91.8567516
  58.6080981  86.7729128  91.1442593  60.4616000  86.1488484  90.3415757
  61.3716903  86.5401518  90.1448094  60.5579134  85.3838896  90.9940034
  60.0481966  85.8103306  89.4844862  55.0795002  90.4158278  91.9327130
  54.4979864  91.1846282  91.1712922  54.5000692  89.9077599  93.0131424
  54.9071450  89.1368409  93.5231155  53.2133879  90.3887108  93.4216842
  52.4876939  90.2758101  92.6162521  52.7337131  89.5597112  94.6403760
  52.7119829  88.5282545  94.2886315  53.4576008  89.6517455  95.4500773
  51.3500411  89.9525252  95.1486810  51.2798980  91.0330321  95.2739232
  50.3871185  89.5177071  94.1540844  50.4563504  88.4371681  94.0286202
  49.3814644  89.7812292  94.4816764  50.5991778  90.0076295  93.2037648
  51.2160394  89.2986419  96.4768049  52.0015579  89.6593305  97.1408560
  50.2419926  89.5378866  96.9035322  51.3061640  88.2185293  96.3613352
  53.1474450  91.9272048  93.7420662  52.1687163  92.5894667  93.3643729
  54.2494729  92.5241365  94.3813222  55.0188750  91.9458719  94.6874754
  54.2791830  93.9597349  94.7132369  53.2776806  94.2778956  95.0028330
  55.2666771  94.2726535  95.8946697  54.5385507  94.5631682  96.6519889
  55.8436984  93.4206231  96.2541009  56.2454374  95.4376773  95.7597931
  57.5331982  95.2308789  95.2242069  57.8926059  94.2620440  94.8773855
  58.3689361  96.3579510  95.1498056  59.3410516  96.2477068  94.6692450
  57.9813797  97.6032886  95.6744570  58.6629842  98.4523962  95.6241420
  56.7595053  97.7478399  96.2430624  56.4380287  98.7314230  96.5855783
  55.9141711  96.6461251  96.3912601  55.0087189  96.7308528  96.9921573
  54.6036474  94.8093706  93.5504459  53.9067115  95.8089413  93.2776075
  55.5909561  94.3803635  92.7012183  56.2778559  93.7079279  93.0112158
  55.8344580  95.0934861  91.4424154  56.0260272  96.1490208  91.6354103
  57.0489016  94.4981691  90.7536270  56.7614028  93.4874834  90.4638716
  57.2729561  95.0817235  89.8606747  58.2952776  94.4383864  91.6526347
  58.0677239  94.1539053  92.6799568  59.1362259  93.3047946  90.9710288
  59.3645769  93.5887824  89.9437482  60.0652315  93.1594003  91.5223091
  58.5645038  92.3767685  90.9723590  59.0842339  95.6773198  91.8031435
  58.4564440  96.4586864  92.2314489  59.9320235  95.4909754  92.4624082
  59.4474941  95.9982178  90.8268415  54.5786920  95.2887329  90.5785974
  54.3502613  96.3793067  90.0418078  53.8012607  94.2497113  90.4473086
  54.0930704  93.3744090  90.8581519  52.6133243  94.2641406  89.6620984
  52.8461339  94.5195993  88.6283480  51.9596888  92.8612038  89.6897726
  52.6662851  92.1363358  89.2855607  51.7257967  92.6028600  90.7225616
  50.6873016  92.8417875  88.8633249  51.0548345  93.6265582  88.2021476
  50.5332997  91.9273411  88.2904609  49.3026027  93.2981331  89.4664332
  48.8849259  92.8622576  90.5643789  48.3851196  93.8938160  88.7813539
  47.5191186  94.1605950  89.2274174  48.5375229  94.0903479  87.8024515
  51.6426739  95.3868337  90.1282291  51.1209468  96.2327602  89.4109570
  51.2859614  95.3759378  91.4048917  51.5762429  94.5991456  91.9814589
  50.4192474  96.4327371  92.0202478  49.4726888  96.4966173  91.4835492
  50.1233132  96.0844657  93.5153247  51.0649343  95.9747531  94.0532949
  49.5404439  96.8886269  93.9644219  49.3225140  94.7566601  93.5981729
  49.7822347  94.0776739  92.8800256  49.4717072  94.3727285  94.6073508
  47.7884426  94.8670390  93.3035330  47.2306360  95.3013296  94.1331970
  47.5740018  95.4237467  92.3912879  47.3752808  93.4164021  93.1201431
  48.0149985  92.9892826  92.3478538  47.5549599  92.9032443  94.0648566
  45.9442424  93.2504877  92.7284091  45.7776387  93.7255560  91.8528218
  45.7357324  92.2678502  92.6233044  45.3512850  93.6458198  93.4440999
  50.8966913  97.8812734  92.0107169  50.0997871  98.8251311  91.9077975
  52.2136055  98.0869498  91.9697412  52.7899110  97.3150412  92.2732680
  52.8698205  99.4017316  91.7146729  52.4042896 100.2006559  92.2918212
  54.3862745  99.3582837  92.0239713  54.7859730  98.4566616  91.5598387
  55.1574626 100.5811732  91.5122574  54.7586094 101.4831998  91.9763316
  56.2124472 100.4785070  91.7663593  55.0502162 100.6521944  90.4298742
  54.7006538  99.1849509  93.5318916  54.2084573  98.2615566  93.8371558
  55.7812680  99.0600863  93.6010374  54.2474585 100.3568758  94.4764503
  53.1668227 100.4820429  94.4081904  54.5212218 100.1217957  95.5049882
  54.7396321 101.2805736  94.1720702  52.5342038  99.9742406  90.3282239
  52.4049572 101.1891926  90.2098678  52.4539804  99.1155278  89.3000963
  52.6110900  98.1217500  89.3885359  51.9949303  99.6387116  87.9972725
  52.6767562 100.3893400  87.5975606  51.9699545  98.4565296  87.0531530
  52.8527385  97.8471620  87.2467062  51.0732227  97.8635116  87.2328806
  51.9853408  98.8877310  85.5825607  52.9609729  99.4998400  85.1307371
  50.9209026  98.5941916  84.8481985  50.8934300  98.8617684  83.8746751
  50.1425571  98.1043935  85.2657831  50.5128555 100.1652851  88.0355943
  50.1097143 101.0480907  87.2742392  49.7227525  99.8028265  89.0689354
  50.1084368  99.0961469  89.6788132  48.3206721 100.2621890  89.3136756
  47.9817032 100.8335784  88.4495498  47.3487560  99.0885268  89.5398130
  47.4554689  98.7744368  90.5781092  46.3396258  99.4670771  89.3771604
  47.6098412  97.8456242  88.5803925  48.5898838  97.4527045  88.8510057
  46.8556747  97.0725875  88.7278590  47.6206041  98.2873743  87.0652879
  46.5897970  98.8953525  86.6872387  48.5909140  97.9712444  86.3309116
  48.2248992 101.2734406  90.4744804  47.2466506 101.4604394  91.1278127
  49.3485530 101.8632230  90.8941704  50.2074448 101.5145054  90.4931713
  49.4326838 102.9059038  91.9027654  48.9861038 102.5808981  92.8424658
  50.8628370 103.1941758  92.1345843  51.4718305 102.3190482  92.3612510
  51.1863024 103.6258429  91.1874129  51.0330581 104.2824879  93.3047597
  50.2261496 105.0150246  93.2850229  50.9756353 103.4996189  94.6096389
  51.7825789 102.7671480  94.6303111  51.0859428 104.1847764  95.4501698
  50.0172226 102.9857631  94.6837850  52.4847349 104.8603681  93.2165882
  52.6318614 105.3275444  92.2428328  52.6288377 105.6033912  94.0009685
  53.2060446 104.0532379  93.3444634  48.6708266 104.1102586  91.4432678
  48.9616360 104.5168094  90.2972729  47.7863638 104.7872492  92.2573682
  47.1472316 104.2999940  93.4792316  47.8495121 104.4308108  94.3025112
  46.9346284 103.2389116  93.3488353  45.8676721 105.1377004  93.6549027
  45.6217420 105.2324414  94.7125613  45.0356765 104.6687916  93.1295369
  46.2164422 106.5271943  93.0221761  46.6926620 107.3182404  93.6014513
  45.2895102 106.9027051  92.5887153  47.1606896 106.0551039  91.9096871
  46.4564074 105.8227612  91.1108745  48.0708216 107.1783019  91.4672349
  49.2921346 107.1603973  91.7312197  47.5498288 108.1505529  90.6949032
  46.6625408 107.8882553  90.2899102  48.1575545 109.3690651  90.2631573
  48.7176504 109.7932538  91.0964974  49.1521061 109.0856551  89.0831760
  48.6719823 108.4366108  88.3508352  49.5519380 110.4396714  88.3988835
  50.0325721 111.0891055  89.1305431  50.2428621 110.2429479  87.5791135
  48.6585566 110.9290023  88.0109073  50.3309880 108.4992144  89.4931622
  50.8962834 108.3507135  88.7315922  47.2146776 110.5364728  89.9576882
  46.3282785 110.3687386  89.1358209  47.3226512 111.5795938  90.6303407
  68.1639327  34.0064609  76.9442659  67.6887672  33.8224328  76.0722267
  67.4731658  34.1269655  77.6711909  68.9051506  33.3300648  77.0590872
  68.8086041  35.2481443  76.8358823  68.4188566  35.9223260  77.5985586
  70.3267143  35.1176954  77.0257441  70.4993489  34.5509489  77.9406730
  70.7211407  34.5621257  76.1749385  71.0440875  36.4894374  77.1245348
  72.0757241  36.2887534  77.4135896  71.0257836  36.9304301  76.1278942
  70.3477475  37.5937764  78.2443527  71.6159284  38.9100090  78.5456912
  71.8540780  39.4078306  77.6057139  71.2219500  39.6397347  79.2530681
  72.5190326  38.4580477  78.9558558  68.6079002  35.8543396  75.4925583
  68.5737898  35.0659312  74.5350273  68.5619014  37.1907470  75.4094354
  68.5268950  37.7270494  76.2645691  68.5836558  37.9241034  74.1193973
  67.8841295  37.4967810  73.4009562  68.1469114  39.3823157  74.4305566
  68.9276733  39.8537668  75.0274184  68.0394715  39.9165427  73.4865448
  66.8971555  39.4256278  75.1527140  66.6596977  40.3393577  75.3268151
  69.9669920  38.0128129  73.3936918  71.0007576  38.2324961  74.0088675
  69.9246592  37.8306036  72.0835759  68.9756895  37.8963469  71.7441151
  70.9883698  37.4702622  71.1239094  71.9148649  37.9323414  71.4647741
  71.2111277  36.0243177  70.9760024  70.3497380  35.4895986  70.5757743
  71.9750265  36.1116095  70.2033843  71.7913427  35.2380670  72.1950472
  72.8550923  35.7666203  72.9756050  73.2547881  36.7540229  72.7445665
  73.3896635  35.0255428  74.0370205  74.2740752  35.4286715  74.5303814
  72.7666203  33.8792225  74.5442363  73.2819079  33.1478370  75.5863850
  74.1063223  33.5054526  75.9241003  71.6495588  33.4287201  73.8578055
  71.1413413  32.5254298  74.1952696  71.1793538  34.1147529  72.7541044
  70.2673701  33.7859446  72.2558363  70.5674640  38.1802210  69.8173311
  69.4365028  38.0530066  69.3713847  71.4882202  38.9011273  69.1967539
  72.3590570  38.9515668  69.7058692  71.3121513  39.7772707  68.0255552
  70.5075844  39.3998137  67.3944470  70.9495792  41.2097556  68.4850707
  71.8411703  41.6961738  68.8807496  70.5943884  41.7577229  67.6123328
  69.8475508  41.2399246  69.5697648  68.6269119  41.0366212  69.2998138
  70.1669223  41.4618381  70.8096301  69.4469012  41.4814464  71.5176449
  71.1336787  41.6136709  71.0594894  72.4568367  39.6571181  67.0283328
  73.5728404  39.0335678  67.2783466  72.3037433  40.3137419  65.8903189
  71.3960034  40.7273881  65.7321908  73.2705499  40.3699124  64.8317511
  74.2936767  40.2705107  65.1942840  72.9590536  39.2095862  63.9749833
  73.2632050  38.2835737  64.4629300  71.8712142  39.2502295  63.9197239
  73.5383956  39.2562804  62.5734864  72.7137055  39.7655948  61.5650792
  71.7844960  40.2799707  61.8102048  73.0989095  39.6062433  60.2121993
  72.4582891  39.9335127  59.3932963  74.4350272  39.2669646  59.9636106
  74.8326487  39.1164749  58.6985730  74.1276906  39.2636371  58.0637683
  75.2800085  38.8390260  60.9773331  76.2692054  38.4390562  60.7545909
  74.8466981  38.9268477  62.2942649  75.5426008  38.7348405  63.1109367
  73.1981814  41.7643138  64.2012898  72.1284870  42.4256588  64.2846121
  74.3301254  42.2071148  63.6769995  75.1459931  41.6211332  63.7822837
  74.5205014  43.5899366  63.2243112  73.7420898  43.9766941  62.5665930
  74.6943246  44.5789028  64.4317880  73.8069969  44.5217359  65.0622488
  75.8773631  44.2360697  65.2227364  76.7652076  44.2934695  64.5930233
  75.9753989  44.9357553  66.0527542  75.7736714  43.2233320  65.6122387
  74.6722731  46.0602078  64.0348368  73.7190195  46.2959649  63.5617321
  74.7981810  46.6772221  64.9245222  75.4839245  46.2616783  63.3357427
  75.5381299  43.8303445  62.0707921  76.6111102  43.2805800  62.1416254
  75.0381688  44.4600653  60.9599818  74.1303157  44.9017158  60.9890866
  75.7188278  44.3334711  59.6436436  76.8001262  44.4593525  59.5884472
  75.3350980  43.0259355  58.9101021  75.6741864  42.2095841  59.5478235
  73.8744401  42.8478704  58.6029911  73.5347130  43.6636543  57.9648820
  73.7237691  41.8984490  58.0891840  73.3041619  42.8522054  59.5318967
  76.1984185  42.6967211  57.7602596  77.2276723  42.5802349  58.0996260
  75.8589874  41.7663167  57.3050302  76.1474536  43.4999968  57.0252415
  75.4993542  45.6132871  58.8589866  74.4495754  46.2078665  59.0521804
  76.4806880  46.1694997  58.0794115  77.4068538  45.8727427  58.3519030
  76.3579042  47.1183011  57.0145448  75.9757559  47.9817408  57.5590940
  77.7610859  47.4656217  56.4577195  78.1912763  46.5508428  56.0500235
  77.7252906  48.5133340  55.3971708  77.2956205  49.4286200  55.8042764
  78.7384661  48.7122466  55.0478741  77.1155810  48.1660439  54.5630578
  78.4490835  48.1825756  57.4699119  79.3265304  48.4149149  57.1573327
  75.4037442  46.5315457  55.8777574  75.7955544  45.5451799  55.2787254
  74.3375458  47.2051554  55.5682498  74.0824038  47.9765694  56.1681851
  73.4950742  46.9305894  54.3799220  73.5514083  45.8878147  54.0675973
  71.9988710  47.2825990  54.6816290  71.9250803  48.3263678  54.9869182
  71.3997507  47.1235984  53.7850388  71.6291384  46.6431330  55.4831777
  73.9647090  47.8046178  53.2273559  73.8152535  47.4328133  52.0933548
  74.6514316  48.9040074  53.4905448  74.8587703  49.0057777  54.4737807
  75.0964218  49.9251696  52.5949637  75.4538407  49.5045058  51.6550738
  73.8662136  50.8384887  52.2968213  73.2551163  50.3119602  51.5637272
  73.3119579  50.9326712  53.2306470  74.1953979  52.1666717  51.7910213
  73.1969007  52.5105205  51.5210730  74.6166368  52.8316821  52.5449583
  75.0876338  52.2156684  50.5384645  74.8573521  51.4280580  49.6510350
  76.1857823  52.9512582  50.4814778  76.7439808  52.9554861  49.6397546
  76.4608703  53.5052056  51.2799578  76.2719893  50.7936456  53.1745158
  76.1645258  51.4426485  54.2061610  77.4320576  50.6307540  52.5057424
  77.4457866  49.9135639  51.7947225  78.7132406  51.2354295  52.9133187
  78.9884249  50.9486806  53.9282807  79.7502189  50.7172883  51.9736919
  80.7166259  50.9626749  52.4140805  79.6286573  49.6344467  51.9458192
  79.6829995  51.2702805  50.5613002  78.8763770  50.8113097  49.9896300
  79.5575094  52.3530335  50.5608419  81.0045155  50.9187166  49.9343653
  81.7700831  51.4941903  50.4547837  81.1694507  49.8553083  50.1077392
  81.0833785  51.2170770  48.3889001  82.1113734  51.0277414  48.0799035
  80.4192992  50.5088644  47.8933874  80.6877627  52.6472807  47.9991843
  81.3032650  53.3036663  48.4578940  80.7645110  52.7568551  46.9980833
  79.7350897  52.8227839  48.2850373  78.6785457  52.7546104  53.1579870
  77.7089528  53.4698909  52.6740320  79.5977890  53.3300639  53.9096951
  80.6548449  52.6221340  54.5454993  81.3984854  52.3924326  53.7823897
  80.2372130  51.6941632  54.9360793  81.2164004  53.5398630  55.6702784
  82.2792228  53.3692220  55.8417108  80.6729494  53.4132653  56.6066199
  80.9569355  54.9539513  55.0622755  81.8093371  55.2760513  54.4641434
  80.7673147  55.6859006  55.8473830  79.7066697  54.8099006  54.1615787
  78.7947650  55.1122648  54.6764612  79.8878919  55.6751647  52.8736339
  80.6986201  55.1734310  52.0297133  79.2963747  56.8651781  52.7638185
  78.7663209  57.2650246  53.5249132  79.4250496  57.6332638  51.5342360
  80.1074442  57.1416178  50.8408955  78.0766041  57.8055354  50.8495623
  78.2066941  58.4711527  49.9962567  77.4909441  56.4184706  50.3529137
  77.3601350  55.7524393  51.2057859  76.5278597  56.5823277  49.8694694
  78.1816206  55.9656687  49.6415510  77.0520949  58.4010969  51.6149461
  76.2518370  58.4597100  51.0879241  79.9616142  59.0549930  51.7474273
  80.2930581  59.6998138  50.7521448  80.0180251  59.5775876  52.9689729
  79.5536874  59.0208384  53.6721942  80.4867251  60.8848755  53.3354599
  80.1847282  61.5234281  52.5053108  79.8478883  61.3820096  54.5694693
  80.1480183  60.7580946  55.4113434  80.1589645  62.4107460  54.7512200
  78.7641829  61.3448804  54.4585493  82.0420219  60.9304687  53.3460027
  82.7361742  60.1437067  53.9416889  82.6184435  61.9754969  52.6997030
  82.0935583  62.6239747  52.1304303  84.0819117  62.1097857  52.7399044
  84.5995025  61.1559898  52.8422395  84.5869903  62.8028754  51.4922966
  83.9884218  63.7021367  51.3468865  86.0663694  63.1837224  51.5782674
  86.6656539  62.2848639  51.7232242  86.3694222  63.6767864  50.6546076
  86.2194479  63.8612202  52.4183063  84.3680888  62.0090413  50.2036692
  83.3019222  61.8320534  50.0620146  84.7575736  62.5747007  49.3572469
  84.8885225  61.0537474  50.2719570  84.4924254  62.8075692  53.9811496
  84.3997697  64.0721227  54.0505854  84.9867234  62.0968763  54.9610308
  84.9566118  61.0888602  54.9053873  85.4700585  62.6965485  56.1697766
  84.8826899  63.5788544  56.4240080  85.3385226  61.6552794  57.3330518
  85.8957146  60.8104646  56.9281762  85.8071413  61.9887250  58.2589624
  83.9611616  61.2120081  57.6338464  83.4262054  60.1698630  57.2465164
  83.2067675  62.0596376  58.2437937  82.2556947  61.8100088  58.4745440
  83.5699738  62.9697881  58.4883506  86.8866021  63.2509823  56.0631407
  87.2076373  64.1608943  56.8599108  87.6353757  62.7786118  55.1196338
  87.3379926  62.0042674  54.5433931  88.9008536  63.3455810  54.8747589
  88.7687828  64.4274033  54.8569537  89.5416656  63.0720522  55.7129960
  89.5599599  62.9109503  53.5915411  89.2690349  61.9026258  53.0029305
  90.3919050  63.7991788  53.0447329  90.5518105  64.6803825  53.5116479
  91.1359050  63.5241292  51.7649720  91.2809333  62.4484723  51.6648309
  90.3773779  64.0349638  50.5284965  90.8986700  63.8391521  49.5914738
  89.3571420  63.6570928  50.4619221  90.2411734  65.7993021  50.6563073
  89.5773888  65.9704233  49.5165680  92.5282477  64.2163178  51.6737929
  92.8395093  65.2869482  52.2362810  93.3667573  63.6991897  50.8238552
  93.1202889  62.9144770  50.2376994  94.7508921  64.2245785  50.7494227
  94.8144248  65.3081431  50.6496693  95.5984632  63.7811439  52.0168402
  94.9776476  63.9885714  52.8884256  96.0354562  62.3209021  52.0405866
  96.6567370  62.1128210  51.1694877  96.6067126  62.1267784  52.9483766
  95.1558248  61.6775028  52.0208976  96.8340806  64.5857081  52.3381535
  96.5547707  65.6227121  52.5244618  97.3154172  64.1745729  53.2254993
  97.5258048  64.5418020  51.4969100  95.3972808  63.7486813  49.4673617
  95.1179188  62.6323130  49.0468576  96.3388938  64.5329265  48.8736020
  96.5111461  65.4651880  49.2219079  97.1453271  64.0521119  47.7743483
  97.2331452  63.0044173  47.4867318  96.7465707  64.8847686  46.5127215
  97.5007542  64.6109400  45.7749374  95.3641527  64.7465818  45.8984359
  94.6094057  65.0207059  46.6355333  95.2827732  65.4051174  45.0336774
  95.2069101  63.7146232  45.5846895  97.0936830  66.2792506  46.4434178
  96.7815025  66.6458120  45.6128900  98.6821889  64.2374236  47.9467580
  99.2564803  65.1189782  48.6204382  99.2960234  63.3731326  47.1923137
  98.7964569  62.7182846  46.6077568 100.7661310  63.3374392  47.1805345
 101.1197938  64.2887315  46.7829608 101.1054284  63.2259803  48.2103663
 101.3377616  62.2174568  46.3524234 100.6113678  61.6594319  45.5547334
 102.6279425  61.9192904  46.4819109 103.0840622  62.4039119  47.2416452
 103.4216227  60.9736564  45.6811974 102.8781376  60.6913810  44.7795081
 104.7918992  61.6621528  45.2546075 105.0433156  62.2787789  46.1175451
 105.6447812  61.0344526  44.9963735 104.5839417  62.6050755  44.0965482
 105.5642134  63.5170451  43.6863913 105.0544554  64.1784328  42.6716967
 105.5929154  65.0316968  42.2592646 103.8873694  63.6267480  42.3244513
 103.3072670  63.8970281  41.5430873 103.6050448  62.6508679  43.1823037
 102.6987195  62.0588104  43.0552461 103.7140005  59.7332301  46.6064546
 104.6874310  59.6621677  47.3224555 102.7610503  58.8104160  46.6958532
 102.0101463  58.8248384  46.0205499 102.7460104  57.7259027  47.7735617
 103.4292740  57.9299828  48.5979411 101.2553908  57.7757472  48.3248566
 101.0977689  58.6973003  48.8852086 100.5517340  57.7317247  47.4935749
 100.8803273  56.5798619  49.3017770 101.5224622  56.4747188  50.5721674
 102.2514614  57.2129151  50.9064222 101.1855577  55.3563898  51.4218129
 101.6481115  55.2747114  52.4054152 100.2946160  54.4040404  51.0027180
 100.0530995  53.5793529  51.6732851  99.6815353  54.4780826  49.7047308
  99.0541100  53.6644393  49.3408320  99.8959020  55.6068059  48.9065581
  99.3192468  55.7450591  47.9919791 103.0790276  56.3590905  47.2191378
 103.3795241  55.4006607  47.9431959 102.9443599  56.2341069  45.8478378
 102.7508024  57.0053762  45.2251192 103.1266008  54.8699871  45.2541549
 103.2261851  54.1979590  46.1065401 101.8813595  54.4963143  44.4884893
 102.0225580  53.4956377  44.0800663 100.6306686  54.5150241  45.3713168
 100.4885443  55.5155631  45.7797554  99.7605547  54.2394060  44.7754682
 100.7512084  53.8034434  46.1881543 101.5745600  55.4600775  43.5249113
 100.7802726  55.1992411  43.0530297 104.2816419  54.8023260  44.2801360
 104.8925598  53.7271746  44.1554086 104.6750522  55.9594431  43.7021659
 103.8779621  56.5771251  43.6454588 105.9604912  56.4167449  43.1247063
 106.5948490  56.8644954  43.8896958 106.6988715  55.1669447  42.5296014
 106.9698381  54.4892280  43.3391546 106.0351281  54.6538336  41.8337122
 107.8516979  55.5729913  41.8582226 108.2988579  54.8043346  41.4965395
 105.8323424  57.5027092  42.0702119 104.7396030  57.7166047  41.5477597
 106.8689162  58.3992107  42.0661114 107.7790826  58.0732712  42.3584467
 106.7213213  59.7936229  41.7111895 106.0980561  60.2915919  42.4539321
 108.1379032  60.4036373  41.7671629 108.7713937  59.9214056  41.0226884
 108.0824151  61.4721422  41.5590315 108.5617882  60.2488003  42.7593555
 106.1020670  60.0362267  40.3720821 105.4706751  61.0489471  40.1997031
 106.1397662  59.1375225  39.3598590 106.6752430  58.2912184  39.4907534
 105.4894386  59.3583497  38.0554824 105.8892155  60.2350733  37.5459400
 105.7890349  58.1395103  37.2229432 105.3569529  58.3705356  36.2492740
 106.8762141  58.1321996  37.1449168 105.3061458  56.7762762  37.6792937
 104.4354289  57.0319226  38.2831132 104.9841058  56.2380168  36.7878531
 106.2525713  55.8894812  38.4974224 107.0054738  56.3361550  39.3738283
 106.2461298  54.6708304  38.1556437 103.9610554  59.6188462  38.0834325
 103.4039786  60.3268092  37.2288525 103.2973608  59.1063966  39.0856669
 103.8179824  58.4987960  39.7020061 101.8260123  59.3490751  39.3859763
 101.3503688  59.7420120  38.4873869 101.0689077  58.0574128  39.8268880
 101.4178947  57.7561029  40.8145720 100.0302115  58.3813401  39.8923202
 101.1704708  56.9044774  38.8924395 101.2044081  55.7628233  39.2879735
 101.1515076  57.1125624  37.6871719 101.6360930  60.3628774  40.5060998
 102.4257190  60.2880058  41.4496691 100.6520659  61.2137222  40.4878303
 100.2446183  61.3808288  39.5788962 100.1632445  62.0500445  41.6630114
 100.8892190  61.9890350  42.4737753  99.9860243  63.5223442  41.2738423
 100.9571797  63.9710585  41.0650072  99.4263294  63.4196811  40.3441640
  99.1871205  64.4418837  42.2671065  98.1436787  64.1267257  42.2694313
  99.7512378  64.3478839  43.6867419 100.7945881  64.6633467  43.6853000
  99.1773931  64.9952087  44.3498963  99.6840606  63.3180548  44.0375118
  99.4670959  65.8756162  41.8121669  99.1232697  66.0054257  40.7859932
  98.9395385  66.5733002  42.4625679 100.5382209  66.0709827  41.8633738
  98.9047333  61.3534944  42.1700355  97.8435521  61.3383553  41.5109040
  99.0079649  60.6507978  43.3466122  99.9145882  60.6935793  43.7896734
  97.9090238  59.8848108  44.0394450  97.3757042  59.3042121  43.2867336
  98.4152699  58.9163780  45.1480757  98.7900755  59.6440388  45.8678880
  97.6061157  58.3426564  45.5999749  99.5372265  57.9693877  44.7899126
 100.7011450  58.2438537  44.9753906  99.1955303  56.9241663  44.1197857
  99.8972844  56.2504546  43.8482097  98.2274013  56.7830597  43.8689555
  96.8954515  60.8308136  44.8053260  97.2856700  61.8761017  45.3586173
  95.6076432  60.5346812  44.7662171  95.3552735  59.7917177  44.1302815
  94.5439212  61.1314318  45.6062732  94.9353532  62.0157561  46.1091160
  93.2946258  61.5547810  44.7418322  93.5075198  62.4333344  44.1328007
  93.2489655  60.6728250  44.1029513  91.9259354  61.7435212  45.4654936
  91.6609681  60.8183790  45.9773580  92.0206402  62.8628933  46.4691260
  92.2851377  63.7885265  45.9579087  91.0596456  62.9860743  46.9685422
  92.7857627  62.6251861  47.2081682  90.8638181  62.3174263  44.4699829
  90.7347255  61.6260690  43.6372407  89.9124893  62.4448916  44.9865363
  91.2033287  63.2816625  44.0917236  94.1486225  59.9283447  46.5291319
  93.6250398  58.9046323  46.0633935  94.1369105  60.1286644  47.8461876
  94.5769022  61.0102655  48.0681926  93.6696063  59.2655468  48.9744530
  93.3354044  58.3084537  48.5739770  94.7867459  59.0048643  50.0083059
  94.9535579  59.9790715  50.4678636  94.4146543  58.3082541  50.7595595
  96.0844639  58.4876226  49.4430919  95.8609977  57.9205846  48.5394151
  97.0328068  59.5965210  49.1137655  97.2571227  60.1637649  50.0171013
  97.9547783  59.1787471  48.7093715  96.5785585  60.2562550  48.3745023
  96.7409300  57.5044400  50.4209923  96.0704307  56.6630796  50.5960430
  97.6769815  57.1403969  49.9974579  96.9424274  58.0103473  51.3652146
  92.4127345  59.9344198  49.6371380  92.3786010  61.1399969  49.9473453
  91.3770365  59.1076926  49.9018623  91.5367369  58.1428691  49.6494526
  90.0653867  59.4719483  50.5013276  90.1305842  60.4840691  50.9006521
  88.9446887  59.4161088  49.3896663  89.1762522  58.5601944  48.7557191
  87.5007622  59.2860445  49.9224791  87.2682941  60.1418941  50.5561831
  86.8048960  59.2557540  49.0840559  87.4086770  58.3685704  50.5037371
  89.0803078  60.7918427  48.6206926  88.2903362  61.4946641  48.8854335
  90.0513514  61.2612180  48.7783652  88.9384654  60.3962425  47.1502858
  87.9674099  59.9271877  46.9917334  89.0183199  61.2854317  46.5249339
  89.7284244  59.6937394  46.8846657  89.6408687  58.5190355  51.6638299
  89.5901116  57.2995632  51.5705939  89.2617829  59.1670585  52.7820683
  89.4671691  60.1532103  52.8556932  88.6232541  58.5039326  53.9210336
  88.7357362  57.4244914  53.8197729  89.3702027  58.9545461  55.1603969
  89.2592890  60.0322324  55.2803573  88.9623255  58.4482234  56.0352533
  90.4269576  58.7077227  55.0581891  87.1172848  58.7918881  54.0476986
  86.6865338  59.9151341  54.0220039  86.3061733  57.6899145  54.2430528
  86.7150746  56.7725214  54.1368025  84.8784927  57.7818301  54.5372236
  84.5983363  58.8170409  54.7320315  84.0494852  57.2589147  53.2959215
  84.0845726  56.1694854  53.2993725  83.0174231  57.5890535  53.4140586
  84.6153668  57.7938141  51.9405276  84.6415755  58.8834994  51.9406319
  85.6192847  57.4067665  51.7660429  83.7041907  57.3185119  50.8581510
  83.5203436  56.2554192  51.0134996  82.7650024  57.8652467  50.9424465
  84.3113444  57.5403293  49.4293524  84.2341197  58.6021110  49.1953512
  85.3619525  57.2521476  49.4650342  83.6321045  56.7678149  48.4029712
  82.6586648  57.0350063  48.3694505  84.0616576  56.9476430  47.5067313
  83.7039124  55.7838908  48.6193877  84.5111867  57.0094848  55.7801134
  84.3403171  55.7502464  55.6613304  84.3685975  57.5338480  56.9948902
  84.3331995  58.5432267  56.9939354  84.3936801  56.8366302  58.2935476
  84.7112906  57.5234754  59.0780643  82.9688999  56.3000902  58.6462688
  82.2194146  57.0761143  58.4908420  82.7111295  55.4227197  58.0530779
  82.9673000  55.9014812  60.1499770  83.4832654  56.6252562  60.9370930
  82.4287710  54.7944879  60.5583913  82.4428879  54.5621092  61.5411938
  81.9978319  54.1700553  59.8917008  85.4639071  55.7272554  58.4040010
  86.5278389  55.9552008  58.8857010  85.1691572  54.4709655  57.9465219
  84.2746696  54.3733535  57.4877592  86.0030289  53.2938269  58.0835506
  86.9801545  53.3713334  58.5603288  85.2337759  52.1946329  58.7457593
  85.7578575  51.2669047  58.5160659  85.0774330  52.3296587  60.2609378
  84.5529911  53.2569923  60.4913998  84.5057460  51.4845718  60.6444756
  86.0619646  52.3437964  60.7284828  83.9958722  51.9293180  58.0076390
  83.5103567  51.2232115  58.4404077  86.5475891  52.7429634  56.7551427
  87.1361738  51.6888812  56.7466192  86.4464129  53.5317703  55.6447914
  86.0262144  54.4389409  55.7882283  86.8757602  53.1911432  54.3435981
  87.1962240  52.1493387  54.3368616  85.7595035  53.3684088  53.3018818
  85.5335352  54.4319465  53.2249072  86.1300532  53.0059000  52.3430386
  84.4770564  52.5961321  53.6832295  84.1371630  53.0152604  54.6302801
  83.7449325  52.8151410  52.9059704  84.6321682  51.0940703  53.8222717
  85.3428904  50.9005155  54.6257078  83.6609583  50.6771230  54.0887406
  85.1075491  50.4346525  52.6075791  85.0800737  51.0462365  51.8042675
  85.6155181  49.2127344  52.4588083  85.5611520  48.4614590  53.4737711
  85.1489624  48.8035933  54.3300093  85.9301623  47.5226184  53.4236772
  86.0632997  48.7840065  51.3217138  86.0327526  49.3857457  50.5111110
  86.4409384  47.8499432  51.2509081  88.0536632  54.0716555  53.8921818
  88.0024587  55.2845641  54.2053605  88.9806473  53.4511047  53.2292254
  89.0097477  52.4433981  53.1677447  90.1603894  54.2359636  52.7009649
  89.9544958  55.3062585  52.7142206  91.3532117  53.9595274  53.6020437
  91.2093016  54.5625436  54.4985706  91.2343747  52.9050420  53.8511185
  92.7389472  54.1935828  53.0565154  92.7345334  53.8779589  52.0132211
  93.2074895  55.6777943  53.1481134  93.2126053  55.9940131  54.1912234
  94.2128254  55.7680263  52.7367028  92.5250696  56.3104615  52.5805433
  93.6775890  53.4087875  53.8730704  93.4186473  52.3518512  53.8103472
  94.6924285  53.5562478  53.5036686  93.6182272  53.7358915  54.9111350
  90.2894314  53.8999877  51.1410901  90.3842817  52.7245199  50.7873870
  90.1774941  54.8573425  50.2611402  90.2094126  55.7957399  50.6332837
  90.1631857  54.6848355  48.7848632  90.2001424  53.6222430  48.5447996
  88.8952815  55.2834155  48.1646350  88.8307420  56.3271746  48.4720449
  88.9934983  55.2299354  47.0803872  87.6073906  54.5332879  48.6054452
  87.6424645  53.4687994  48.3736373  87.6859895  54.6725934  49.6836452
  86.2746108  55.1230436  48.1077864  86.2652003  56.0755047  47.2874461
  85.2621342  54.4768639  48.4424279  91.2846557  55.5479870  48.1405742
  91.6948285  56.5533024  48.7519860  91.7836103  55.0594187  47.0072802
  91.3036870  54.2912287  46.5604501  93.0117496  55.5637738  46.3900623
  93.2231466  56.5911216  46.6866549  94.2586034  54.6986404  46.6191753
  94.0205434  53.6680266  46.3559969  95.4239418  55.1803913  45.7733221
  95.6629011  56.2108543  46.0362765  96.2927112  54.5482650  45.9570525
  95.1539500  55.1283766  44.7185719  94.6066798  54.5978038  48.1488860
  94.9811668  55.5798443  48.4377747  93.6636274  54.4043430  48.6600852
  95.6329479  53.5219837  48.5425684  96.5764665  53.7150583  48.0320836
  95.7917893  53.5478283  49.6206225  95.2589277  52.5395567  48.2543917
  92.7552408  55.6763888  44.8461510  92.3192887  54.6973007  44.1780774
  93.0703835  56.8084610  44.2838321  93.5901198  57.4787781  44.8321463
  92.7151217  57.1670457  42.8768541  92.5685684  56.2505058  42.3053859
  91.4361526  58.0038626  42.7956052  91.8067323  58.7833705  43.4612908
  91.3280241  58.4076174  41.7889323  90.1370154  57.5322626  43.2734409
  89.1522269  57.1281465  42.3409835  89.3637038  57.1486707  41.2718924
  87.8910749  56.6970321  42.8022047  87.1406050  56.3663451  42.0841916
  87.5911860  56.7092974  44.1812570  86.4050826  56.2424461  44.6664277
  85.8206450  55.9162421  43.9782246  88.5444584  57.2005221  45.1101332
  88.3182442  57.1884381  46.1763328  89.7708311  57.6990004  44.6615016
  90.4395737  58.2071946  45.3562118  93.8127756  58.0069617  42.1584509
  94.6724835  58.5184065  42.8768210  93.9028072  57.9738304  40.8347570
  93.2273704  57.4088089  40.3401510  94.8246399  58.8573274  40.0285266
  95.2674678  59.7219546  40.5229176  95.9450591  58.0093664  39.4326708
  96.4322078  58.5393868  38.6142188  96.9148532  57.7596436  40.4962421
  96.4285173  57.2292066  41.3149086  97.7335929  57.1542553  40.1073065
  97.3070885  58.7088757  40.8612236  95.6619882  56.7128736  38.6272415
  95.0512933  56.9515031  37.7564892  96.6048478  56.2746291  38.3000456
  95.1307732  56.0008360  39.2588378  93.9931036  59.3247659  38.7805436
  93.0440140  58.6198576  38.2918728  94.3786608  60.4951074  38.2197330
  95.0519235  61.0300436  38.7495064  93.7363653  61.1424355  37.0211222
  92.6828856  60.8630116  37.0069131  93.8403884  62.7061649  37.1858483
  94.8498412  63.0666632  36.9879965  92.8425272  63.2995218  36.0968829
  91.8327207  62.9398107  36.2943665  92.8559180  64.3883306  36.1460419
  93.1546504  62.9773220  35.1034706  93.3805846  63.2723206  38.5505260
  93.9882632  62.8417941  39.3464379  93.4955914  64.3562349  38.5521539
  92.3335378  63.0183137  38.7156754  94.2823040  60.5076696  35.7144738
  95.5118359  60.4738626  35.4453314  93.3823041  60.0407577  34.8442144
  92.4022216  60.1072642  35.0789792  93.7653381  59.3120601  33.5902998
  94.8153293  59.5781287  33.4685415  93.6527743  57.7454567  33.7002878
  93.8405498  57.3750381  32.6925027  94.5640554  57.0391239  34.6732301
  94.3765238  57.4087096  35.6813660  94.3723078  55.9666866  34.6384420
  95.6026828  57.2309183  34.4038449  92.4210882  57.3979906  34.2337844
  92.3584735  56.4422116  34.2983314  93.0027453  59.7720553  32.3411426
  92.0572362  60.5507260  32.4546921  93.2736018  59.2954836  31.1284802
  94.0385272  58.6543526  30.9737559  92.5540941  59.8441168  29.9344047
  92.8116876  60.9027984  29.9037780  93.0758304  59.1740144  28.6519551
  92.8175110  58.1151320  28.6637496  92.6210925  59.6487437  27.7825037
  94.1591369  59.2826291  28.5995232  90.9758689  59.7813639  30.0771226
  90.2117798  60.7178538  29.7410446  90.4153875  58.6918736  30.5504656
  91.0347630  57.9061598  30.6887664  88.9519537  58.4627646  30.6602812
  88.4197336  59.0655003  29.9243800  88.6372990  56.9648695  30.3961509
  89.3378787  56.3370093  30.9466770  87.6197498  56.7388011  30.7148775
  88.7747780  56.6898108  28.9003614  88.3033043  55.7286039  28.6956794
  88.2010435  57.4842793  28.4231323  90.1859541  56.6866959  28.3508241
  91.1841867  56.3306562  29.0498903  90.4544691  56.9953211  27.1706160
  88.4014352  59.0726195  31.9044839  87.2254719  58.8675772  32.1872807
  89.1961561  59.7675986  32.7450336  90.1605872  59.8737724  32.4644999
  88.7763479  60.3611773  33.9958634  89.0043321  61.4268346  33.9735739
  87.7010072  60.2224702  34.1076762  89.4851372  59.7268813  35.1879378
  90.5959139  59.2437102  35.1090088  88.8343370  59.7240717  36.3933610
  87.8304391  59.8326062  36.4159121  89.5246912  59.5031953  37.6363710
  90.5178796  59.9515705  37.6615836  88.6359750  60.2181253  38.6696437
  88.6384497  61.2716949  38.3902080  87.6251989  59.8207040  38.5775124
  89.0991509  60.0770630  40.0824998  89.5645050  59.1010879  40.2204088
  90.1356881  61.1934480  40.3925064  89.6708987  62.1697838  40.2552545
  90.4780135  61.0961918  41.4227760  90.9859421  61.0982224  39.7171542
  88.0012208  60.1579028  41.1249486  87.2763451  59.3623706  40.9523708
  88.4341616  60.0449116  42.1188785  87.5026975  61.1246269  41.0541102
  89.4946659  57.9889525  37.8228035  88.4566394  57.3860749  38.1686757
  90.6424312  57.3917417  37.7191403  91.4488508  57.9299112  37.4360142
  90.7960996  55.9288812  37.8783611  89.9120736  55.3863654  37.5432881
  91.9955981  55.5258325  36.9796597  91.8397191  55.9738642  35.9982991
  92.8991272  55.9391963  37.4278401  92.1502087  53.9907155  36.8278530
  92.4091585  53.5881408  37.8071280  91.1847710  53.5925414  36.5156202
  93.1918626  53.5982111  35.8389968  94.0490835  54.2589476  35.9682194
  93.4903596  52.5712436  36.0495596  92.7251106  53.6831955  34.3962160
  91.8324105  54.1534638  34.3511213  93.2094447  53.1759056  33.3126186
  94.3290363  52.5328187  33.3537988  94.8174981  52.4311697  34.2319632
  94.7106379  52.1347107  32.5076370  92.6242446  53.4418848  32.1522062
  91.8082108  54.0364544  32.1262043  92.9974199  53.0485971  31.3000538
  90.9309076  55.5830232  39.3921293  91.7776211  56.1617642  40.0757666
  90.2370574  54.5604894  39.9103566  89.1694523  53.8227374  39.2586633
  89.6495088  53.2587452  38.4589390  88.5129683  54.5779553  38.8264902
  88.4704332  52.9558528  40.2206728  88.6872851  51.9017519  40.0476248
  87.3920950  53.1130891  40.1969060  89.0733809  53.4459971  41.5680456
  89.1889030  52.5096563  42.1139574  88.5047633  54.1514523  42.1739388
  90.4630050  54.0358721  41.2368051  90.8312291  54.8130341  41.9065279
  91.5361442  52.9269112  41.0940681  91.4023513  51.9447543  40.3491538
  92.5468712  53.0647233  41.9707190  92.6027449  53.9510059  42.4518433
  93.6435255  52.1039159  42.1511531  93.8313148  51.3256661  41.4114494
  94.9627358  52.8868101  42.3936778  94.7596876  53.6095541  43.1839383
  96.1558916  52.0203802  42.7910044  96.3598499  51.2976420  42.0009718
  97.0313451  52.6526111  42.9392126  95.9293029  51.4915926  43.7168245
  95.2008341  53.9005069  41.2082846  94.3678225  54.6015624  41.1561819
  96.1268482  54.4494295  41.3794028  95.2725503  53.3518256  40.2691858
  93.4261435  50.9812043  43.2153498  93.5179683  49.7851293  43.0139102
  93.1119613  51.3657676  44.4670293  93.2539504  52.3415568  44.6856013
  92.8412317  50.4221261  45.5892682  92.2748986  49.5574663  45.2432488
  94.1926353  49.9352891  46.1439347  94.6750124  49.4533721  45.2935422
  94.7275214  50.8517818  46.3930092  94.2149704  49.0013317  47.3307674
  95.2194612  48.9991647  47.7539627  93.5082321  49.3670480  48.0756665
  93.8357450  47.5926781  46.9244274  92.9526198  47.6135953  46.2858733
  94.6607020  47.1244492  46.3874850  93.5367659  46.8061630  48.1640514
  94.4548630  46.6711492  48.7358638  92.8092818  47.3480087  48.7684265
  92.9788111  45.4674984  47.7933109  93.6529333  44.9650774  47.2336396
  92.7792134  44.9418747  48.6323464  92.1278471  45.5923753  47.2638157
  91.7984603  50.9882633  46.5521937  91.9607010  52.1477924  46.9377587
  90.8698217  50.1733196  47.0778192  90.7585591  49.2960618  46.5898247
  89.9356892  50.4761607  48.2372586  90.2213523  51.3829406  48.7704059
  88.5808720  50.6889498  47.6182715  88.6301262  51.5753328  46.9858172
  88.3451805  49.8187601  47.0056384  87.4795748  50.8796690  48.6879634
  87.6147709  50.1359170  49.4732377  87.7549108  51.8632603  49.0685386
  86.0253570  50.8952687  48.2509813  85.7620215  51.2557307  47.0848083
  85.1864163  50.4508518  49.0100894  90.0136748  49.3282102  49.2840485
  89.8639334  48.1413312  49.0128720  90.1496603  49.7149483  50.6030051
  90.2518092  50.7173072  50.6733022  90.2927264  48.9111197  51.8281980
  89.9553432  47.9045102  51.5811977  91.7272399  48.8318516  52.3447418
  91.7605313  47.9971706  53.0449550  92.8056434  48.6342363  51.2571246
  92.7732714  49.4688203  50.5567516  93.7895879  48.5903975  51.7240633
  92.6163046  47.7038117  50.7218092  92.1112642  50.1057505  53.0209468
  91.4421974  50.2872428  53.8620843  93.1367700  50.0308918  53.3826559
  92.0356816  50.9307970  52.3126485  89.3124190  49.4169714  52.8824301
  88.8078006  50.5367185  52.8084928  89.1679467  48.7015582  54.0036980
  89.5150086  47.7530627  54.0056005  88.5182694  49.2290162  55.2614760
  88.3644599  50.3031620  55.1582641  87.5556775  48.7360976  55.3976655
  89.3780753  48.9704701  56.4738248  90.2016356  48.0682951  56.4281442
  89.0891638  49.6050222  57.6092718  88.2264385  50.1235859  57.5262289
  89.8127148  49.6482955  58.9004470  90.5694872  48.8658413  58.9566621
  90.5160213  51.0241477  58.9920800  89.7480311  51.7839069  58.8469723
  90.9223002  51.1068435  60.0001469  91.6069461  51.2260077  57.9997184
  92.4029410  50.5152166  58.2216841  91.2046334  51.0219759  57.0074394
  92.2966424  52.9418478  58.0351725  93.2106299  53.1520512  59.5757715
  94.0196367  52.4229846  59.6212573  93.6266090  54.1586853  59.6176031
  92.5387907  53.0016992  60.4208322  88.8483301  49.4873571  60.0968112
  87.6537084  49.7884962  60.0883138  89.4526701  49.0904297  61.1773846
  90.4052100  48.7546287  61.1752321  88.7099058  49.0652885  62.4406257
  87.6521274  48.8662834  62.2685764  89.2843494  47.9416660  63.3039010
  90.2752212  48.3219106  63.5522686  88.6775898  47.8921993  64.2080558
  89.4101908  46.5663555  62.7092904  88.3825065  46.0587880  61.9051130
  87.5217924  46.6717215  61.6375625  88.4738452  44.7376915  61.4422727
  87.6160578  44.2953967  60.9356388  89.6710766  43.9477178  61.6666287
  89.7922163  42.7138575  61.0507173  89.0332238  42.4897484  60.5072973
  90.6673183  44.5019112  62.4692607  91.5737333  43.9323142  62.6743745
  90.5094129  45.7722978  63.0062791  91.2621424  46.1749013  63.6840761
  88.7089758  50.3396523  63.2278937  89.2137247  50.4488234  64.3917500
  88.3068664  51.4326653  62.5155058  87.9443796  51.2951963  61.5828725
  88.3729755  52.7435782  63.0182146  87.9354009  52.7110328  64.0159964
  89.4322598  52.9889537  63.0944184  87.6988724  53.7809168  62.2361433
  87.8521901  53.8549486  60.9937939  87.2006066  54.7101674  63.0358992
  87.0161839  54.4710971  63.9997108  86.7693525  56.0126311  62.5540129
  86.2552845  55.9773826  61.5934970  85.7299019  56.4550775  63.6699043
  84.8694478  55.7869714  63.6331318  86.2082659  56.3771793  64.6462238
  85.2679425  57.8919314  63.4433090  86.1127090  58.5179998  63.7305525
  85.1010194  57.9781119  62.3696183  83.9881951  58.3610910  64.2085284
  84.1959709  58.2202938  65.2692377  83.8777951  59.4249590  63.9985374
  82.6861461  57.6277581  63.8393302  82.9133539  56.5624287  63.7999541
  81.9692678  57.8165477  64.6384192  82.1305697  58.0394171  62.5980362
  82.7945212  57.8641683  61.8573905  81.2827305  57.5202241  62.4199711
  81.9195658  59.0264580  62.6344598  87.8610098  57.0093268  62.2449240
  88.5197132  57.5907303  63.1159996  88.2175849  56.9875970  60.9379209
  87.6742989  56.4759399  60.2573721  89.4336764  57.6503107  60.4924571
  90.2850887  57.2145917  61.0152813  89.6337287  57.5028765  58.9779980
  88.7436669  57.8611563  58.4607688  90.8303723  58.3096158  58.5369417
  91.7209618  57.9515864  59.0534357  90.9663574  58.2002883  57.4609974
  90.6693598  59.3605059  58.7773668  89.8552160  56.0098660  58.6084309
  90.8785407  55.7764271  58.9023928  89.1612358  55.4412154  59.2274039
  89.6494238  55.6373081  57.1368049  90.3434241  56.2052579  56.5172111
  89.8320940  54.5711621  57.0024044  88.6261192  55.8700486  56.8422216
  89.4058779  59.1409590  60.8851771  88.5854746  59.8775780  60.3397636
  90.3724699  59.5369006  61.7063373  91.0045640  58.7959252  61.9737541
  90.4896168  60.8340277  62.3898861  89.5586900  61.3154499  62.0903746
  90.4326639  60.5533830  63.8771782  91.3617687  60.0794939  64.1938698
  90.2997683  61.4896294  64.4192869  89.5954108  59.8887699  64.0902414
  91.6532299  61.8352439  62.0001007  91.6414674  63.0196215  62.3938790
  92.5396141  61.3226781  61.1251988  92.2800217  60.4207660  60.7520155
  93.7759992  61.9264561  60.6667831  93.5869808  62.9951656  60.5656343
  95.0092507  61.7216097  61.6278735  95.1167338  60.6511925  61.8032410
  96.3179526  62.2794430  61.0568373  96.2113866  63.3499786  60.8816283
  97.1273096  62.1066944  61.7662029  96.5470299  61.7788644  60.1160683
  94.8581860  62.4047997  62.9597323  93.9794529  62.0130321  63.4720294
  95.7445763  62.2193803  63.5663883  94.7409217  63.4776708  62.8070968
  94.0551537  61.2487518  59.3784777  94.0402546  60.0351910  59.2394021
  94.4345857  62.0353279  58.3434639  94.1191552  62.9932524  58.2888426
  95.1694328  61.4809688  57.2058877  95.7755865  60.6262012  57.5059697
  94.1460907  61.0154253  56.1816190  93.3601636  60.4338315  56.6634557
  93.7030699  61.8690043  55.6685542  94.8786230  60.1401992  55.1715574
  95.3810332  60.8125670  54.4761393  95.6233212  59.5708740  55.7277908
  93.8200443  58.9868947  54.2323425  92.7633094  60.1201715  53.3377643
  93.3733671  60.7607671  52.7009238  92.0639828  59.5556735  52.7210107
  92.2078907  60.7354577  54.0456021  96.2180772  62.5048647  56.7043980
  95.8114691  63.5661643  56.3257660  97.5070980  62.1468048  56.7289835
  97.6950661  61.1830358  56.9654506  98.5883853  62.9931517  56.5000738
  98.2573703  63.8213563  55.8734914  99.1878478  63.5739461  57.8184738
  98.3284656  64.0493215  58.2913160  99.4620701  62.6802389  58.3790001
 100.3906792  64.5690552  57.8053761 100.7511585  64.7943969  58.8090576
 101.1605483  64.0265560  57.2566544 100.0741892  65.8489115  57.0888793
  99.8620189  66.8734925  57.8008144 100.1357268  65.8857603  55.8330078
  99.7583588  62.2822605  55.7093687  99.9523565  61.0978102  55.8252847
 100.5361264  62.9528896  54.8776529 100.2733610  63.8998259  54.6444890
 101.7708677  62.3595829  54.2079686 101.8544669  61.2894526  54.3975244
 101.6058881  62.5801410  52.6886681 101.3077524  63.6282205  52.6613965
 102.5569062  62.4598402  52.1698306 100.5598797  61.7458519  52.0135613
  99.6466913  61.7326579  52.6085518 100.2686000  62.3668427  50.6474534
 101.1812774  62.3799603  50.0516795  99.5088146  61.7773193  50.1343363
  99.9077146  63.3866797  50.7808494 100.8332127  60.2414006  51.8940285
 100.9495529  59.8125231  52.8893317  99.9978646  59.7590237  51.3864782
 101.7467495  60.0819523  51.3212058 103.1403705  62.9932413  54.7367787
 103.1982321  64.1655116  54.9825843 104.1868515  62.1562414  54.7633448
 103.9668270  61.1751163  54.6680441 105.6025975  62.5404105  55.0419416
 105.7914519  63.5498588  54.6766371 105.8787949  62.5055109  56.5576982
 106.9103391  62.8570859  56.5779637 105.2665488  63.1401016  57.1984396
 105.8783890  61.1004551  57.1975069 104.6385423  60.4426777  57.4074833
 103.7383133  60.9394152  57.0456278 104.5449475  59.2238573  58.0404934
 103.5835175  58.7149266  58.1093608 105.6952063  58.6346253  58.5998514
 105.6493179  57.6792912  59.1226621 106.9061796  59.2984613  58.4735686
 107.7983407  58.8563595  58.9170715 106.9955924  60.5308493  57.7823827
 107.9540114  61.0442842  57.7054568 106.7332324  61.7962942  54.3390862
 106.4365357  60.6430471  54.0159960 107.9305235  62.3704966  54.1403008
 107.9956507  63.3662960  54.2959968 109.1288972  61.6570348  53.5813647
 108.9868363  60.5763592  53.5889937 109.2991829  62.1208613  52.1222524
 108.3404271  62.0049382  51.6168332 109.5785733  63.1743905  52.1330792
 110.4147839  61.2825955  51.3455602 111.3762568  61.3571488  51.8536081
 110.1254155  60.2345298  51.2685788 110.5362490  61.9086287  49.8845558
 110.8043302  62.9621921  49.9635214 111.3083573  61.3786019  49.3268643
 109.3119754  61.8032163  49.1775223 108.4843915  61.6976015  49.7467761
 109.1699238  61.8632673  47.8544788 110.1745879  61.7589973  47.0592656
 111.1020958  61.6276466  47.4368580 110.0316369  61.8089241  46.0606807
 108.0264737  61.9964762  47.2727468 107.1852185  62.0602818  47.8280113
 107.9777613  62.0363475  46.2647110 110.3934552  61.8478953  54.4530517
 111.1364590  62.8146652  54.2191838 110.7326753  60.9167251  55.3754035
 109.9667730  59.7597768  55.7275248 110.1305436  58.9848477  54.9786827
 108.9102008  60.0268486  55.7481834 110.4872786  59.3704761  57.0860670
 110.2873927  58.3177429  57.2858108 110.0258700  59.9810152  57.8622405
 111.9851222  59.6456619  56.9953014 112.5249841  58.8034756  56.5624383
 112.4387052  59.9158691  57.9488999 112.0294389  60.8183444  56.0557053
 112.1897234  61.7392338  56.6163922 113.1814085  60.6142724  55.0728179
 113.0156069  59.8637721  54.0604197 114.3706617  61.2015432  55.4195668
 114.4656049  61.8762583  56.1651167 115.5363861  60.9574083  54.5418591
 115.2742459  61.2107988  53.5146420 116.7372517  61.8025871  54.9617765
 117.0745042  61.4734543  55.9446455 117.5391481  61.6616596  54.2370684
 116.3498504  63.3218487  55.0238108 115.7954211  63.5617897  54.1165416
 115.7060480  63.4665305  55.8913866 117.5959581  64.2613848  55.1369858
 118.2473199  63.8378908  55.9014984 118.1039763  64.2362277  54.1729401
 117.2614034  65.7050180  55.4974067 118.1077220  66.3778707  55.3591508
 116.4015157  66.0855735  54.9461628 116.9400688  65.6258051  56.8810235
 117.7368739  65.2736014  57.3920558 116.6996147  66.5448749  57.2239411
 116.1556020  65.0027050  57.0093084 115.9145790  59.4807004  54.3915900
 115.7651997  58.7340992  55.2981017 116.1170171  59.0169774  53.1357903
 116.1429647  59.6917303  52.3847014 116.3009713  57.5910384  52.8020795
 117.1717213  57.4963182  52.1532946 116.4746774  57.0384681  53.7254383
 115.0610381  56.9893980  52.0771149 115.1171768  56.0410898  51.2935584
 113.8984678  57.6158610  52.1642214 113.7928263  58.3005028  52.8992076
 112.7257788  57.3350710  51.2849998 112.7167863  56.2928992  50.9657880
 111.4612845  57.6091772  52.0863648 111.5260140  58.6773114  52.2937261
 110.6657203  57.4274278  51.3637689 111.1542395  56.8555199  53.3833413
 111.7955853  57.3141953  54.1359323 110.1109993  57.0666760  53.6182073
 111.3818814  55.3213828  53.3760941 112.0934752  54.8569279  54.3247447
 110.9185272  54.5998989  52.5039440 112.6873475  58.1432677  49.9690078
 112.8256486  59.3719571  49.9063878 112.4199865  57.4730910  48.8520735
 112.5570432  56.4729289  48.8205989 112.1013078  58.1732962  47.5978735
 112.4046599  59.2194359  47.6387205 112.8891639  57.4754607  46.4710006
 112.7261505  57.9828789  45.5201838 113.9549552  57.4662087  46.6992621
 112.4240865  56.1724391  46.3847112 112.8967632  55.7093774  45.6891895
 110.6291221  58.3329108  47.3212343 110.3071552  58.8673084  46.2718123
 109.7002405  57.9577775  48.2067720 109.9966522  57.4034958  48.9973486
 108.2384328  58.1550122  47.9901580 108.1100670  59.1377308  47.5364118
 107.5493600  57.1072308  47.0974645 106.4904446  57.3461282  46.9988465
 108.0132685  57.1009614  46.1111331 107.7047160  55.7108107  47.7496282
 108.7705780  55.4826914  47.7488618 107.3547107  55.8055930  48.7775459
 106.9459033  54.5888002  47.0574052 105.8836191  54.8156003  47.1480304
 107.2325638  54.6079178  46.0059492 107.2269729  53.1719008  47.6470414
 106.5249356  52.4793597  47.1826806 108.2446181  52.8979306  47.3687651
 107.0850241  53.1069733  49.1048922 106.1419984  53.3603885  49.3629292
 107.2795359  52.1674960  49.4205621 107.7357594  53.7483123  49.5353883
 107.6007706  58.3237837  49.3690210 108.0923608  57.7670608  50.3431666
 106.5722552  59.1245793  49.4932677 106.4074444  59.7250397  48.6980419
 105.8169026  59.3996881  50.7618431 106.5101987  59.7482373  51.5273188
 104.7413757  60.4725564  50.5494722 103.8849468  60.0802314  50.0011020
 104.4763524  60.5905039  51.6001630 105.1410255  61.8356057  49.9667049
 104.2522291  62.6833872  49.9282927 106.3676981  62.1606558  49.7195270
 105.3338466  58.1778490  51.5222733 104.8683026  57.2042775  50.9374576
 105.4011581  58.2687516  52.8313187 106.0724845  58.9465040  53.1630896
 104.6685611  57.4881888  53.8124875 104.2746700  56.5843514  53.3477003
 105.5913693  57.0826567  54.9683399 105.7245177  58.0358707  55.4799586
 105.0774184  56.3847862  55.6293477 106.9785936  56.5042038  54.5840978
 107.4785527  57.1554116  53.8671110 107.8191969  56.4208775  55.8764046
 107.3200704  55.7694272  56.5937498 108.8046260  56.0170847  55.6440651
 107.9272090  57.4172088  56.3050742 106.9745344  55.2192348  53.8572668
 106.4283396  55.3326214  52.9208299 108.0003540  54.9181511  53.6447957
 106.4919076  54.4568448  54.4687665 103.4537199  58.1398185  54.4250017
 103.4042500  59.3472370  54.5631294 102.5533509  57.3153968  54.8446414
 102.8497612  56.3498941  54.8513332 101.2079793  57.6105938  55.2023409
 101.0027182  58.6712211  55.0572998 100.2270404  56.7796441  54.2941165
 100.4435170  57.1231403  53.2825595 100.5034482  55.7294247  54.3875933
  98.7311703  56.9405636  54.5782039  98.5099025  56.5375379  55.5664912
  98.3443899  58.4039186  54.5320298  98.5649495  58.8075530  53.5438337
  97.2783631  58.5051009  54.7356216  98.9110582  58.9539224  55.2833508
  97.8822315  56.1359263  53.5641276  98.1383454  55.0786940  53.6331573
  96.8240350  56.2683547  53.7894809  98.0857205  56.4933729  52.5547104
 100.7797983  57.4283831  56.6125906 100.9445428  56.2821042  57.0666578
 100.5051699  58.4735859  57.3674643 100.6768072  59.3827099  56.9623304
 100.0592396  58.4085939  58.7392206 100.2125924  57.3891733  59.0932880
 100.7893911  59.3724851  59.6868685 101.8297785  59.0476999  59.7012879
 100.7326713  60.3914207  59.3039153 100.3361433  59.4253246  61.1169186
 100.6395593  58.2994903  61.9204514 101.0828201  57.4194576  61.4544449
 100.3725440  58.3064988  63.3229705 100.6990926  57.5029974  63.9831615
  99.6716871  59.3844481  63.8381362  99.4531201  59.4261467  64.9051834
  99.2350480  60.4401819  62.9766076  98.5993499  61.2263360  63.3839768
  99.6161030  60.4735198  61.6158153  99.3349721  61.3218181  60.9917518
  98.5964727  58.6419984  58.8808437  98.1254370  59.7069605  58.4501476
  97.9802408  57.7728252  59.6288251  98.5930955  57.0430218  59.9633330
  96.5802343  57.7000345  59.9697609  96.1440194  58.6916758  59.8494979
  95.8182960  56.7019467  59.1056007  96.2662484  55.7145518  59.2173604
  94.3491488  56.6481438  59.5392514  93.9003619  57.6351411  59.4273268
  93.8119863  55.9326192  58.9166908  94.2888453  56.3383568  60.5825609
  95.9073845  57.1254341  57.6194370  95.5449149  58.1517390  57.5609991
  96.9619856  57.0969613  57.3453834  95.1008503  56.2401451  56.6495097
  94.0460130  56.2684851  56.9226671  95.2221927  56.6111979  55.6318187
  95.4630825  55.2137064  56.7070532  96.4810995  57.3336947  61.4840355
  97.0476006  56.3656576  61.9396699  95.6601483  58.0229811  62.2446467
  95.3438651  58.8569762  61.7708149  95.1567970  57.7572517  63.5775140
  95.5245924  56.7960511  63.9365669  95.6375644  58.8496200  64.5288070
  96.7170444  58.7140274  64.5954166  95.4205837  59.7887252  64.0197876
  95.0539159  58.8825874  65.9048780  94.6196573  57.9140222  66.1526718
  96.1736555  59.2020166  66.8853387  96.6081258  60.1707167  66.6384492
  95.7726763  59.2318234  67.8984666  96.9431059  58.4325650  66.8221665
  93.9364817  59.9084694  66.1758135  93.0956223  59.7150007  65.5097619
  93.6065782  59.8222304  67.2111046  94.3156919  60.9148773  65.9984949
  93.6080566  57.7905415  63.4672191  93.0213332  58.5243975  62.6614616
  92.9653228  57.0660192  64.3865329  93.5261903  56.6254934  65.1017000
  91.4996882  56.8650271  64.4213979  91.0318873  57.4317802  63.6163808
  91.1592605  55.3368237  64.2260001  90.0797176  55.2189847  64.1321850
  91.8635283  54.7876078  62.9236074  92.9431997  54.9046914  63.0168846
  91.6226200  53.7320990  62.7972608  91.5115608  55.3464132  62.0564534
  91.6357357  54.6055439  65.3595742  91.4321769  53.6740258  65.2480479
  90.9491431  57.3399740  65.7714818  91.6559118  57.8820976  66.5754171
  89.6464357  57.3475792  66.0355451  89.0559458  56.8241417  65.4051213
  89.0118545  58.0919088  67.1226045  89.5324643  59.0476536  67.1827425
  87.5612265  58.3515200  66.7479962  87.0245906  57.4043799  66.6927922
  87.0986217  58.9871595  67.5030190  87.5191061  58.8493864  65.7792578
  89.0464345  57.4426632  68.4951096  88.8443293  58.1450769  69.4718258
  89.3526106  56.1234671  68.5981971  89.3102787  55.6030261  67.7336461
  89.7153503  55.4067331  69.8232352  89.3133526  55.8712301  70.7236460
  89.0499643  54.0038354  69.6453202  88.2195952  54.0587067  68.9413490
  89.7786922  53.2749312  69.2907016  88.5246134  53.5734215  71.0242311
  89.3623265  53.3295995  71.6775982  87.9436804  54.3830602  71.4659370
  87.6075857  52.3035594  70.8503100  86.6836183  52.5698502  70.3370144
  88.1292619  51.5333955  70.2821543  87.2839087  51.7791049  72.2293015
  88.2217340  51.4816073  72.6984277  86.8371626  52.5953309  72.7970093
  86.3523397  50.6227873  72.2089551  86.7662990  49.8661893  71.6833157
  86.1740652  50.3174172  73.1550351  85.4831103  50.8983622  71.7746767
  91.1986866  55.2645237  70.0506532  91.5981904  54.5045445  70.9635947
  92.0343320  56.0078626  69.3084497  91.4665357  56.2988323  68.5254789
  93.4669964  56.3313757  69.2880272  93.6809506  57.0841471  68.5293058
  93.8625234  56.8885346  70.6531680  93.8828830  56.0641562  71.3659687
  94.8801157  57.2312163  70.4656176  93.0319110  58.0439692  71.2308842
  93.0746640  59.3557288  70.6166204  93.7866811  59.4862187  69.8016949
  92.2796793  60.4048281  71.0084913  92.3604859  61.3758298  70.5198934
  91.3190010  60.1985443  71.9843218  90.5797735  61.3174555  72.2318202
  90.8418641  62.0670887  71.6924147  91.1841669  58.9907702  72.6876762
  90.4433095  58.8207075  73.4688992  92.1021749  57.9382965  72.3220143
  92.1129478  57.0047019  72.8844956  94.4318266  55.2443477  68.7940195
  95.6379871  55.3814288  68.8695611  93.8679867  54.1697264  68.1711135
  92.8757523  53.9943975  68.2406107  94.6753176  53.2795292  67.3248324
  95.5014152  52.8476991  67.8897968  93.7793360  52.1513605  66.8343784
  93.0609025  52.6037585  66.1507933  94.3843947  51.4227572  66.2948033
  92.9884094  51.4039451  67.9738030  91.8258984  51.5620345  68.1591294
  93.6868228  50.6129239  68.7444826  93.2306860  50.1086322  69.4912951
  94.6795282  50.5094986  68.5897572  95.1515443  54.0810468  66.0932238
  94.4673467  54.8597148  65.4383988  96.4447116  53.8873559  65.7596325
  96.9834141  53.1912035  66.2548808  97.0987883  54.6409113  64.7005783
  96.4371114  54.9816667  63.9042312  97.7506052  55.9034093  65.3899400
  98.4229662  55.5779703  66.1837411  98.3122900  56.4728760  64.6494549
  96.9670888  56.5320058  65.8131040  98.1330456  53.7879412  64.0740460
  98.5542561  52.6873092  64.5050585  98.5875528  54.2651138  62.8754620
  98.2962961  55.1689840  62.5315325  99.5335833  53.4508658  62.0318522
 100.2322863  52.9100142  62.6701255  98.7201193  52.3993588  61.1653492
  99.3422685  52.0457373  60.3431684  98.4329741  51.5551191  61.7921722
  97.1872403  53.0095361  60.4100215  96.8594337  51.8651667  59.8168437
 100.3182255  54.3922076  61.0953538  99.9134812  55.5104961  60.7093203
 101.4467459  53.9143570  60.6431597 101.7579504  53.1050453  61.1611034
 102.2623468  54.3763655  59.5288575 101.9036248  55.2463645  58.9788398
 103.7190116  54.6204314  59.9853806 103.9586938  53.7989418  60.6605159
 104.8107461  54.7061527  58.8561389 104.5719782  55.5277644  58.1808281
 105.7878427  54.8794263  59.3070926 104.8299900  53.7707518  58.2968946
 103.8476311  55.8198685  60.9849643 103.8071735  56.7528742  60.4228572
 103.0154320  55.7834581  61.6879710 105.1728696  55.7448185  61.7568239
 106.0055990  55.7816453  61.0544670 105.2412533  56.5872276  62.4451334
 105.2138584  54.8122274  62.3195793 102.2656966  53.3092540  58.4453808
 102.5603885  52.1139897  58.7552291 101.6553329  53.6365942  57.3006409
 101.3354337  54.5944748  57.2855214 101.3572057  52.7913534  56.1538395
 101.4264581  51.7306564  56.3951384  99.8740810  53.1206249  55.7622487
  99.9313182  54.1920826  55.5704114  99.6081943  52.6009264  54.8417501
  98.8343139  52.8560995  56.8009670  99.2030082  53.1801482  57.7741873
  97.5665844  53.6216678  56.4593063  97.1970118  53.2978074  55.4863575
  96.8086581  53.4276394  57.2182539  97.7836091  54.6893831  56.4279283
  98.6036596  51.3415864  56.9651973  99.5346319  50.8625185  57.2683212
  97.8426494  51.1698776  57.7264336  98.2702907  50.9194028  56.0171861
 102.3340378  53.0287136  55.0369724 102.7930623  54.1098481  54.8790683
 102.4134101  52.0736750  54.1477281 101.9694287  51.2014181  54.3970227
 103.2010277  52.1208876  52.9322367 103.2061573  53.1334987  52.5288860
 104.6382884  51.7067448  53.2273322 105.0761976  52.4864371  53.8505615
 104.5952594  50.7740866  53.7898241 105.5097722  51.5068265  51.9628735
 105.1063851  50.7131322  51.3340420 105.3592754  52.4691759  51.4736562
 107.0665647  51.2646613  52.1888758 107.4463727  50.9546084  53.3182783
 107.7641267  51.2723717  51.1848237 102.6049346  51.3408986  51.7389969
 102.1227033  50.2897391  51.9598609 102.5896526  51.8778130  50.5202880
 102.5149302  52.8821317  50.4437381 102.3719799  51.0761874  49.3242445
 101.5198748  50.4130528  49.4734711 102.0842916  51.9804094  48.1186115
 101.1758643  52.4647717  48.4767347 102.8583601  52.7316333  47.9618295
 101.7968695  51.2728550  46.8127289 102.8891429  51.1612148  45.8982501
 103.8843262  51.4382700  46.2460286 102.7125084  50.7239662  44.6265414
 103.5740437  50.5257042  43.9889280 101.4076378  50.3092777  44.2145085
 101.1535844  49.9147202  42.9187001 101.9303228  49.9529381  42.3558355
 100.3078868  50.5097007  45.0699051  99.3061771  50.3512237  44.6704515
 100.4782525  50.9084583  46.4227812  99.6231174  50.9228757  47.0985298
 103.3360411  49.9420262  49.0370190 104.5351473  50.0234001  49.1613556
 102.7269678  48.7826552  48.6928251 101.7354921  48.6627954  48.8435197
 103.4815702  47.6648636  48.1546373 104.4364423  48.0561139  47.8035794
 103.7546205  46.5146272  49.1464769 104.2516898  46.9486597  50.0140236
 102.7873028  46.1116433  49.4464774 104.5844228  45.4358706  48.5963620
 104.0119228  45.0254604  47.7645518 105.4799396  45.9255813  48.2138242
 104.9919158  44.2929172  49.5547783 105.9020042  43.8311821  49.1718438
 105.1884376  44.7218378  50.5373798 103.8962707  43.2370576  49.6709171
 103.0001112  43.7216061  50.0584884 103.6953962  42.8477088  48.6728409
 104.2810529  42.1229722  50.5666210 104.4668135  42.4834806  51.4916217
 103.5276615  41.4518136  50.6118705 105.1111894  41.6735737  50.2074365
 102.7882914  47.0251684  46.9012848 101.5856060  46.8775257  46.8744605
 103.5730339  46.8080476  45.8563735 104.4559447  47.2980410  45.8781526
 103.1979860  46.0993216  44.6207357 102.2875363  45.5296502  44.8068941
 102.9495483  47.0466406  43.4528259 102.5293380  46.4872847  42.6169769
 102.2478595  47.8222535  43.7596767 104.2712068  47.6950115  43.0209230
 104.4257554  48.4324585  43.8085698 105.1198489  47.0115765  42.9921967
 104.1855623  48.4192970  41.6875005 103.2747449  49.1945633  41.4221596
 105.0484807  48.0476120  40.7747573 105.0420873  48.4915463  39.8675733
 105.7161970  47.3188279  40.9824353 104.2054413  45.0123137  44.3937807
 105.3918865  45.2445967  44.6542463 103.7707514  43.7688170  44.0272638
 102.8344703  43.7382431  43.6497159 104.5389857  42.4995293  44.1094630
 105.5664331  42.7175389  43.8180478 104.5519098  41.8283315  45.5197455
 103.5462880  41.4908388  45.7705898 105.2291780  40.9743410  45.5093505
 104.9960709  42.7794398  46.5005614 105.0036217  42.3658643  47.3668743
 104.0493021  41.3108547  43.2008620 102.9688903  40.7798170  43.5203994
 104.6680002  41.0030378  42.0285244 105.5459876  41.4636359  41.8359448
 104.1501659  40.0601981  41.0418862 104.7035588  40.2370458  40.1196171
 104.3763875  39.0613005  41.4148834 102.6960955  40.1519141  40.7578560
 102.0027866  39.1585761  40.8349356 102.2247383  41.3448893  40.4668258
 102.8442421  42.0628010  40.8145573 100.9099295  41.7239035  40.0616553
 100.9633121  42.7473671  39.6904791 100.2789459  40.8291867  38.9607963
 100.3625725  39.8035803  39.3202921  99.2272307  41.1107463  38.9086481
 100.8871011  40.9308645  37.6063378 100.2160584  40.4485472  36.8955829
 100.9491676  41.9956351  37.3815924 102.2787084  40.3053702  37.4983002
 103.3470062  40.9102241  37.1390585 102.3522474  39.0906489  37.8207117
  99.8964265  42.1333602  41.1115209  98.9092621  42.8189629  40.8357593
 100.1652054  41.7513705  42.3735267 100.9903009  41.1713152  42.4269363
  99.4078399  41.9273586  43.5254315  98.3460494  41.9671600  43.2822937
  99.6579782  40.7062140  44.4986683 100.6923478  40.6956871  44.8422785
  98.9904661  40.7587102  45.3587681  99.3957336  39.5399931  43.7768542
  99.5384541  38.7759970  44.3403616  99.6470021  43.3311616  44.1665241
 100.7775335  43.7488564  44.3597356  98.5437082  43.9217500  44.6732784
  97.6829015  43.4794602  44.3843305  98.4616696  45.1853635  45.4172009
  99.4373717  45.6692920  45.3734078  97.3630198  46.1491404  44.7865222
  96.3926335  45.6542420  44.8255923  97.2968338  47.4398327  45.5486499
  98.2667959  47.9355668  45.5096380  96.5406362  48.0866718  45.1038296
  97.0349192  47.2362674  46.5869471  97.9046590  46.3696569  43.2860845
  97.8478917  45.3834416  42.8253702  97.1708865  47.0292828  42.8228661
  99.3156039  46.9497299  43.0833482 100.0500115  46.2903635  43.5459292
  99.5245555  47.0340597  42.0168929  99.3730069  47.9362043  43.5434275
  98.2992238  44.9906225  46.9739322  97.5434268  44.1584243  47.4218463
  99.0933021  45.6944696  47.8091017  99.7384898  46.3525115  47.3958065
  99.0877432  45.5510345  49.2521088  98.0864039  45.2662734  49.5751103
 100.0423589  44.5252056  49.7155609 100.8968347  44.7392068  49.0735532
 100.3250330  44.6746990  50.7576008  99.5962853  43.0583691  49.5079143
  98.5619759  42.6561374  50.1167778 100.3861658  42.3359102  48.8535821
  99.4605877  46.9186368  49.9357754 100.0958830  47.8220272  49.4259258
  98.9941851  47.0710123  51.1351883  98.3559711  46.3435341  51.4242520
  99.1741569  48.2411383  52.0245641  99.9888912  48.9409270  51.8385452
  97.7909794  49.0688251  52.2596651  97.0474777  48.3959459  52.6869113
  98.0225587  50.2843249  53.2369948  98.7656506  50.9579303  52.8101801
  97.0846491  50.8214139  53.3782799  98.3776923  49.9150794  54.1990952
  96.9807882  49.3258599  50.9467077  96.9357747  48.3829339  50.4017627
  95.9739690  49.6247632  51.2383778  97.6097896  50.4337737  50.0252993
  98.6165141  50.1353386  49.7328238  96.9948244  50.5579744  49.1339570
  97.6547105  51.3771680  50.5694402  99.8583521  47.7783589  53.3100952
  99.1357370  47.2588621  54.1635186 101.1954531  47.9550779  53.4141401
 101.6845782  48.5201276  52.7347471 101.9916353  47.3056017  54.5016102
 101.5231163  46.4894545  55.0516037 103.3144188  46.8050434  53.8605320
 103.7076385  47.5946666  53.2202400 104.3399451  46.4509032  54.9092729
 103.9475974  45.6609629  55.5497090 105.2523328  46.1046920  54.4236937
 104.5617467  47.3308766  55.5130527 103.0611787  45.7024270  52.8588476
 102.3908653  46.1850959  52.1476434 104.0427545  45.5740514  52.4026371
 102.4984180  44.3411723  53.2425027 101.5165814  44.4687095  53.6983876
 102.4066380  43.7209638  52.3508654 103.1684701  43.8576658  53.9533836
 102.2632062  48.2648736  55.6146379 102.4528931  49.4525479  55.3254915
 102.0925540  47.8683461  56.8598234 101.8428666  46.8991521  56.9955387
 102.1376228  48.7470307  58.0358472 102.0548932  49.7955024  57.7495570
 100.9319060  48.3811128  58.9097952 101.0143371  47.3289308  59.1822256
 100.8650309  49.2599107  60.2198211 100.7821173  50.3122575  59.9481758
  99.9962717  48.9679679  60.8098431 101.7704725  49.1070526  60.8071120
  99.7394308  48.5546451  58.2922084  99.0302997  48.3088680  58.8908125
 103.4286230  48.6130821  58.6849768 103.7009285  47.5716874  59.3016752
 104.3200369  49.6228514  58.5659632 104.0877407  50.3979209  57.9614757
 105.6610954  49.6135076  59.2208210 106.2407119  48.7828659  58.8181075
 106.4499019  50.9269285  58.9874462 105.8204270  51.7677552  59.2787726
 107.3448095  50.9110215  59.6095294 106.8550057  51.0773927  57.5101546
 107.1543433  50.0849065  57.1733031 105.9555862  51.3855224  56.9770481
 107.9606569  52.0545088  57.2321753 107.6112185  53.0388059  57.5438657
 108.8145841  51.7623474  57.8433623 108.3865153  52.1293304  55.8399863
 107.7740360  51.6867741  55.1698278 109.4234288  52.8041276  55.3927221
 110.1280967  53.5923725  56.1602174 109.8804574  53.6978698  57.1336880
 110.9171882  54.0925492  55.7764757 109.7199856  52.5103906  54.1902556
 109.1734725  51.8223631  53.6922177 110.5003910  52.9667479  53.7399181
 105.5075515  49.3440112  60.7112622 106.1441449  48.4080044  61.2707962
 104.6923006  50.1966341  61.3809465 104.2000788  50.8722252  60.8140306
 104.5357967  50.2637719  62.8247655 104.5848982  49.2923731  63.3167743
 105.7394878  51.1309114  63.3113967 105.6989120  52.1101022  62.8342814
 105.6867474  51.2520439  64.3933605 106.6743471  50.6368371  63.0467690
 103.1562929  50.8235769  63.1758616 102.5060461  51.5134227  62.3735513
 102.7927127  50.4619814  64.4158004 103.4552657  49.9997172  65.0219642
 101.4005464  50.6191961  64.8891939 100.9961941  51.5868098  64.5920035
 100.5582447  49.5290611  64.2605991  99.5104126  49.8181791  64.1796186
 100.9828878  49.4206874  63.2625843 100.5811239  48.1089161  64.9129025
 101.5402462  47.1121117  64.6649418 101.1115179  46.0533479  65.4404701
 101.7825268  45.1946649  65.4630428  99.9271202  46.2637296  66.0421035
  99.3552776  45.6425830  66.5964255  99.6094936  47.5878247  65.7406580
  98.7064457  48.0388681  66.1519555 101.3932603  50.6249710  66.3835565
 102.1758745  49.9714366  67.0577914 100.4125633  51.3014459  66.8681638
  99.8985885  51.9070575  66.2443338  99.9971876  51.2407062  68.2875156
  99.6916428  50.2188326  68.5122732 100.8530020  51.5081402  68.9073221
  98.8435283  52.1834313  68.6022880  98.7194231  53.2191087  67.9387602
  98.0792402  51.9061386  69.6959728  98.0673949  50.9823271  70.1040555
  97.2169092  52.9483972  70.2946448  96.6303658  53.5101877  69.5676940
  96.2541937  52.0990282  71.1556919  95.8396299  51.1845182  70.7315369
  96.9538300  51.8449852  71.9519779  95.1162200  52.9192739  71.7507120
  95.2781266  54.0408497  72.1886262  93.8846301  52.5304590  71.5666187
  93.1246148  53.0685422  71.9576979  93.6969100  51.6931745  71.0338743
  98.1293812  53.9624909  71.1155333  99.1939687  53.5980126  71.6949968
  97.7392472  55.2262511  71.2221716  96.9001783  55.4416450  70.7028757
  98.4354136  56.3168308  71.8938629  99.1201688  55.9317058  72.6494344
  99.2581476  57.1235139  70.8394066  99.7606188  57.9362715  71.3638559
 100.2892838  56.2765029  70.1119201  99.7874861  55.4637499  69.5868176
 100.8269894  56.8952548  69.3935057 100.9939414  55.8621760  70.8329558
  98.3456888  57.7616522  69.7237193  97.6304788  58.4431053  70.1843693
  98.9665803  58.3112259  69.0162151  97.8081264  56.9725348  69.1979616
  97.3798941  57.1595057  72.6922059  97.6188788  58.3410913  73.1142519
  96.3086085  56.5945812  73.1696623  96.0239955  55.7155844  72.7616679
  95.4268137  57.2146290  74.1947826  94.9157290  58.0967361  73.8090643
  94.3827100  56.1656410  74.5547457  93.6038946  56.7014146  75.0974172
  93.9840835  55.8106574  73.6043859  94.8635645  54.9496784  75.4026461
  95.8442327  54.5676637  75.1189995  94.9342665  55.4488283  76.3690583
  93.9131925  53.7888285  75.5291156  92.7057182  53.8638479  75.2676583
  94.3797020  52.5270745  75.7415584  93.7293571  51.7587491  75.8241960
  95.3739210  52.3653329  75.8155151  96.0754488  57.8024285  75.4876291
  97.2185852  57.3637608  75.7934212  95.4197133  58.5837825  76.3523764
  94.6006266  59.0455398  75.9836264  95.8234686  58.8738634  77.7722129
  96.7052443  58.2790837  78.0105567  96.1557545  60.3751400  78.0145325
  95.3755446  60.9042597  77.4673541  96.1457383  60.6915719  79.0575429
  97.5252184  60.6980976  77.3944414  98.5684750  60.0089773  77.6807520
  97.7201309  61.7261362  76.6824437  94.6817163  58.4157666  78.7884339
  93.5034285  58.3361930  78.4255510  95.0894674  58.2702509  80.0641432
  96.0717441  58.4271608  80.2391033  94.2600098  57.8100731  81.1623010
  93.9297013  56.7934269  80.9491674  95.0031562  57.8129822  82.5057901
  95.3791394  58.8251381  82.6550422  94.2648863  57.5832161  83.2740772
  96.2111726  56.7780596  82.6039171  96.9306398  57.0522823  81.8323798
  96.6651403  56.9086699  83.5862390  95.7961970  55.2954381  82.4196957
  96.5491391  54.6788357  82.9105914  94.8352100  55.1579573  82.9153796
  95.6742663  54.8728754  81.0578548  94.7944336  55.0623795  80.5995079
  96.6549087  54.2552356  80.3486781  97.8420596  53.9482655  80.7577391
  98.1207219  54.1713378  81.7025598  98.4853694  53.4867943  80.1306055
  96.3922081  53.8974533  79.0810621  95.4843438  54.0906264  78.6828580
  97.1037151  53.4368540  78.5317855  92.9320973  58.5903347  81.3055672
  91.9657963  58.0715585  81.8967319  92.9052726  59.8391796  80.8338260
  93.7432646  60.2146945  80.4132821  91.7757286  60.7142069  81.0025353
  90.8839198  60.2860004  80.5449161  91.4690278  61.1159717  82.4132687
  91.4750142  60.2242749  83.0401191  92.5005399  62.1109799  82.9353258
  92.4948131  63.0031965  82.3092129  92.2543195  62.3858864  83.9609488
  93.4906590  61.6559068  82.9094095  90.0175375  61.7100230  82.8427941
  90.0315059  61.8599687  83.9223412  89.8968608  62.6718802  82.3444294
  88.8674107  60.8064968  82.4760289  88.9871571  59.8445376  82.9744213
  87.9299831  61.2644385  82.7916521  88.8525135  60.6564473  81.3965091
  92.0169903  61.9279261  80.0932979  93.1431838  62.1038454  79.5937275
  90.9523524  62.6765962  79.7590012  90.0483726  62.4480765  80.1472004
  91.0492850  63.8343553  78.8361042  91.4923460  64.6680411  79.3808649
  91.7000706  63.5557155  78.0072874  89.7233478  64.2586318  78.2920039
  88.9402967  63.3828374  78.0036758  89.4949549  65.5170710  78.0099656
  90.2094830  66.1903686  78.2470713  88.2167544  66.0196107  77.3999482
  87.3489176  65.4376478  77.7102346  88.0560123  67.5163619  77.9561514
  88.3786832  67.5186911  78.9972936  88.7138097  68.1590209  77.3710088
  86.6615148  68.0241981  77.8687427  86.4613489  68.1671202  76.8068540
  86.0276358  67.2250898  78.2530933  86.3529989  69.3539087  78.6423496
  85.2718826  69.4829651  78.6936432  86.7566833  69.2702672  79.6513800
  86.9576443  70.5765246  77.9764784  87.7246767  71.0313148  78.4507427
  86.5101223  71.1093147  76.8033498  85.4205966  70.7808409  76.2456234
  84.8275120  70.0844325  76.6738358  85.1506095  71.2170456  75.3756049
  87.1874013  71.9362318  76.2115050  88.0773557  72.2225396  76.5937472
  86.8539344  72.3293634  75.3429740  88.2497505  65.9654582  75.8499115
  89.3155223  66.2340917  75.3300852  87.1840057  65.7324514  75.1158544
  85.9273461  65.3467930  75.6600128  85.7011159  66.0366355  76.4730549
  86.0429538  64.3395903  76.0603586  84.8758523  65.4123207  74.5081674
  84.2501927  66.2961941  74.6323321  84.2510323  64.5194603  74.5305648
  85.6834994  65.4789645  73.2171097  85.2656401  66.1701368  72.4851442
  85.7721613  64.4882646  72.7712932  87.1037345  65.9878535  73.6866170
  87.8918997  65.3957705  73.2215025  87.2553971  67.4432390  73.2763761
  86.3684749  68.2082560  73.7440544  88.0668364  67.8994698  72.3597335
  88.4974964  67.1487091  71.8391667  88.3433357  69.2827163  71.9457827
  88.6533518  69.8822614  72.8016652  89.4761067  69.2806859  70.9130897
  89.1373808  68.7366964  70.0313645  89.6954756  70.3129852  70.6404444
  90.6526651  68.6656382  71.4267545  91.3402501  68.6809960  70.7569852
  87.1324823  69.8146856  71.2293920  86.7041654  69.2164188  70.2494693
  86.6044310  71.0095219  71.4931683  86.6890547  71.3461782  72.4416411
  85.7590292  71.7667166  70.5571583  84.7999446  71.2554503  70.4743167
  85.5024423  73.2364928  70.9974514  86.4682195  73.6391514  71.3028031
  85.1521782  73.7662521  70.1115788  84.4675472  73.4226729  72.1606480
  84.1488857  74.4559117  72.2983912  83.6447943  72.8417420  71.7438793
  84.8824968  72.8222196  73.5313360  84.1858579  71.8385027  73.9599784
  85.9580294  73.1869039  74.0556261  86.1839748  71.7338161  69.0388221
  85.2333553  71.5404021  68.2744899  87.4885850  71.8153291  68.6630657
  88.1137581  72.2774802  69.3077938  87.9293561  71.6410966  67.2622917
  87.0365842  71.6504975  66.6370164  88.8717132  72.7631528  66.7910602
  88.8758010  72.7609045  65.7010701  88.4443471  74.1446437  67.2969369
  88.4404691  74.1478044  68.3869252  89.1443452  74.8974294  66.9344242
  87.4437297  74.3729996  66.9298962  90.1436841  72.5614552  67.2735466
  90.7169044  73.2693440  66.9703761  88.2694215  70.1697803  66.9180349
  88.9669287  69.9128716  65.9402647  87.9475563  69.1553097  67.6917249
  87.3484958  69.4289431  68.4574602  88.3361517  67.7399487  67.5811084
  87.9123841  67.2644180  68.4656370  87.8200554  67.3776851  66.6920026
  89.8351594  67.3691996  67.4793988  90.7780976  68.0988826  67.8739560
  90.1411043  66.1378729  67.0604510  89.3668873  65.5666656  66.7531894
  91.5129713  65.5221847  67.0921207  92.1556153  65.7555466  67.9410319
  91.3580209  63.9653717  66.9660673  90.6649891  63.7884353  66.1435706
  92.6892815  63.1788340  66.7057395  93.3826884  63.3549199  67.5281028
  92.4740224  62.1126684  66.6346389  93.1378740  63.5213765  65.7732544
  90.5321991  63.3388134  68.1664910  91.1906504  63.2999576  69.0342657
  89.6962376  64.0064981  68.3749736  89.9960948  61.9222051  67.8635469
  90.8315657  61.2537998  67.6554063  89.4407202  61.5514115  68.7250400
  89.3371543  61.9603401  66.9961122  92.3957204  66.1095266  66.0072408
  91.8992134  66.4414489  64.9490147  93.6770396  66.3547447  66.2282525
  93.9904573  66.1528741  67.1669308  94.6607094  66.8812024  65.2592092
  94.5095395  66.8728138  64.1797758  94.9949863  68.3235193  65.7230593
  95.0179394  68.3057968  66.8126737  96.3261021  68.8806453  65.1916731
  96.3037250  68.8991094  64.1020590  96.4733775  69.8926874  65.5687427
  97.1460879  68.2456112  65.5270149  93.8505830  69.3370084  65.6660176
  93.6463212  69.5172945  64.6106149  92.9865242  68.8575631  66.1260546
  94.1271499  70.6679738  66.3658517  94.9908541  71.1482598  65.9060252
  93.2569843  71.3173302  66.2696887  94.3310595  70.4885279  67.4214652
  95.8831864  65.9426599  65.3237686  96.3169863  65.5955517  66.4354567
  96.4168396  65.5625278  64.1360725  95.8613835  65.5681974  63.2925468
  97.8092564  65.1346781  64.0447976  98.3403501  65.4352532  64.9479549
  97.8489354  64.0500215  63.9445718  98.4856232  65.7681311  62.8390206
  97.9292430  65.8921073  61.6998340  99.7011600  66.1643428  63.0862928
  99.9809914  65.8272226  63.9963168 100.6170100  67.0668541  62.3626740
 100.5308845  67.0955636  61.2764616 100.5954833  68.5292667  62.9270576
 101.4939690  69.0483553  62.5933348  99.3522366  69.2875107  62.4324854
  98.4532894  68.7692393  62.7662358  99.3586729  70.2997447  62.8367645
  99.3623415  69.3317169  61.3434295 100.8548939  68.6376050  64.3887300
  99.8852219  68.5942479  64.8846707 101.4452086  67.7652894  64.6692537
 101.6097656  69.9439278  64.8283597 101.0198011  70.8167147  64.5485653
 101.7540394  69.9346783  65.9087294 102.5797874  69.9877572  64.3331461
 102.0055370  66.4633374  62.3287747 102.3168327  65.6390985  63.2697525
 102.7555816  66.6686909  61.2516693 102.4098033  67.2079702  60.4708271
 104.1155681  66.0530944  61.1421625 104.5547853  65.7382320  62.0887612
 104.0533799  64.8215062  60.1556249 103.7930018  65.1231591  59.1410762
 105.4922310  64.2471145  60.1700396 105.7531717  63.9447929  61.1842448
 105.5454273  63.3823437  59.5086454 106.1918095  65.0095300  59.8273858
 102.9166008  63.8489478  60.5366541 103.0223082  63.6944683  61.6104617
 101.9952424  64.3963632  60.3378209 102.8672394  62.5068318  59.8362792
 103.7881315  61.9586072  60.0350435 102.0169483  61.9341898  60.2066647
 102.7610680  62.6605024  58.7624018 105.1500298  67.0842191  60.6665493
 105.0672891  67.6329387  59.5076983 106.2067335  67.2535108  61.4695242
 106.1720784  66.7064613  62.3178373 107.2998916  68.1570247  61.2899300
 107.0224510  69.2007056  61.4377681 108.3056011  67.7416115  62.4177337
 107.9499648  68.0678047  63.3950873 108.3898466  66.6549307  62.4064389
 109.7074657  68.3759621  62.1349194 109.8327569  69.5786658  61.8001736
 110.6734104  67.6773462  62.2828476 107.8401692  68.0504972  59.8290187
 108.0997415  66.9276398  59.4181945 108.2059402  69.1310914  59.1003392
 107.8971326  70.5702527  59.3733639 108.6500625  70.9505739  60.0636919
 106.9152181  70.6201775  59.8439492 107.9309594  71.2756847  58.0247044
 108.1376071  72.3435750  58.0954578 107.0319438  71.1188161  57.4286637
 109.1055114  70.5233205  57.4386919 110.1017861  70.8060705  57.7786742
 109.0466342  70.6340460  56.3559301 108.8102451  69.0561091  57.8365583
 108.0315056  68.6354414  57.2003966 110.1126713  68.2633426  57.6430121
 110.3049442  67.7602399  56.5952579 110.9847195  68.1432008  58.6653099
 110.8342901  68.8033163  59.4147883 112.1368249  67.3045024  58.7240412
 112.5171702  67.1652825  57.7120854 113.2501716  67.8855341  59.5870316
 112.8892591  67.8583215  60.6151856 114.1024952  67.2139763  59.4838095
 113.6770276  69.3041499  59.2368372 112.7333745  69.8378875  59.3497256
 114.3916010  69.6707102  59.9738024 114.2226723  69.5357987  57.8490629
 114.3601147  68.6428894  57.0025012 114.6458542  70.6582634  57.6070628
 111.8445917  65.8292880  59.1429254 112.7475512  65.0059195  59.2492524
 110.6377895  65.4337123  59.4198071 109.9039356  66.1263764  59.3776853
 110.3043020  64.0896767  59.9386523 109.2958063  64.1064928  60.3518748
 110.3646681  63.0404824  58.8581949 111.3755780  62.8599247  58.4927372
 109.9115418  62.0943926  59.1543211 109.4224086  63.6232638  57.4473947
 109.6371165  62.5543498  56.6856719 111.1122347  63.6747821  61.1556191
 111.4048419  62.5104742  61.4602371 111.4203553  64.5831383  62.1041515
 111.4131957  65.5513647  61.8167742 111.8939556  64.2588868  63.4729165
 112.6029396  63.4339031  63.4033269 112.5764885  65.4308657  64.1737162
 111.7607525  66.1260990  64.3720206 112.9259730  65.0039605  65.1137761
 113.7319345  66.1789277  63.4903116 114.6365081  65.5798226  63.5948133
 113.4900609  66.2894413  62.4332468 113.9570042  67.5351888  64.0967317
 113.6333427  67.5506620  65.1374540 115.0094654  67.8130331  64.0399198
 113.1546216  68.5380598  63.3304199 112.1796372  68.2858352  63.2536902
 113.5681204  69.7160976  62.7782137 114.7658546  70.2208755  62.7270191
 115.5404641  69.7177922  63.1356601 114.9156177  71.1135306  62.2788700
 112.6496243  70.4456247  62.1807856 111.6934719  70.1217649  62.1493605
 112.9053007  71.3258445  61.7565907 110.7767299  63.6907594  64.2940664
 111.0800092  63.0307092  65.2735512 109.5047574  64.0331490  63.9739647
 109.3169655  64.6717155  63.2143158 108.3541439  63.6197858  64.8642396
 108.3251125  62.5316174  64.9203275 108.4875270  64.1877108  66.3040911
 107.5480783  63.9775854  66.8153470 109.2947125  63.6375298  66.7876742
 108.7785721  65.6770642  66.3722095 109.7409500  65.8570990  65.8931303
 107.9962951  66.2012324  65.8232173 108.8353916  66.3220909  68.1293279
 110.1364629  65.1646206  68.7083789 111.0419599  65.3109849  68.1195227
 110.3522987  65.3561895  69.7594816 109.7890027  64.1382245  68.5905498
 106.9287914  63.9322596  64.2146464 106.7040131  64.9256620  63.5953198
 105.9780754  63.0037490  64.4244965 106.3217684  62.0642257  64.5633144
 104.5178124  63.2294240  64.4683239 104.1447223  63.8721458  63.6709460
 103.7963484  61.8672342  64.4103011 104.0556275  61.2436854  65.2659072
 102.2549767  62.1997799  64.4503844 101.9948333  62.8229618  63.5947733
 101.6817871  61.2734461  64.4121738 102.0216528  62.7330606  65.3719433
 104.1776258  60.9740303  63.2307883 103.7468458  61.4187209  62.3336932
 105.2648864  60.9833085  63.1541223 103.6928964  59.5430293  63.3682310
 102.6056143  59.5329090  63.4444880 104.0006605  58.9690849  62.4941782
 104.1236535  59.0974971  64.2649189 104.2135926  63.9630277  65.8041791
 104.7133349  63.4598505  66.8451633 103.5548498  65.0917433  65.8080443
 103.5106175  65.5424230  64.9052538 102.9040643  65.7405316  66.9350945
 103.2117722  65.2177628  67.8407036 103.2575815  66.7709110  66.9730833
 101.4038455  65.7410069  66.8567350 100.7994237  65.7211548  65.7553562
 100.6658959  65.5936067  67.9427909 101.2026897  65.8338618  68.7639055
  99.2280322  65.2173513  68.1200166  98.6512282  65.3671905  67.2073586
  99.2222416  63.6944812  68.4699981  99.6635628  63.5430650  69.4550910
  98.1367277  63.6301416  68.5449663  99.7262998  62.6273992  67.5222897
 100.7899442  62.7701946  67.3315777  99.5019535  61.2474203  68.1766534
  98.4384154  61.1036989  68.3672570  99.8596002  60.4649252  67.5074068
 100.0492046  61.1978241  69.1180125  98.8667058  62.4470645  66.2931906
  98.8287716  63.3826700  65.7352454  99.2920368  61.6658917  65.6631399
  97.8581979  62.1623293  66.5930849  98.5163318  65.9426069  69.3212767
  99.0806086  65.9823591  70.3929676  97.4011238  66.5254935  69.0402013
  97.1777920  66.7299050  68.0766463  96.4134704  66.8965080  70.0860674
  96.8915360  66.8050095  71.0613523  95.8904264  68.3101255  69.9340424
  96.7640885  68.9577169  69.8602919  95.3384527  68.3371190  68.9945232
  94.9728734  68.8068962  71.0888551  94.1872949  68.0596454  71.2010317
  95.5898388  68.8223894  71.9873068  94.3287292  70.2091620  70.8775688
  94.1363099  70.6966447  71.8333065  94.9719712  70.8448223  70.2690664
  93.0866445  70.0303782  70.1970756  92.6672904  69.1186994  70.3114580
  92.4752766  70.9216604  69.3991043  92.7659868  72.1824760  69.3641677
  93.4932121  72.5466919  69.9629916  92.2642300  72.7961258  68.7382493
  91.5063140  70.5777110  68.6457097  91.1875826  69.6193232  68.6439318
  91.0619253  71.2652149  68.0541391  95.1773943  66.0090430  70.0683019
  94.3659349  66.0640734  69.1165696  95.1100214  65.0414763  70.9216140
  95.9011117  65.0535387  71.5494118  94.0838874  63.9543181  71.0882662
  93.5820804  63.7183468  70.1498599  94.8785037  62.6803374  71.5688609
  95.3759860  62.9031624  72.5127675  94.1220640  61.9122436  71.7298918
  95.9007730  62.1805109  70.5641555  96.7660373  62.8410520  70.5084435
  96.3541449  60.7600939  71.1080805  95.4894365  60.0988134  71.1636348
  97.0956108  60.3319033  70.4335570  96.7891940  60.8726720  72.1011358
  95.3442320  61.9672325  69.1125872  94.9606850  62.9120567  68.7274921
  96.1446847  61.6096228  68.4649052  94.5401819  61.2316565  69.1356168
  92.9992549  64.3242405  72.1026545  91.8055132  63.9101632  72.0091996
  93.2894139  65.0566676  73.1986565  94.2797051  65.1930247  73.3429802
  92.3420528  65.7066033  74.1455607  91.2983250  65.5137714  73.8974733
  92.6494508  65.0616284  75.4850799  93.6422203  65.4143470  75.7645393
  91.9192419  65.4213397  76.2099955  92.6385774  63.5369850  75.4669567
  91.4283777  62.8526931  75.4728155  90.5054520  63.4278240  75.3984374
  91.3795112  61.5129581  75.5673620  90.4105981  61.0251481  75.6739011
  92.5269611  60.7628964  75.5556527  92.5311271  59.4266103  75.6387686
  91.6497553  59.0522796  75.7070313  93.8129926  61.4172338  75.4229623
  94.7283101  60.8416135  75.2852833  93.8679341  62.8572773  75.4759261
  94.8316346  63.3646494  75.5201395  92.5436151  67.2317630  74.3075501
  93.6529612  67.7242469  73.9767694  91.5652161  67.9637339  74.7354042
  90.6708834  67.5342110  74.9245559  91.7000154  69.4100264  74.9426557
  91.8416716  69.9181095  73.9887772  90.4182542  69.9536386  75.6048181
  89.6283781  69.7179436  74.8916260  90.2161842  69.4493402  76.5497788
  90.4648511  71.5024623  75.8391937  89.9156299  71.9463838  76.8837131
  90.9499182  72.2748785  74.9849443  92.9137461  69.8480159  75.8478363
  93.2300205  69.3052962  76.9147036  93.7111999  70.8049204  75.3298719
  93.3982979  71.0218344  74.3943827  94.8400229  71.5094222  75.8462146
  94.8953666  72.4182033  75.2469207  94.5611477  71.7653161  76.8683918
  96.2024457  70.8424984  75.8585009  97.0791744  71.4332707  76.5189793
  96.2714198  69.6252739  75.2781002  95.5506093  69.3015234  74.6490396
  97.3585826  68.7448265  75.5739084  98.0851781  69.2106562  76.2396117
  96.7606272  67.5396512  76.2759054  95.8875833  67.3239844  75.6599660
  97.4561777  66.7019412  76.2253935  96.3152269  67.7538036  77.7471207
  95.6761418  68.6365676  77.7670891  95.5493553  66.5477962  78.3507080
  96.1880087  65.6647039  78.3315055  95.2710832  66.7719822  79.3804682
  94.6499442  66.3578996  77.7649611  97.3261667  68.1244769  78.8157497
  97.8040884  69.0681691  78.5528134  96.8195703  68.2292865  79.7751642
  98.0822469  67.3426874  78.8881852  98.1523885  68.3018463  74.3084197
  97.4990130  68.0086159  73.3065088  99.4493638  68.3156997  74.2428599
  99.9680146  68.5620157  75.0737805 100.1852121  68.0769398  73.0209143
  99.4840087  67.7296779  72.2620849 100.9377327  69.3721998  72.4660376
 100.2552879  70.1971490  72.2615209 101.6339342  69.6637125  73.2524369
 101.7434546  69.1743927  71.2385643 101.1281640  68.7864083  69.9956280
 100.0484343  68.6405134  69.9640334 101.8929251  68.5969294  68.8414205
 101.4228329  68.1991663  67.9420326 103.3107160  68.9279248  68.8362227
 103.9254833  68.8520610  67.9393360 103.9018842  69.3731371  70.0867795
 104.9582179  69.6404256  70.1153462 103.1183946  69.4610273  71.2605313
 103.5799464  69.7553034  72.2031190 101.2049663  66.8973104  73.2583944
 102.1734246  67.0419337  73.9989095 101.0874993  65.8389971  72.4848852
 100.2184557  65.6938284  71.9911357 102.1006609  64.7921650  72.4234666
 102.9278675  64.9936529  73.1040775 101.3927233  63.4414664  72.8704874
 102.2140646  62.8993864  73.3391524 100.7031020  63.7905667  73.6390259
 100.6599247  62.5205090  71.9151143  99.7467990  63.0205114  71.5921596
 101.3015852  62.3438425  71.0518861 100.3050401  61.1834451  72.5684495
  99.7971638  60.5705287  71.8238059 101.2346800  60.6978358  72.8651864
  99.3919450  61.3512504  73.8083675  99.7709483  62.1909815  74.3908696
  98.3867055  61.5796689  73.4542236  99.3508453  60.1053388  74.6822662
 100.2821596  59.8937563  75.0108788  98.7438348  60.2685282  75.4728404
  98.9992771  59.3272049  74.1428160 102.8153874  64.6916318  71.1103276
 102.2916563  65.1846364  70.1100871 104.0166323  64.0390169  71.1595052
 104.4724078  63.9983090  72.0599001 104.7705759  63.5625017  69.9624592
 104.1931172  63.5076754  69.0396186 105.9598276  64.5619204  69.7506581
 106.5748844  64.1096133  68.9726976 105.6234761  66.0183247  69.3591311
 105.0087792  66.4714738  70.1368873 106.5463231  66.5876832  69.2482945
 105.0777146  66.0246645  68.4156239 106.8754224  64.6479617  70.9633666
 107.2979600  63.6648241  71.1707419 107.6810535  65.3539184  70.7616656
 106.3039153  64.9868488  71.8274477 105.1811674  62.1283021  69.9308002
 105.6885964  61.6009286  70.9019887 105.0754826  61.4763517  68.7907662
 104.5922027  61.9739211  68.0566242 105.6645474  60.1827146  68.4758063
 105.9131783  59.6019007  69.3640276 104.6017279  59.3665659  67.5809421
 104.3099295  59.9047196  66.6790859 105.3915992  58.0873385  67.1876805
 105.6833587  57.5483738  68.0890650 104.7624191  57.4468394  66.5696238
 106.2838305  58.3682652  66.6281247 103.2818021  59.0783468  68.3285801
 103.4774116  58.3752751  69.1382269 102.8962249  60.0101087  68.7424032
 102.2193154  58.4624301  67.3447663 102.6040189  57.5303392  66.9308707
 101.2940712  58.2645315  67.8859304 102.0228340  59.1651724  66.5350453
 106.8831843  60.5273965  67.5931923 106.7398998  60.8540341  66.4019062
 108.0765751  60.5108575  68.1746507 108.3220182  60.4946459  69.6628042
 107.6120058  59.8039231  70.1176500 108.1481568  61.4994469  70.0478316
 109.7791769  60.0438953  69.8397941 109.8473721  58.9712910  70.0213665
 110.2680219  60.5812421  70.6524381 110.4008000  60.4280327  68.4675273
 111.1129430  59.6323884  68.2486632 110.9262398  61.3817393  68.5170885
 109.3169388  60.4799123  67.3676826 109.4232009  61.4158845  66.8192642
 109.2372108  59.3075522  66.3708304 108.7476814  58.2255830  66.6718909
 109.7389802  59.6364308  65.1571087 110.1326439  60.5537292  65.0031873
 109.5913759  58.7308240  63.9931953 108.7343957  58.0644142  64.0910837
 109.3519599  59.6780870  62.7668680 110.0218828  60.5247654  62.9166622
 109.6539057  59.1299926  61.8743875 107.9228845  60.1850677  62.5929629
 107.5351444  60.5463886  63.5454364 107.9408199  61.3243649  61.5892228
 108.3280333  60.9636753  60.6362970 106.9280047  61.7022823  61.4496358
 108.5793158  62.1261089  61.9602079 107.0153927  58.9943050  62.0891852
 107.0333436  58.1878188  62.8222317 105.9915726  59.3458843  61.9615698
 107.3941728  58.6263778  61.1356370 110.8037843  57.7125552  63.8476230
 111.0323252  57.3353101  62.6684211 111.5500217  57.3775344  64.8627313
 111.4047113  57.8815528  65.7258360 112.6470154  56.3636400  64.8102735
 113.4907663  56.7387328  64.2310594 113.1289051  56.0751852  66.2608424
 112.3684654  55.3944224  66.6434555 114.0916716  55.5648965  66.2328053
 113.2231955  57.2591999  67.1480310 113.4682472  58.3709166  66.6761438
 113.1236440  57.0468180  68.3934584 112.2964154  55.0407926  64.1099882
 111.2832634  54.4258577  64.4504867 113.1354642  54.6941737  63.1365826
 113.8965427  55.2424257  62.7620448 112.8049464  53.4325323  62.4831111
 111.7763534  53.4636095  62.1237646 113.7020528  53.1885309  61.3299141
 114.7087502  52.9934874  61.6995324 113.3427770  52.3189298  60.7796280
 113.7266009  54.4033462  60.4026481 112.7372005  54.6008130  59.9901019
 114.0842234  55.2891604  60.9275685 114.6947429  54.0582105  59.2649692
 114.9788976  54.9268104  58.6709242 115.5924607  53.5464468  59.6118122
 113.9341996  53.1468001  58.4238112 113.1976632  52.6241004  58.8759158
 114.1156813  52.9836406  57.1867577 114.8093712  53.7305889  56.4217377
 115.2759793  54.5421115  56.8009579 114.8891546  53.5074104  55.4399405
 113.5904557  51.9710738  56.5905199 113.0350672  51.3114589  57.1164020
 113.7361925  51.8409302  55.5996001 112.7541019  52.1361026  63.2890322
 112.1306779  51.1965557  62.8029497 113.2098199  52.1025559  64.5643901
 113.8722058  52.8482882  64.7232220 113.0119412  51.0948603  65.6392602
 112.6716573  50.1439839  65.2292112 114.3592480  50.8762311  66.3260963
 114.2661004  49.9884956  66.9516748 115.1274070  50.7090429  65.5710599
 114.7570317  52.0928526  67.2092142 114.0953017  53.1773792  67.2982171
 115.7940830  51.9873754  67.8378422 111.8227376  51.4490242  66.5955576
 111.7486388  50.7840282  67.6023062 110.9928825  52.4946750  66.3193857
 111.3134703  53.2274042  65.7025949 109.7690790  52.7283617  67.1039126
 109.8101015  52.2002647  68.0565562 109.6649793  54.1546932  67.3673946
 110.6376296  54.3681777  67.8106496 109.5167169  54.7903141  66.4944086
 108.6083153  54.4661021  68.3671229 107.9087388  53.5976935  68.9211222
 108.2566498  55.6883949  68.5766478 107.5387351  55.8946554  69.2564675
 108.7006883  56.4340574  68.0600067 108.6324976  51.9700552  66.4492555
 107.7718828  52.5250323  65.7783899 108.5958890  50.6777602  66.6826120
 109.4157773  50.3574500  67.1778734 107.6486172  49.6853743  66.2042549
 107.4924765  49.8169720  65.1335536 108.1682022  48.2633155  66.4528137
 108.0805694  48.0541454  67.5189598 107.5373997  47.5717212  65.8943466
 109.6592459  48.0856120  66.0070692 109.7250591  48.5051999  65.0032189
 110.2522743  48.6907247  66.6928228 110.2029112  46.6349646  65.9967134
 109.9247980  46.2216780  66.9662216 109.6416679  46.1280927  65.2117380
 111.7311895  46.4251707  65.7612777 111.9890860  46.7932382  64.7682438
 112.2846225  46.9889844  66.5122272 112.0794420  45.0083730  65.8612851
 111.5670485  44.4858116  65.1652376 113.0708405  44.8936300  65.7061621
 111.8409428  44.6672239  66.7815212 106.2890439  49.9412814  66.7512996
 105.3014200  49.6131670  66.0801364 106.1558804  50.4697401  67.9936332
 107.0045502  50.8229430  68.4120905 104.8915133  50.4761522  68.8225095
 104.0819338  49.9446440  68.3223303 105.2175101  49.7479508  70.1430695
 105.9517989  50.3395526  70.6898113 104.3019493  49.6735738  70.7298546
 105.7654346  48.3757801  69.8972540 105.0144132  47.7635711  69.3979867
 106.6300218  48.4938121  69.2440644 106.1986556  47.6917814  71.1994269
 107.2663221  47.0915306  71.2936246 105.4085441  47.8171232  72.1676781
 104.3037211  51.8657460  69.0527364 103.5637712  52.0420206  69.9896560
 104.7824283  52.9005982  68.3255024 105.5854869  52.6825448  67.7530961
 104.3394962  54.3221862  68.4101239 104.9744752  54.9345883  67.7699173
 102.8799595  54.4893815  67.9586003 102.2396165  53.8386571  68.5540983
 102.6122264  55.5297012  68.1434081 102.6877957  54.1649235  66.4482745
 102.8197411  53.0946629  66.2894245 101.2339591  54.5908682  65.9891151
 101.1014172  55.6611614  66.1472414 101.1046877  54.3616360  64.9313617
 100.4932867  54.0435150  66.5721326 103.6122822  54.8691672  65.3901330
 104.6534266  54.6170679  65.5915375 103.3439038  54.5301382  64.3895664
 103.4815681  55.9493893  65.4544217 104.6034465  54.9372055  69.8101465
 103.7069935  55.6215377  70.4076751 105.7683111  54.6157433  70.4392400
 106.4702709  54.0970432  69.9310058 106.0645847  55.0117469  71.8747636
 105.1870467  54.8594957  72.5031312 107.2266876  54.1204454  72.4162121
 108.0882538  54.2594584  71.7631590 107.4734230  54.4646691  73.4205685
 106.8525973  52.6210877  72.4630823 105.9137880  52.5153778  73.0067397
 106.7222369  52.2647318  71.4412610 107.9180277  51.8112706  73.1429531
 107.6638336  50.7628572  72.9870241 108.8561192  52.0364819  72.6356430
 108.0670161  52.0736949  74.5996812 108.8526962  51.4318312  74.9982014
 108.3423336  53.1180633  74.7466305 106.8258392  51.8010113  75.2899149
 106.5707683  50.8332155  75.1542318 106.9421672  51.9834068  76.2764744
 106.0977750  52.3959754  74.9210800 106.4753783  56.5182285  71.7516103
 107.2048314  56.8954185  70.8527666 105.8695985  57.2517031  72.6738466
 105.4371213  56.7680689  73.4479014 105.6537831  58.7100906  72.5492486
 106.2205744  59.1386694  71.7227095 104.1633749  58.8830831  72.2607783
 103.5827246  58.4668373  73.0839943 103.9339753  59.9433769  72.1546970
 103.9086540  58.3626232  71.3375568 106.2267380  59.4019951  73.7777550
 106.7945968  58.7520541  74.6318903 105.9274946  60.7199333  73.7933240
 105.5442646  61.1677931  72.9731681 106.1214719  61.5283651  74.9993276
 105.9828285  60.9202695  75.8932498 107.5436192  62.0843621  75.0031460
 107.8183867  62.7180147  74.1598866 107.5437176  62.6773408  75.9177367
 108.6216817  61.0823776  75.1484121 108.9323571  60.6000428  76.4362937
 108.3412920  60.9593642  77.2786892 109.9819362  59.6718274  76.6515371
 110.3455610  59.4580141  77.6566051 110.5545995  59.0235965  75.5447749
 111.2558569  58.1957723  75.6498697 110.1882381  59.4849521  74.2508984
 110.7013562  59.0545993  73.3908946 109.2032842  60.4596296  74.0617675
 108.8914686  60.7308121  73.0531392 105.0974102  62.6821920  74.9135073
 104.8211451  63.2278559  73.7976442 104.5598965  63.1218324  76.0610927
 104.9494595  62.6778301  76.8803618 103.4950137  64.1378430  76.2507453
 103.0126435  64.3003414  75.2868924 102.4330681  63.7500652  77.2659058
 102.8227287  63.5222905  78.2580664 101.8159101  64.6471396  77.3156410
 101.5635816  62.5853987  76.8046909 101.9886041  61.7868452  75.9815328
 100.3984581  62.3794418  77.4333744  99.8026352  61.6152653  77.1485428
 100.1213016  62.9893028  78.1892545 104.2392132  65.4011023  76.7225251
 104.9434240  65.3788916  77.7437673 104.1164600  66.5192150  75.9794762
 103.4402493  66.4251299  75.2351736 104.8623394  67.7632363  76.0799501
 105.6946607  67.8604728  76.7770050 105.3350148  68.1291647  74.6638653
 104.4631458  68.2897761  74.0297132 106.1832696  69.3992256  74.6939175
 107.0556295  69.2392214  75.3275480 106.5091160  69.6431484  73.6827664
 105.5911965  70.2228461  75.0929136 105.9435180  66.8982611  73.8440542
 105.1785612  66.1339069  73.7072898 106.2914071  67.2417963  72.8698590
 107.1149005  66.3107714  74.6234571 106.7676720  65.9665725  75.5976539
 107.5351116  65.4706937  74.0704731 107.8805174  67.0744632  74.7602251
 104.0321482  68.8694542  76.7158947 102.9872380  69.2299395  76.1869768
 104.4187716  69.3163614  77.9505583 105.3709537  69.1192559  78.2236849
 103.5684156  69.9740032  78.8885391 102.6094350  69.4602804  78.9559501
 104.2319993  69.9602368  80.2761270 105.2912618  70.1933543  80.1678751
 103.7575580  70.7123367  80.9064850 104.0744076  68.5600628  80.9327224
 103.0073145  68.3490009  81.0024799 104.5455804  67.8329923  80.2713097
 104.7047954  68.4667733  82.3247948 104.1501920  69.1247756  82.9937844
 104.6136781  67.4371742  82.6708048 106.0936174  68.8423094  82.3555821
 106.2627384  69.8298730  82.4829227 107.1446313  68.0316576  82.1789458
 106.9641200  66.7598924  81.8919720 106.0271305  66.3931631  81.8044493
 107.7634277  66.1566082  81.7606132 108.3200456  68.4773147  82.3459725
 108.4580983  69.4419461  82.6115432 109.1124986  67.8654849  82.2126255
 103.2241171  71.4650011  78.4464342 104.0972373  72.2935283  78.3672908
 101.9373336  71.8275554  78.4148633 101.3045979  71.0615734  78.2331590
 101.3858017  73.2042427  78.4406798 102.0943007  73.8541250  77.9270833
 100.0044289  73.3574898  77.7743055  99.4363373  72.5235067  78.1864261
  99.5476641  74.2968215  78.0859492 100.0008972  73.2717546  76.2572423
 100.8652747  73.8674972  75.9639115 100.0552602  71.8880930  75.5384499
  99.1908982  71.2919198  75.8309471 100.0439408  72.0381959  74.4588937
 100.9689764  71.3661048  75.8226179  98.8000641  73.9864990  75.6825584
  98.8271206  75.0362127  75.9749085  98.8183086  73.9121072  74.5952525
  97.8872782  73.5275107  76.0623618 101.4113290  73.7963331  79.8585276
 101.1439087  73.0933237  80.8045245 101.6708224  75.0831138  80.1136054
 102.0515498  75.7055513  79.4152376 101.3811241  75.6118572  81.4026164
 101.5187901  74.8623358  82.1819526 102.3705216  76.7658860  81.6494503
 103.3741957  76.3910310  81.4488983 102.1332875  77.5627744  80.9446177
 102.3052452  77.3223337  83.1030372 103.1312657  78.0218196  83.2315302
 101.3597589  77.8523574  83.2180581 102.4014521  76.2338293  84.1445214
 103.4051973  75.4887991  84.0170121 101.6120503  76.0087775  85.0838262
  99.9130445  76.1971510  81.5353100  99.3305257  76.2658666  82.6378361
  99.3331091  76.5837840  80.4318795  99.8946148  76.4557355  79.6021721
  98.0378173  77.1547063  80.2882800  97.4865947  77.1135865  81.2277277
  98.2073389  78.6194947  79.8850848  98.7375213  79.1120237  80.7002050
  98.8282990  78.6305844  78.9893250  96.9181964  79.3497489  79.6111914
  97.1382736  80.3214972  79.1691823  96.3720968  78.7393245  78.8919860
  96.0708108  79.5412954  80.8600876  96.5114056  80.1384885  81.8761780
  94.8581611  79.1067633  80.8370322  97.3798055  76.2699389  79.1691320
  97.8979352  76.1650537  78.0938601  96.4318210  75.3966742  79.5834678
  95.9845475  75.5056086  80.4824556  96.0663030  74.2562179  78.7681348
  96.9493432  73.8664280  78.2617724  95.4676248  73.1413000  79.6390610
  94.5196965  73.5919283  79.9331108  95.2763318  72.2704214  79.0121021
  96.2323645  72.7124034  80.8827169  96.1111103  73.4777629  81.6492827
  95.7338228  71.4280656  81.3906850  95.8551780  70.6620549  80.6247872
  96.2974925  71.1448544  82.2795993  94.6781919  71.5225393  81.6452800
  97.6667973  72.6555666  80.7013196  98.0373567  73.6413823  80.4203343
  98.1391489  72.3422205  81.6323403  97.9059764  71.9402217  79.9144435
  95.0746983  74.8347646  77.7469449  93.8508744  74.7339312  77.8574197
  95.6876435  75.4017727  76.6894034  96.6975426  75.4158748  76.6914288
  94.9777525  76.0899493  75.5858991  94.0717547  75.5410566  75.3290256
  94.5876762  77.5071854  76.0064660  94.6135937  77.8445462  77.0426201
  95.3700428  78.0129143  75.4405678  93.2314277  77.9864307  75.4164457
  93.1007101  78.3011496  74.0608945  91.9150223  78.9474747  74.0742102
  91.5911551  79.3471361  73.1132317  91.3391851  78.9849432  75.2757312
  90.4234881  79.3405641  75.5105347  92.2281206  78.4409170  76.1731537
  92.0060927  78.4603968  77.2401239  95.7340394  76.1197233  74.3037722
  96.8886322  76.5961823  74.2946947  95.0851861  75.5478062  73.3036656
  94.2176024  75.0788002  73.5214528  95.6302829  75.4253845  71.9096583
  95.9215308  76.3911154  71.4965752  96.8699101  74.4769031  71.8825548
  97.6711652  74.9790139  72.4247486  96.6154203  73.0953774  72.5082309
  95.8145480  72.5924346  71.9662410  97.5244265  72.4966711  72.4502736
  96.3266447  73.2164048  73.5522915  97.3357356  74.3102288  70.4563022
  97.6102103  75.2825465  70.0472009  98.2015702  73.6485607  70.4312942
  96.5322438  73.8790655  69.8591422  94.4824561  75.0169456  70.9531217
  94.1245865  73.9782476  70.6205772  93.9425881  76.0752806  70.3297674
  94.3664243  76.9806388  70.4739501  92.7880979  75.9864292  69.4480198
  91.9527255  75.3757406  69.7905277  92.2819196  77.4102812  69.1108549
  93.1253004  78.0004950  68.7524460  91.2005131  77.3794328  68.0501899
  90.3565473  76.7897430  68.4080842  90.8691032  78.3960826  67.8387864
  91.5967685  76.9302463  67.1395240  91.9094490  78.1674645  70.4450314
  91.1690607  77.5683285  70.9750899  92.8130414  78.2457593  71.0495892
  91.3392309  79.5796747  70.1866596  90.4353006  79.5021533  69.5825072
  91.1001839  80.0551845  71.1378936  92.0792810  80.1795837  69.6570042
  93.1911923  75.2718988  68.1273306  92.4723706  74.3863534  67.6855212
  94.4142432  75.5480249  67.6761567  94.9765550  76.2360819  68.1562426
  94.9385919  74.9585969  66.4657754  94.5929665  73.9260228  66.4164499
  94.5049053  75.6884328  65.1693238  93.4189982  75.7189604  65.2586165
  94.8942629  76.7056689  65.1277155  94.8793195  74.9638030  63.9268615
  95.0431652  75.4864595  62.8297914  94.9335406  73.7078066  63.9813230
  96.4854969  74.9026163  66.5797799  97.0967528  75.6132820  67.3866916
  97.1495416  74.0419204  65.8252634  96.6399634  73.4288332  65.2051397
  98.6510846  73.8884641  65.9104105  99.0994697  74.8813020  65.9467836
  99.0424442  73.1199139  67.2008930  98.6926688  73.7214830  68.0398633
  98.4445200  71.6444425  67.3187059  98.7942534  71.0421032  66.4802699
  98.7748423  71.1915590  68.2535237  97.3556198  71.6907828  67.3028794
 100.5389915  72.8731800  67.3804665 101.0634200  73.8280466  67.4166139
 100.7092668  72.3303027  68.3101924 100.9138314  72.2848584  66.5429263
  99.3235396  73.1808166  64.6923053  98.7782663  72.2690527  64.0794885
 100.5190719  73.6516619  64.3564536 100.9160506  74.2771771  65.0429213
 101.2900747  73.3544714  63.1767458 101.0438800  72.3502116  62.8318551
 100.9937614  74.3700521  62.0166633 101.1821384  75.3611108  62.4294780
 101.7247620  74.1569512  61.2367106  99.5678178  74.3248351  61.4136093
  98.9142072  74.4169289  62.2810265  99.5078821  75.2344118  60.8159640
  99.1365796  73.1568486  60.5871432  99.9133665  72.9082002  59.8640421
  98.9509464  72.2967019  61.2304062  97.8539474  73.5251046  59.8485091
  98.0460247  74.3926030  59.2171192  97.5501648  72.6834571  59.2260585
  96.7827223  73.8408682  60.8002791  97.0638402  74.6210093  61.3768659
  95.9427346  74.0819170  60.2939035  96.6042899  73.0370124  61.3851525
 102.8052148  73.4283327  63.3721328 103.2573204  74.2548725  64.1459328
 103.5979766  72.6953012  62.6022629 103.1866376  72.0205025  61.9733383
 105.0876961  72.7676149  62.6877299 105.3809807  73.0518423  63.6983229
 105.7339804  71.3956487  62.3505781 105.1749121  70.9708593  61.5168540
 106.7838699  71.4895365  62.0730585 105.6711502  70.3706287  63.4881920
 106.4478275  70.5742699  64.6414515 107.0475486  71.4819000  64.7095846
 106.4633735  69.6561192  65.6752284 107.0421240  69.8777922  66.5718942
 105.7626481  68.4778684  65.5837190 105.7934714  67.7309838  66.3770116
 104.9817505  68.2441302  64.4151834 104.4303754  67.3090384  64.3167514
 104.9193189  69.2016462  63.4005926 104.2794998  69.0362801  62.5337677
 105.6244317  73.8541555  61.7867230 104.9856875  74.1540480  60.7711310
 106.7564658  74.4747173  62.0877480 107.1277042  74.2547165  63.0009189
 107.4895495  75.4804295  61.2434351 106.8283686  75.8273147  60.4493258
 107.9653029  76.7336259  62.0901662 108.4427949  76.1690089  62.8909835
 108.7143197  77.3322714  61.5718060 106.8756760  77.6738100  62.6949514
 106.0886513  77.0488299  63.1169619 107.4355728  78.5945230  63.7843279
 108.2223864  79.2201809  63.3629310 106.6370937  79.2274190  64.1715935
 107.8460883  77.9918493  64.5944895 106.0218704  78.4256302  61.6027636
 105.5119763  77.6959666  60.9737178 105.2840051  79.0615302  62.0919337
 106.6786713  79.0397628  60.9866852 108.7284288  74.9421371  60.5122667
 109.5035483  74.1169703  61.0015227 108.8699454  75.3891054  59.2592809
 108.2156840  76.0935624  58.9497947 109.9161678  74.9338457  58.3088161
 110.0420671  73.8532294  58.3760232 109.4908480  75.2994513  56.8411125
 109.4042522  76.3647675  56.6273328 110.4001011  74.9102129  56.3830162
 108.2729422  74.5620452  56.2670502 106.9445814  75.0269505  56.3374037
 106.7892141  75.9964965  56.8106279 105.8412049  74.3024439  55.8315148
 104.8248903  74.6182609  56.0670275 106.0644710  73.0810238  55.1120157
 105.0498708  72.2905947  54.6403906 104.1783183  72.6392037  54.8415565
 107.4441633  72.7688119  54.7831360 107.6873953  71.9718790  54.0804009
 108.4701449  73.5099832  55.3844728 109.5120068  73.2733890  55.1684938
 111.2635628  75.6216195  58.6093987 111.3231450  76.6752940  59.2293930
 112.4240211  75.1801543  58.0661548 112.4279036  74.3868279  57.4410808
 113.7107843  75.8399641  58.3684075 114.4631418  75.2088817  57.8953405
 113.6602227  76.7964010  57.8480506 114.1103405  76.0853176  59.8209675
 114.8148589  77.0650496  60.0888853 113.7710724  75.1633222  60.7699785
 113.1374883  74.4328520  60.4782875 114.2449464  75.1673503  62.1935744
 114.8071073  76.0778467  62.4011088 113.0417162  75.1104795  63.1357403
 112.3809815  74.2655148  62.9419270 113.3179298  75.1206719  64.1901132
 112.0195168  76.6396540  62.8553855 111.0849153  76.3491704  63.7559617
 115.1478061  73.9698975  62.4119234 115.0687734  72.9096066  61.7725666
 116.1260531  74.1186653  63.2963864 116.1281084  74.9995319  63.7905212
 117.1878439  73.1449160  63.6009133 117.5798941  72.6514937  62.7115707
 118.3285557  74.0156350  64.2351650 118.6483309  74.7480497  63.4939419
 117.9182893  74.5326783  65.1026025 119.5452519  73.1578047  64.6724778
 120.1613204  73.9825291  65.0307936 119.3321616  72.4787739  65.4980756
 120.2964822  72.4229341  63.6406047 119.8816196  71.6514503  62.8241104
 121.5728640  72.4242382  63.7118346 122.1148024  71.9289135  63.0182514
 122.0332560  72.9205885  64.4613524 116.5676745  72.1255856  64.5628184
 116.9846486  71.0019435  64.6277946 115.4050884  72.5108898  65.2758222
 115.0877957  73.4645942  65.1764608 114.7319800  71.6456507  66.2779681
 115.0300756  70.6236121  66.0441407 115.2089550  71.9881427  67.7505393
 114.9096552  73.0054896  68.0025808 114.7515839  71.2909402  68.4525511
 116.2940380  71.9038159  67.8103984 113.1764210  71.6888564  66.0885519
 112.7171893  72.6425656  65.4738138 112.3392118  70.6402723  66.4579217
 112.7263346  69.6309630  67.4673115 112.6986593  70.0855284  68.4576168
 113.7372893  69.2823714  67.2562341 111.6689734  68.5133612  67.2964447
 111.3962676  68.1143005  68.2734202 112.0776678  67.7134629  66.6790040
 110.4718833  69.1769127  66.6094253 109.8447449  69.3047139  67.4917309
 109.9119083  68.6450929  65.8402080 110.9012581  70.5067466  66.0969799
 110.7045435  70.6684784  65.0371476 110.2812325  71.6380056  66.9059659
 110.4987160  71.8231651  68.1186109 109.4352893  72.4998761  66.3042606
 109.0742307  72.1254735  65.4384900 108.9522737  73.8204160  66.7505209
 108.9751437  73.8053817  67.8401769 109.9323633  74.9197067  66.2476669
 109.9128706  74.9539027  65.1583777 109.5071575  76.2743147  66.8063701
 109.5268529  76.2410323  67.8956836 110.1933194  77.0446635  66.4544557
 108.4970979  76.5063599  66.4686791 111.2286877  74.7333262  66.7420820
 111.8008190  75.4291558  66.4102879 107.5699496  74.0575185  66.0801020
 107.3525953  73.9229221  64.8295973 106.6073260  74.3278654  66.9436675
 106.8364721  74.3113206  67.9271906 105.2661862  74.5646271  66.5729629
 105.0055303  74.3721227  65.5322422 104.2866161  73.8089403  67.4967600
 103.2726336  74.1794141  67.3461314 104.3399281  72.3653363  67.1618059
 105.3535690  71.9940133  67.3126437 103.6529258  71.8167101  67.8061178
 104.0525334  72.2226679  66.1201010 104.4445627  74.1552821  69.0156462
 105.3713293  73.7096120  69.3770086 104.4986961  75.2390185  69.1190118
 103.2526921  73.6157486  69.8486071 103.1981945  72.5319486  69.7461019
 103.3954923  73.8742244  70.8978438 102.3255605  74.0613537  69.4881032
 104.9064289  76.0580769  66.5549501 105.5597184  76.8571031  67.2675453
 104.0036392  76.4414140  65.6668058 103.9634527  75.8678539  64.8364364
 103.2074640  77.6530112  65.7047444 103.4957863  78.2779199  66.5500010
 103.4482040  78.4341535  64.4163831 102.9955796  79.4245155  64.4655114
 104.5136246  78.5320983  64.2080903 102.7316735  77.6298479  62.9792407
 103.1212781  78.5467467  62.0981033 101.7457448  77.2442209  66.0237530
 101.3385644  76.1270527  65.7324380 100.9160819  78.1536227  66.5203522
 101.1819492  79.1280007  66.5215565  99.6633424  77.7878648  67.1250961
  99.0550833  77.2302895  66.4128954  99.9144903  76.8822559  68.3904274
  98.8818091  76.8294148  68.7352119 100.2850438  75.8752167  68.1989539
 100.7109291  77.4196606  69.5182423 102.0992447  77.1042813  69.5990853
 102.6206489  76.6210877  68.7727914 102.8085387  77.4354643  70.7966456
 103.8822188  77.2537730  70.8446035 102.1397159  77.9877467  71.9013511
 102.6499615  78.2474968  72.8288635 100.7060082  78.2106732  71.7716814
 100.1803448  78.5779516  72.6530920  99.9917465  77.9712543  70.5668637
  98.9324307  78.2199137  70.5026887  98.8467584  79.0456464  67.4995826
  99.2864376  80.1642532  67.4577974  97.5553178  78.7938374  67.7923219
  97.1885791  77.9155914  67.4542597  96.6318697  79.7398237  68.3935104
  97.1625441  80.6756632  68.5686907  95.3688389  80.0383440  67.5922367
  94.7074408  79.1732536  67.6398849  94.6300687  81.2930168  68.1727435
  95.2907230  82.1586712  68.1250007  93.7317739  81.4894551  67.5874411
  94.3532480  81.1046489  69.2100426  95.7231524  80.2674305  66.1491195
  96.2027169  79.3753808  65.7461712  94.8173199  80.4802224  65.5814163
  96.4066530  81.1130029  66.0720795  96.2895521  79.3673170  69.8047409
  95.8977447  78.2321677  70.0429024  96.2216823  80.3025181  70.7524759
  96.6170110  81.1839320  70.4576470  95.7265211  80.1790372  72.1771980
  94.9334001  79.4357639  72.2584572  96.9420362  79.7143082  73.0570207
  96.3262052  79.1408784  73.7498625  97.7182454  79.0705214  72.6433325
  97.5976892  80.8935710  73.8068655  98.4597101  81.7159169  73.0973153
  98.5775478  81.5413590  72.0278560  99.1702798  82.7504027  73.7209231
  99.6675569  83.5202668  73.1309007  99.2419291  82.7845460  75.1232507
 100.0746992  83.6537862  75.7416668 100.5700103  84.2003802  75.1272553
  98.4312949  81.9053152  75.8968361  98.4097659  81.9384260  76.9861206
  97.6458171  80.9775493  75.2112473  97.0287455  80.2704662  75.7656445
  95.1018969  81.4778217  72.6591610  94.9820498  82.4361369  71.9218838
  94.6759262  81.5223953  73.9351571  94.6212534  80.6560074  74.4513764
  94.0989061  82.7157314  74.5294388  94.5376170  83.6083374  74.0834720
  92.5827829  82.7365669  74.2798529  92.4446559  82.5065188  73.2233975
  92.1633636  81.9322155  74.8841759  91.8694464  84.0508033  74.6135008
  91.8460310  84.0793364  75.7028760  92.4112087  84.9194934  74.2393710
  90.4586530  84.1079117  74.1014631  89.9991439  83.4801744  73.1614470
  89.5927583  84.9631474  74.6127353  88.6469716  84.9915135  74.2594870
  89.8800493  85.5851688  75.3547964  94.5448916  82.8990037  76.0101813
  94.7421280  81.8861485  76.7427379  94.7250996  84.1503816  76.4699013
  94.8525602  84.9311754  75.8420365  94.9228660  84.3752729  77.9158136
  94.4671313  83.5700566  78.4920356  96.4589248  84.4071539  78.2276052
  96.3368610  84.6584849  79.2811860  96.8930553  83.4111719  78.1401370
  97.4187918  85.4630890  77.5412101  98.5730394  85.0856128  77.2223918
  97.1025916  86.7016037  77.5159945  94.0890598  85.6100306  78.2417687
  93.5273725  86.2088916  77.3354151  94.0377190  86.0834991  79.5483684
  94.5089762  85.3862083  80.7400761  95.5396038  85.6982770  80.9089554
  94.4845416  84.3190473  80.5194650  93.6081923  85.7536486  81.8674403
  94.1220919  85.6640576  82.8245086  92.7157241  85.1279116  81.8748680
  93.2541812  87.2005393  81.5604806  94.0345132  87.9206209  81.8067806
  92.3114296  87.5213990  82.0036150  93.1042636  87.0905960  80.0143114
  92.0812807  86.7273464  79.9160564  93.2800554  88.3183097  79.1749943
  92.3647365  89.0895088  79.0254170  94.5286203  88.6971912  78.7444209
  95.3360373  88.2222334  79.1220347  94.7477657  89.8275047  77.8445839
  94.2758958  90.7301177  78.2328206  96.2702218  90.0737268  77.7354791
  96.6464836  89.9248670  78.7475893  96.6333447  89.2724495  77.0918981
  96.7727498  91.4446338  77.1912909  97.8567159  91.5004002  77.0912490
  96.3143046  91.4922455  76.2035343  96.2908111  92.6556870  78.0175374
  95.8017042  92.5673610  79.1567397  96.5682921  93.8096041  77.4763936
  96.2928679  94.6620073  77.9429251  97.0572787  93.8453038  76.5933766
  94.1426212  89.7786653  76.4178250  94.0287578  90.7968878  75.8164938
  93.9748293  88.6139291  75.8321523  94.1910561  87.8175051  76.4144359
  93.5264305  88.3727019  74.4825602  92.4369132  88.3910953  74.5092597
  93.8887427  89.2064527  73.8811546  93.9940266  87.0400814  73.8334766
  94.7223355  86.3706380  74.4816570  93.4362094  86.7153188  72.6466188
  92.6954868  87.3725822  72.4480385  93.6543221  85.5997532  71.7029673
  93.9317562  84.7291707  72.2972868  92.4254753  85.2161106  70.7895458
  91.5375570  85.1855690  71.4210262  92.3105649  85.9986869  70.0395658
  92.6042686  83.8520535  70.0867157  93.3771394  84.0451028  69.3427375
  93.0069268  83.2097109  70.8698916  91.3999115  83.1481024  69.4096767
  90.9377628  83.8091138  68.6764772  91.7244380  82.2311283  68.9178020
  90.4124790  82.8101845  70.4189390  90.6444732  82.9847798  71.3863038
  89.2517413  82.2672188  70.1421825  88.9607867  81.8100764  69.0011495
  89.6392834  81.8552798  68.2543571  88.0510568  81.4015658  68.8411174
  88.3684131  82.2198006  71.0475877  88.5672050  82.5973038  71.9630511
  87.4690724  81.8046897  70.8501843  94.8849823  85.9363035  70.8267029
  94.8878521  86.9435415  70.1383045  95.8284171  85.0472122  70.7667070
  95.5844442  84.0985267  71.0128218  97.1646938  85.3121701  70.3285792
  97.2183878  86.2408019  69.7603723  98.0391561  85.4524837  71.5806402
  98.3571538  84.5758350  72.1449660  98.8955277  85.8769216  71.0566361
  97.5834361  86.5182335  72.6292973  96.9888487  87.8062159  72.4233431
  96.9595783  88.4878651  73.5860724  96.5019345  89.4744543  73.6588934
  97.5885935  87.6985827  74.5470856  97.7360399  87.9274941  75.5196899
  97.9961877  86.4991556  73.9276887  98.5473160  85.7512875  74.4978220
  97.7060086  84.1586656  69.5187225  97.5840283  83.0071508  69.9541745
  98.3882653  84.4035322  68.3780441  97.9352149  85.1372573  67.8522189
  99.4324046  83.5492070  67.6726353  99.1251715  82.5041187  67.7113339
  99.7650290  83.9072533  66.2242303  98.8361740  83.9226044  65.6540621
 100.4359452  85.2389101  66.1190090 101.3651735  85.2241853  66.6885867
 100.6548150  85.4544377  65.0731866  99.7777620  86.0105100  66.5184212
 100.6313691  82.7355743  65.7087768 100.0632352  81.8075231  65.7723918
 100.9115555  82.9190793  64.6715107 101.5311292  82.6526745  66.3184163
 100.6415824  83.2366297  68.6330041 101.2108157  84.2468451  69.0517121
 101.1202632  81.9972010  68.7815372 100.6374795  81.2097150  68.3730214
 102.2713715  81.7285801  69.6774332 102.9595592  82.5727745  69.6346216
 101.8245610  81.5231966  71.1610039 101.1737964  82.3571848  71.4238127
 101.2579827  80.5930578  71.2049445 103.0135715  81.4550932  72.1672727
 103.4410452  80.4524687  72.1567314 103.7763151  82.1777725  71.8773435
 102.5060743  81.7845683  73.5928736 102.1002975  82.7960421  73.5737734
 101.7104355  81.0789099  73.8318392 103.6045580  81.6952171  74.6578318
 103.6730864  80.6641856  75.0047879 104.5527648  81.9906708  74.2087102
 103.3036887  82.5841005  75.8064918 102.4253063  82.3102221  76.2230669
 104.0403287  82.5077368  76.4932451 103.2405698  83.5395784  75.4852799
 103.1151898  80.5086653  69.0617446 102.5721733  79.7317917  68.3003731
 104.4221394  80.4459477  69.4880968 104.7889539  81.1769693  70.0806793
 105.3517305  79.3761245  69.0285157 104.7606037  78.5454129  68.6430465
 106.3137112  79.8353799  67.9401433 106.9573919  78.9798649  67.7355226
 105.7166813  80.3110818  66.6829711 105.0731854  81.1669385  66.8867401
 106.5075042  80.6076520  65.9939540 105.1262645  79.5116981  66.2352053
 107.0575256  80.8960932  68.4877714 107.6813581  81.2204026  67.8341227
 106.1435212  78.7819561  70.1760755 106.4140714  79.4003166  71.1938387
 106.5736532  77.5510950  70.0359884 106.2518237  77.0925919  69.1955718
 107.4704478  76.8306016  70.9081408 108.1800888  77.5072897  71.3841683
 106.6659121  76.1823543  71.9535468 105.9113674  75.7258426  71.3129545
 107.3133103  75.4061184  72.3615092 105.9717709  76.9343612  73.1109317
 106.5865048  78.0803951  73.6804145 107.5690603  78.3923466  73.3263375
 105.9477596  78.8015551  74.6792252 106.3344518  79.7736725  74.9850989
 104.7116223  78.3736553  75.1342068 104.1272559  78.9976585  76.1894223
 104.6570018  79.7174851  76.5398770 104.1168155  77.1812757  74.6744235
 103.1678289  76.8067811  75.0581927 104.8149488  76.4539659  73.6587536
 104.4259578  75.4980644  73.3079852 108.2325100  75.7214316  70.2252844
 107.7250518  75.0181925  69.3825276 109.4406538  75.4662504  70.7900605
 109.7632343  76.1768588  71.4312133 110.3351172  74.3279807  70.4988009
 110.1509894  73.9177563  69.5058699 111.8107678  74.8800862  70.5500350
 111.9045901  75.5697853  69.7112194 111.8940967  75.4331761  71.4855819
 112.9106698  73.8457417  70.4769050 112.6497550  73.2151598  71.3268407
 112.8767503  73.2539747  69.5621590 114.3469236  74.4138879  70.6741515
 114.7899488  75.3342514  69.9163701 115.0688875  73.7697482  71.5354245
 110.0392723  73.1909060  71.5037163 109.9402841  73.4080025  72.6845060
 109.9774937  71.9585514  71.0545131 109.9480741  71.8500196  70.0507927
 109.7927657  70.7887502  71.8732566 109.1040538  71.1092279  72.6549657
 109.1661421  69.5715315  71.1250384 109.8408224  69.2440812  70.3340377
 108.9422120  68.4126665  72.1233635 108.2672183  68.7392378  72.9144613
 108.5044198  67.5619774  71.6010930 109.8968827  68.1185092  72.5594566
 107.8033382  70.0388993  70.6478185 107.9243380  70.8932914  69.9818792
 107.3078237  69.2289621  70.1124991 107.1977032  70.3305860  71.5058546
 111.1047798  70.3728404  72.6249987 112.0427628  69.8797906  72.0125253
 111.1526824  70.5732728  73.9652294 110.3629346  71.1230619  74.2720350
 112.1455369  70.2400473  74.9133168 113.1210799  70.2972383  74.4304666
 112.1450366  71.1854720  76.1434537 112.1487924  72.2093291  75.7695529
 111.2227686  71.0041689  76.6954057 113.2273281  70.9975479  76.9813300
 113.1703220  71.6085247  77.7196101 112.0195104  68.7714305  75.3183884
 111.5709179  68.4993891  76.4402638 112.2882781  67.7853351  74.4698239
 112.8995406  68.1085701  73.7336332 111.7743590  66.4971127  74.3814209
 110.6909667  66.5433116  74.4919918 112.0894584  65.8498132  73.0947004
 111.6907164  66.5650415  72.3752891 113.1741290  65.8037313  72.9974053
 111.4830940  64.4414398  72.8170684 111.6945686  63.8182503  73.6859840
 109.9570821  64.4644549  72.5581302 109.7448547  65.0871182  71.6890222
 109.6041813  63.4500003  72.3725399 109.4461610  64.8724762  73.4302418
 112.1024590  63.6732822  71.6791691 113.1615191  63.5137233  71.8817329
 111.6034975  62.7096445  71.5764999 111.9912322  64.2397739  70.7546072
 112.1211430  65.5413548  75.5307358 111.2273139  64.7991901  76.0071117
 113.3549437  65.5933014  75.9488824 114.0047783  66.1143814  75.3776644
 113.8632405  64.9243554  77.1360465 113.7189282  63.8471027  77.0535862
 115.3490136  65.2053969  77.2805318 115.8008250  65.1327800  76.2912430
 115.4619608  66.2219747  77.6572447 116.0569187  64.2120601  78.2481894
 115.6209994  64.2862727  79.2444663 115.9496702  63.1916291  77.8803302
 117.5496003  64.5791585  78.3132552 118.0936833  63.7639349  78.7902072
 117.9234373  64.7204615  77.2991651 117.7854234  65.8199353  79.0823061
 116.9294238  66.1800247  79.4794201 118.8743967  66.4650408  79.2884133
 119.9910995  66.0215511  78.7693636 119.9860820  65.1785212  78.2131483
 120.8526203  66.5244260  78.9274729 118.8320618  67.5377394  80.0207107
 117.9527564  67.8439490  80.4120644 119.6786618  68.0602029  80.1950638
 113.1750353  65.3081667  78.4363709 112.8039669  64.4934533  79.2883236
 113.0787192  66.5821238  78.6860514 113.4996402  67.2588570  78.0656024
 112.3605560  67.0722534  79.8622311 112.5676516  66.4442243  80.7287125
 112.8312404  68.4996943  80.1677976 112.9832711  69.0072238  79.2152222
 112.0349622  68.9975565  80.7211278 114.1489631  68.5483034  80.9979149
 114.4389803  69.5882802  80.8481187 113.9934581  68.3645274  82.0609972
 115.2751965  67.6155077  80.4704497 115.4649903  66.5509553  81.0707301
 116.0042203  68.1161843  79.5633073 110.8353155  67.1094189  79.6670437
 110.0800015  67.4216129  80.6346695 110.3050820  66.8085922  78.4806569
 110.9577579  66.7845570  77.7102441 108.8650572  66.8213735  78.1752484
 108.6978781  66.8317092  77.0981953 108.2188412  65.5203726  78.7707872
 108.2263922  65.6730839  79.8500098 107.1901909  65.5287653  78.4103592
 108.8708585  64.1554946  78.4383141 108.0468243  63.4873737  78.1879482
 109.4808084  64.3274445  77.5514678 109.7412705  63.5091856  79.5463004
 110.6656213  63.1203860  79.1190891 109.9781183  64.2447442  80.3150371
 108.9325777  62.3432493  80.1775582 108.5004127  61.7076870  79.4046451
 109.5647064  61.7415155  80.8305734 107.9069325  62.9254739  80.9292732
 107.3208189  63.4827522  80.3242844 107.3521543  62.2000023  81.3605645
 108.3071819  63.5141058  81.6458010 108.0395196  68.1059369  78.3797127
 106.9321919  68.0864404  78.8463896 108.6567386  69.2892668  78.0334484
 109.6273263  69.2218386  77.7623169 108.0718456  70.6375087  78.2208195
 106.9881577  70.5680911  78.1264752 108.4017190  71.2228921  79.5719253
 107.7322110  72.0776404  79.6681725 108.1075130  70.4498397  80.2818076
 109.8377330  71.6644691  79.8650321 110.3556364  70.7485580  79.5804558
 110.2009735  72.4912798  79.2546718 110.0972930  71.9541471  81.2913930
 110.6346887  73.0217808  81.5420102 109.9415962  71.0202306  82.1337714
 108.4290370  71.5178148  77.0095076 109.0076676  71.0216985  76.0204210
 107.9802430  72.8307554  76.9566395 107.4462615  73.2257438  77.7175254
 108.2618283  73.6743150  75.7963905 108.5257615  73.0777726  74.9231347
 107.0073737  74.4366336  75.4942547 106.6183728  74.7300490  76.4692854
 107.1497178  75.3245407  74.8782521 105.9000541  73.5950540  74.8099944
 106.1663246  73.1056901  73.4968714 107.1307014  73.1965920  72.9970573
 105.1463996  72.5065204  72.8764596 105.2828896  72.2266235  71.8318884
 103.9198307  72.2323795  73.5283464 103.1793480  71.5582443  73.0978500
 103.6648179  72.8662522  74.7831559 102.6543068  72.8485242  75.1913876
 104.6734308  73.4924133  75.4735712 104.4909076  73.8741457  76.4780938
 109.4151378  74.6335566  76.1092607 109.8565033  74.9486102  77.1996055
 109.9693902  75.1551223  75.0191440 109.6633821  74.7726665  74.1358626
 111.0246559  76.2153926  75.0054310 111.1129528  76.6546310  75.9990972
 112.3706280  75.6387211  74.6089791 112.1287856  74.7141739  74.0847426
 112.9309951  76.2965676  73.9446549 113.2382259  75.3046546  75.8037223
 113.4290820  76.1071296  76.7032626 113.8842354  74.1990940  75.8677961
 114.4567874  73.9983671  76.6752568 113.8175228  73.5341406  75.1105067
 110.6275263  77.3534395  74.0291394 109.6789747  77.1877737  73.2452429
 111.3384344  78.4786217  73.9196960 112.0097290  78.6437837  74.6560277
 111.1434137  79.5377658  72.8918066 110.1536145  79.9847832  72.9843919
 112.2219549  80.6580795  73.1069911 112.2194575  80.9048537  74.1686857
 113.1868955  80.2293845  72.8364171 111.9866815  81.8962586  72.3083793
 111.7442178  81.6157995  71.2833647 111.1500419  82.4438716  72.7422644
 113.2076450  82.7647646  72.3126852 112.9144148  83.7787074  72.0405916
 113.6299123  82.7665159  73.3175666 114.2782797  82.2418125  71.2982846
 115.2333082  82.6036577  71.6791903 114.2429759  81.1554935  71.3805278
 114.1371948  82.6234496  69.9156136 114.1703137  83.6300052  69.8391368
 114.8899145  82.2198830  69.3764966 113.2524951  82.2878816  69.5623436
 111.1538714  78.9413435  71.4911435 112.0636189  78.1511604  71.3223711
 110.3203187  79.3564246  70.5273517 109.5196820  79.8910988  70.8326447
 110.4767761  79.1015216  69.1060106 111.0164328  78.1666151  68.9549485
 109.4975074  79.0358733  68.6318562 111.2772922  80.2574320  68.4525128
 112.2364840  80.7729122  68.9994838 110.9305180  80.6519439  67.2301295
 109.9613217  80.0788497  66.3306610 108.9819555  80.4030937  66.6825246
 110.0439250  78.9968795  66.4336956 110.2549000  80.5438484  64.9375605
 109.4932764  81.2550848  64.6179181 110.2631603  79.6914003  64.2583217
 111.6054232  81.1841348  65.0074568 111.8154334  82.0335737  64.3574966
 112.3456356  80.4030005  64.8342100 111.6456656  81.6168760  66.4385828
 112.6813048  81.5342933  66.7683249 111.2066260  83.0851138  66.4977754
 112.0521652  83.9840146  66.3238013 109.8479597  83.3247455  66.6297920
 109.1560067  82.5987266  66.5106409 109.3810375  84.7141936  66.8100247
 110.1908169  85.3559602  67.1571444 108.8914607  85.2339206  65.4493894
 108.2251176  86.0888514  65.5641914 109.8079109  85.5523527  64.9525794
 108.1970063  84.2643854  64.5026722 108.7411922  83.7613016  63.3816840
 109.7226820  84.1455136  63.1039096 107.9227983  82.8577609  62.8258283
 108.2115232  82.2589762  62.0654373 106.7132947  82.8121143  63.4545399
 105.4676883  82.1727550  63.2632326 105.3910305  81.6570400  62.3060178
 104.4430269  82.2076721  64.2190050 103.4945015  81.6803157  64.1175424
 104.6745456  82.9755116  65.3699731 103.9078206  83.0899056  66.1362279
 105.9040780  83.6200263  65.5676089 105.9758393  84.1460133  66.5196009
 106.9538843  83.6164376  64.6002491 108.3384189  84.9694975  67.8999804
 107.5833273  84.0056187  68.2787156 108.2945321  86.1772397  68.3911247
 108.9344899  86.8490594  67.9921113 107.4243072  86.6152147  69.5455996
 107.6422976  86.0373655  70.4437475 107.7390351  88.1398736  69.8359919
 108.8076521  88.2820803  69.6749515 107.1809301  88.7262308  69.1060576
 107.3761909  88.5929757  71.2272725 106.3513050  88.2740065  71.4169263
 108.0479186  88.0866043  71.9204333 107.4867631  90.1422428  71.4313172
 106.7688572  90.5744011  70.7342166 107.1525555  90.3205971  72.4533712
 108.8918450  90.8100714  71.2163104 109.5835972  90.4499384  71.9778113
 109.2701093  90.5463620  70.2286502 108.7677482  92.2721337  71.3191486
 108.4176615  92.5167282  72.2344150 109.6732507  92.6974433  71.1803070
 108.1271261  92.6060915  70.6133337 105.9247840  86.3732723  69.2512236
 105.4338040  86.5793462  68.1246775 105.1321033  86.1203145  70.3017961
 105.6112993  85.7730191  71.1202437 103.6746369  86.1039870  70.2954637
 103.3238203  85.4450439  69.5012214 103.0774424  85.5659079  71.7248197
 101.9945368  85.5005234  71.6192759 103.4864857  84.5695220  71.8921484
 103.4287725  86.4865156  72.9448826 104.5026306  86.3905102  73.1052347
 103.1824988  87.5308834  72.7531869 102.7246983  86.0516811  74.1765236
 103.1276331  85.2208067  74.9287072 101.5385756  86.5549548  74.4511152
 101.0516158  86.2650690  75.2871402 101.1216899  87.2283451  73.8243352
 103.0347158  87.3894589  69.8231365 103.3829203  88.5152413  70.1390410
 101.9248940  87.2705248  69.0474303 101.6776856  86.3279059  68.7819930
 101.1701896  88.4015463  68.4286591 101.4006128  89.3074181  68.9893733
 101.5043628  88.6409008  66.9532010 102.5884168  88.7300083  66.8825898
 101.1764556  87.7576583  66.4050591 100.8544511  89.8784041  66.3550478
 100.8719534  89.9129881  65.2657368  99.8302413  89.7293086  66.6969016
 101.3884331  91.1878933  66.9117831 100.6799418  91.6670315  67.8125637
 102.5214587  91.5868686  66.5916990  99.6056766  88.2835745  68.6679371
  99.0467650  87.2092606  68.4542311  98.9490534  89.3097238  69.0827727
  99.5029639  90.1251837  69.3025627  97.5307571  89.3621717  69.3256383
  97.2188612  88.5073182  69.9256764  97.1854599  90.6530007  70.0912227
  97.7881628  90.7551684  70.9936695  97.4319483  91.4567110  69.3973977
  95.7547526  90.7689668  70.4614555  94.9604582  91.4954459  69.8534600
  95.2943490  89.9929717  71.4332503  94.3234482  90.0518717  71.7052473
  95.9167118  89.3466213  71.8969273  96.7507774  89.2567785  68.0395540
  97.0639675  89.9371130  67.0324999  95.7774836  88.3841462  68.0036931
  95.6921353  87.7658237  68.7977286  94.8866781  88.1609446  66.8403760
  95.0440400  88.8925687  66.0478720  95.1630498  86.7129081  66.2554905
  94.4647287  86.5766446  65.4297308  96.5765599  86.4631519  65.7679015
  97.2754596  86.5987848  66.5932766  96.6560191  85.4442537  65.3889119
  96.8159865  87.1665853  64.9704318  94.8739881  85.5715241  67.2201515
  93.8239072  85.5982354  67.5112162  95.0917069  84.6204473  66.7341977
  95.4990569  85.6773819  68.1068216  93.4181526  88.3978994  67.1706899
  93.0424077  88.5214761  68.3757433  92.5344747  88.4533309  66.0988813
  92.8902708  88.3395656  65.1604966  91.1094073  88.6810104  66.2726597
  90.9031100  89.7235174  66.5149814  90.4157612  88.3385201  64.9371237
  90.9099371  88.9371736  64.1719417  90.6095468  87.2819030  64.7524412
  88.8582427  88.6044192  64.8893576  88.3343976  87.9209612  65.5576183
  88.6792369  89.6314360  65.2076226  88.3419778  88.4159853  63.4598027
  87.2833195  87.7715207  63.3842121  88.9519031  88.9108066  62.4832609
  90.6027706  87.7665909  67.4240351  91.0474505  86.5850221  67.6255320
  89.6412854  88.2622050  68.2465111  89.2476718  89.1742585  68.0639568
  89.1777572  87.5329743  69.4154590  89.9819180  87.3234856  70.1208234
  88.1652320  88.5462220  70.0890848  87.3493687  88.7586757  69.3981937
  87.7627603  88.1059459  71.0013751  88.6853509  89.4727583  70.3322024
  88.5009541  86.1573960  69.0846869  88.2687749  85.4031970  69.9673775
  88.1766716  85.9056389  67.8188938  88.4518484  86.5999527  67.1389633
  87.4967147  84.7204345  67.3506267  87.1983354  84.0961634  68.1928586
  86.2819342  85.1163280  66.6011157  86.6473177  85.6550104  65.7268071
  85.8225007  84.1799601  66.2845150  85.2386450  85.9768596  67.3341245
  85.9082346  86.8177708  67.5147317  84.3921335  86.3096291  66.7334732
  84.7221621  85.4217250  68.6974748  84.6636278  84.1864283  68.8065877
  84.1722301  86.2709901  69.4455400  88.2315937  83.8089500  66.4024507
  87.6678149  82.7863324  66.0291897  89.4462289  84.2056907  66.0492324
  89.7120199  85.1335199  66.3468688  90.4018810  83.4346094  65.1681918
  90.0030282  83.3848300  64.1550099  91.7289179  84.1966632  65.1345455
  92.1452332  84.2469403  66.1406537  92.4286878  83.6799100  64.4777437
  91.5591821  85.2065822  64.7612458  90.5490664  82.0041286  65.6306213
  90.6085880  81.6103711  66.8071528  90.6063427  81.0905029  64.6505710
  90.6898915  81.3662074  63.6825286  90.5039439  79.6039830  64.9723827
  90.7338272  79.4597589  66.0280590  89.1043938  79.0260888  64.6900021
  88.9114192  79.1237373  63.6216741  89.1173113  77.9704851  64.9613578
  88.0760559  79.6925255  65.4217401  87.2266583  79.2973401  65.2120926
  91.5103116  78.7283780  64.1973788  91.4814692  77.4991146  64.3969018
  92.3005604  79.2062744  63.2933284  92.3213338  80.2016460  63.1233193
  93.1881376  78.3339451  62.4806666  93.4864590  77.4876957  63.0995088
  92.5369986  77.7982918  61.1982363  92.2409130  78.6770466  60.6253292
  93.3243038  77.2657189  60.6647415  91.3446645  76.8879575  61.3754621
  91.7211528  75.9581755  61.8019159  90.6831590  77.3742682  62.0924101
  90.4121069  76.5156198  59.8583073  89.4629074  78.0294513  59.9127056
  90.1381694  78.8840376  59.8702497  88.7818196  78.0626124  59.0623406
  88.8891383  78.0660688  60.8387452  94.4925442  79.0650643  62.0110135
  94.4163217  80.2510280  61.7976515  95.5834888  78.3378836  61.7932177
  95.3741855  77.3543722  61.8880691  96.9641986  78.7308426  61.6068585
  96.9991738  79.6358121  61.0003058  97.6572766  79.0192689  62.9715622
  97.1385179  79.8533031  63.4441886  97.6306225  77.8278320  63.8892881
  98.1496312  76.9934743  63.4175062  98.1259438  78.0796988  64.8270090
  96.5969477  77.5457008  64.0893380  99.1161085  79.3775462  62.6030955
  99.1228177  80.2524840  61.9530641  99.6776295  79.5960720  63.5114128
  99.5774100  78.5369270  62.0847702  97.6825311  77.7319672  60.7418872
  97.4205190  76.5621348  60.7081254  98.4973913  78.2033492  59.7869857
  98.6304956  79.1976188  59.9045042  99.0504126  77.5697553  58.6026094
  99.2473270  76.5048347  58.7261732  98.0906998  77.7838884  57.3899551
  97.8563572  78.8435410  57.2883660  98.7658418  77.3004376  56.1433086
  99.0000945  76.2406764  56.2439694  98.1027363  77.4460328  55.2905520
  99.6866895  77.8622984  55.9869399  96.6949957  77.1559574  57.5398679
  96.4089560  76.7508647  56.5692073  96.7738862  76.3440790  58.2628680
  95.6500287  78.1393267  58.0012113  95.5702343  78.9513127  57.2784309
  94.6879236  77.6342959  58.0872171  95.9351660  78.5445289  58.9720912
 100.5281368  78.0920715  58.4602608 100.6824902  79.3026911  58.4395432
 101.5179703  77.2078321  58.4852450 101.2245867  76.2418445  58.5151343
 102.9709087  77.5040512  58.5456618 103.1828984  78.4709712  59.0019788
 103.6179034  76.4513442  59.3502486 103.4222338  75.4778436  58.9006821
 104.6932205  76.6268140  59.3819299 103.2172157  76.4700715  60.3637563
 103.4914846  77.5961604  57.1249290 103.3948072  76.6739665  56.3268370
 103.9251473  78.8051504  56.7488375 103.8472961  79.5576113  57.4180468
 104.4071504  79.1193471  55.4069606 103.8339229  78.5292796  54.6918875
 104.2166125  80.6025705  55.0812527 104.8391594  81.1761205  55.7679658
 104.5824394  80.9385661  53.6858417 103.9599526  80.3657069  52.9984965
 104.4260691  82.0036933  53.5150995 105.6308934  80.6939072  53.5155839
 102.7907497  81.0160797  55.2294637 102.4668840  80.8442282  56.2559529
 102.6922591  82.0749695  54.9903995 102.1699336  80.4315642  54.5504719
 105.8852252  78.7311798  55.1020949 106.7831415  79.1502662  55.8815062
 106.2271439  78.0597191  53.9779165 105.3751214  77.5064451  52.8926646
 105.2310074  78.2901200  52.1489005 104.4125281  77.2377333  53.3277591
 106.1044031  76.3201150  52.3437849 105.7836207  76.1078972  51.3239019
 105.9362333  75.4419302  52.9671722 107.5535074  76.7441254  52.3892790
 107.9285732  77.2712275  51.5120173 108.1611048  75.8567366  52.5666658
 107.6072940  77.7086935  53.6690190 107.9552223  77.0732888  54.4834544
 108.5608190  78.8912016  53.5035241 108.1828227  79.9348726  52.9756922
 109.8659968  78.6996116  53.8567001 110.0689867  77.8072564  54.2840135
 111.0247700  79.6087752  53.5090680 110.9324422  80.5931144  53.9680354
 112.3257195  78.8804533  54.1122361 112.4197361  77.9550165  53.5440577
 113.1573947  79.5416695  53.8689063 112.3473293  78.5634310  55.6115933
 111.3823316  78.1143882  55.8466272 113.1437838  77.8607702  55.8565978
 112.5284007  79.8534905  56.4371903 111.8619001  80.1718340  57.4664227
 113.3675570  80.7155349  56.0556497 111.3191518  79.6397205  51.9338741
 111.0907632  78.5974938  51.3187147 111.8593357  80.7997834  51.4131127
 112.1177206  80.7648876  49.9608260 111.2684707  80.3007788  49.4593502
 113.0158056  80.1763918  49.7731693 112.2939549  82.2375816  49.5780377
 111.3369988  82.6781262  49.2982978 112.9950664  82.3366525  48.7493465
 112.8628155  82.8893866  50.8654700 112.5551345  83.9310014  50.9575026
 113.9512376  82.8324623  50.8514518 112.3220243  82.0924087  52.0211983
 113.1740328  81.8739062  52.6649657 111.2614150  82.7624261  52.8154801
 111.6096890  83.3754942  53.8263874 109.9870132  82.7862046  52.4894543
 109.6385717  82.2529949  51.7056334 109.0390629  83.6253695  53.2386794
 109.4059043  84.6508324  53.1944924 107.5751507  83.5985835  52.7166358
 107.6016985  82.5135940  52.6156795 106.7607745  83.8810697  53.3837888
 107.2238888  84.1590880  51.3342014 107.9685325  85.1695231  50.7724926
 108.8815013  85.4924974  51.2727680 107.5698477  85.7832694  49.5741842
 108.1738191  86.5599184  49.1049982 106.3165978  85.3603074  48.9564796
 106.0083523  85.7054272  47.9695768 105.5192296  84.5013418  49.6600268
 104.5422869  84.2838669  49.2283002 105.8979137  83.9077989  50.8776689
 105.1882050  83.2882803  51.4259482 108.8575488  83.3367083  54.8358135
 109.2120381  84.1926489  55.6284725 108.5190502  82.0689005  55.1946643
 108.3216252  81.3404448  54.5234899 108.4367627  81.7441960  56.6064124
 108.3062574  80.6671791  56.7117795 109.3653827  82.0462388  57.0907000
 107.2437330  82.4699989  57.2995467 106.3341046  83.0694689  56.7390987
 107.2263208  82.1709906  58.5975763 107.9879779  81.6774263  59.0407153
 106.0722932  82.5631353  59.4256625 106.4106437  82.4990995  60.4598373
 105.8644700  83.6035278  59.1756780 104.7601677  81.7305566  59.2676793
 104.8492800  80.5598786  58.8601048 103.6054981  82.3086145  59.5855725
 103.6287070  83.2757781  59.8756677 102.3241651  81.6467999  59.5109588
 102.3747028  80.8332445  58.7873064 101.9203942  81.0673452  60.8724298
 101.8566969  81.8713701  61.6056328 100.9505785  80.5773315  60.7861494
 102.6665495  80.3409454  61.1944469 101.1730575  82.6441170  59.0972161
 101.0740589  83.7498675  59.6041520 100.3272409  82.1411048  58.2238044
 100.6388690  81.2937102  57.7711349  99.0054293  82.6180907  57.9378333
  99.0364697  83.6894228  57.7393812  98.4836627  81.8691708  56.6705715
  98.5286457  80.7929587  56.8374383  96.9895671  82.2960652  56.3913880
  96.9438454  83.3721581  56.2239538  96.6215123  81.7753714  55.5073550
  96.3703332  82.0358205  57.2498291  99.3736116  82.2803715  55.5060205
  99.1371691  83.3155497  55.2598463 100.4082865  82.2146939  55.8425230
  99.1864728  81.4135102  54.2764960  98.1520761  81.4790432  53.9391111
  99.8494041  81.7591338  53.4832963  99.4231914  80.3781863  54.5217888
  98.1478403  82.1884813  59.1109258  98.2765952  81.1260394  59.6669593
  97.2811692  83.0918192  59.5246297  97.4678793  84.0258597  59.1887621
  96.2158519  82.9096761  60.5397400  95.8263212  81.9002449  60.6717004
  96.5657591  83.5141482  61.9258638  96.5249188  84.6017356  61.8659792
  95.5763666  83.0294296  62.9602991  95.6169618  81.9418832  63.0210893
  95.8265521  83.4566821  63.9313621  94.5709682  83.3396196  62.6755969
  98.0874032  83.4478317  62.3927538  98.1218785  82.9686812  63.3711847
  98.6375492  82.8421870  61.6725917  98.7202058  84.8286498  62.4820357
  98.1708440  85.4347639  63.2024017  99.7572315  84.7335164  62.8039462
  98.6865126  85.3082708  61.5038085  94.8229840  83.3841840  59.9953548
  94.7647684  84.2220176  59.1387430  93.7091671  82.8488661  60.4441662
  93.7928996  82.2556303  61.2572834  92.3527150  82.9822804  59.7911944
  92.3384181  83.7850453  59.0539946  91.9063190  81.6918277  59.1397633
  92.2324528  80.8808638  59.7909734  90.3754896  81.5797526  58.9007353
  90.0486698  82.3901705  58.2491892  90.1497655  80.6226708  58.4304759
  89.8523598  81.6476657  59.8545813  92.7180068  81.5055447  57.7458190
  92.3639791  82.3247763  57.1200198  93.7587702  81.6807005  58.0182733
  92.6063343  80.1697101  56.9613854  91.5658492  79.9940920  56.6881658
  93.2140305  80.2261967  56.0582719  92.9606384  79.3500154  57.5864207
  91.4212505  83.4790499  60.9391169  91.2153215  82.7638662  61.9090011
  90.7813131  84.6340243  60.7301210  91.0286620  85.0977258  59.8676254
  89.7891769  85.2708167  61.6019756  90.0587699  85.0761135  62.6400071
  89.8008969  86.3453712  61.4195075  88.4117324  84.7503309  61.3517294
  88.0918705  83.5752093  61.0871703  87.4284547  85.6534078  61.6161121
  87.5764486  86.5086519  62.1325951  86.0199432  85.3661481  61.0696305
  86.0329200  84.5923738  60.3020341  85.1963590  84.8670418  62.2501295
  85.6154543  83.9101593  62.5613115  85.3072729  85.5913364  63.0570963
  83.6816053  84.6876602  61.9168284  83.0351882  84.5106273  62.7764243
  83.4233891  85.6426841  61.4592743  83.4469243  83.5700569  60.8871092
  83.4133568  82.3634845  61.1465303  83.1066342  83.8994475  59.6432279
  82.9496124  83.1749705  58.9572406  83.0069928  84.8723645  59.3910269
  85.4225075  86.6742055  60.5197928  84.5824254  86.5415769  59.6536047
  86.0128215  87.8098348  60.8464249  86.6268273  87.8642959  61.6465063
  85.8745031  89.0025493  59.9880579  85.0305280  88.9257537  59.3025597
  85.6140306  90.1690240  60.9612038  86.5040499  90.2297668  61.5875224
  85.5484019  91.0599327  60.3366444  84.4169600  90.0797336  61.8164846
  83.5538348  90.0202731  61.1534762  84.4548795  89.1889290  62.4434842
  84.2957012  91.3124794  62.6956216  84.1750202  91.1840592  63.9540875
  84.2707563  92.4253567  62.2039990  87.1563156  89.3615166  59.2359382
  87.1909535  90.4290154  58.5992062  88.2229831  88.6012645  59.2416170
  88.1191794  87.7199366  59.7238880  89.6083508  89.0101886  58.7821398
  89.5507553  89.4097251  57.7696416  90.2288405  90.1272328  59.7362256
  91.0263710  90.6609786  59.2193505  89.4558528  90.8338631  60.0383244
  90.7597314  89.4825314  60.8903941  91.1386953  90.1400462  61.4783230
  90.5717582  87.8253953  58.5245447  90.3023427  86.6717428  58.8707427
  91.7053079  88.1448966  57.8388370  91.6939326  89.0222090  57.3385441
  92.8334081  87.2305297  57.6158663  92.9466575  86.4978555  58.4149047
  92.8470818  86.4716644  56.1801471  92.6727487  87.2298765  55.4167188
  94.2017220  85.6984213  55.8601314  94.3765048  84.9396782  56.6229292
  94.1257888  85.2203225  54.8835269  95.0315140  86.4051839  55.8545604
  91.6397129  85.5443391  55.9144460  91.6382798  84.8378380  56.7444791
  90.7654556  86.1912487  55.9871202  91.5971680  84.7774070  54.5929609
  92.4709330  84.1298902  54.5197712  90.6920797  84.1713407  54.5529849
  91.5981111  85.4833015  53.7624117  94.1741777  87.9180193  57.9346154
  94.3493869  89.1352647  57.6784682  95.0898109  87.1394978  58.5059027
  94.9299261  86.1521827  58.6464201  96.3306609  87.7239367  59.0258300
  96.3298595  88.6945436  58.5298250  96.2681172  87.9490232  60.5473967
  96.0274558  86.9777432  60.9795974  97.5597010  88.5211169  61.2331030
  97.8007402  89.4926645  60.8017159  97.3845675  88.6326365  62.3031454
  98.3916360  87.8357384  61.0711118  95.3607976  89.0521004  60.6305164
  95.2350545  89.2943403  61.5509016  97.5156965  86.8743717  58.6742509
  97.3796969  85.6782469  58.6902742  98.6579298  87.4547411  58.4713904
  98.6724560  88.4502555  58.3015687  99.9037423  86.7438627  58.4552681
  99.7524935  85.6983292  58.7237506 100.4977187  86.8070079  57.0252371
  99.9110827  86.0070363  56.5735703 100.2405828  87.7558055  56.5543184
 101.9561140  86.5300230  56.8256862 102.4038062  85.2471312  56.5561060
 101.6851637  84.4279153  56.5329158 103.8165721  84.9852632  56.3051407
 104.1251633  84.0273456  55.8864913 104.7709457  85.9965520  56.5279411
 106.1165133  85.7583000  56.4135176 106.3176305  84.8512103  56.1719814
 104.2857900  87.3295855  56.9805521 104.9937982  88.1197859  57.2303680
 102.8836203  87.5687746  57.0861820 102.5189828  88.5562641  57.3690321
 100.8946375  87.3713173  59.4785474 100.9734729  88.5694427  59.5451392
 101.7710774  86.4897602  60.0590302 101.6558178  85.5151469  59.8204019
 102.8382515  86.8604114  61.0647727 103.1932065  87.8786643  60.9058161
 102.2054792  86.7717895  62.4734304 101.3791508  87.4802729  62.5311529
 101.8377953  85.7675776  62.6843027 103.1546406  87.1255394  63.5869706
 103.8584649  88.4074938  63.6706082 104.6253098  88.2176254  64.7626590
 105.2769335  89.0476980  65.0355418 104.4476608  87.0258875  65.3261894
 104.9446807  86.6544965  66.1231461 103.4376212  86.3520568  64.6216824
 103.0676820  85.3927673  64.9836355 104.1035700  86.0066164  61.0014553
 104.0526160  84.8533976  60.6631817 105.2848278  86.6367383  61.3012058
 105.1745391  87.5948015  61.6012903 106.6360901  86.1375814  61.0612547
 106.7748768  85.1148596  61.4117936 106.7921760  86.1580175  59.4908355
 105.9215859  85.6833383  59.0382299 106.8675697  87.1872902  59.1401025
 108.0515363  85.3957146  59.0504243 108.6440869  84.5965813  59.7579275
 108.4539012  85.6729121  57.8514943 109.2751386  85.2174072  57.4797630
 107.9446570  86.3433557  57.2935728 107.6356411  86.9221144  61.9368435
 108.7596049  87.1819287  61.5018460 107.2232665  87.4673261  63.0680307
 106.2514541  87.3341466  63.3087447 108.0692218  88.2433017  63.9872672
 107.7224761  87.9852231  64.9878980 109.0798174  87.8609829  63.8436420
 108.0876780  89.7275854  63.8480003 107.0464751  90.4208031  64.0719014
 109.1869782  90.2706375  63.2872807 110.0285064  89.7124588  63.2681472
 109.2775293  91.6735838  62.8915834 108.5119927  92.2406181  63.4212295
 110.6589055  92.2847646  63.2176183 111.3927972  92.1920465  62.4170525
 110.3502604  93.3262354  63.3080448 111.2712384  91.8292178  64.5139900
 110.9230446  92.4179740  65.5631911 111.9422985  90.7710185  64.5512797
 108.8340903  91.8841040  61.4469932 109.3132909  92.7791232  60.7758260
 107.7508081  91.1630627  61.0574237 107.5441548  90.3970954  61.6824740
 107.0229866  91.2495557  59.8230329 106.6886715  92.2841714  59.7462018
 107.7326950  90.8804122  58.5562117 106.9889726  90.8303485  57.7609320
 108.4490005  91.6713293  58.3338233 108.4682259  89.5371753  58.6535109
 107.8135866  88.9195892  59.2684383 108.4682310  89.1594528  57.6310493
 109.9443087  89.4861587  59.2361898 110.4931085  90.2998297  58.7619986
 109.8622101  89.6788909  60.3058690 110.7182903  88.1196964  59.0028893
 111.6132267  88.0959728  59.6246824 110.0708640  87.2834614  59.2668009
 111.0985458  88.0151308  57.6015015 111.6988184  88.7896788  57.3568633
 111.5912208  87.1465103  57.4502740 110.2693918  88.0366642  57.0251864
 105.6840323  90.5281868  59.9244193 105.5912307  89.4312224  60.5009452
 104.6413206  91.1460325  59.4320902 104.8470613  91.8597156  58.7476731
 103.2780012  90.8707057  59.7303389 103.0575804  89.8167458  59.5609804
 102.9956242  91.2093136  61.2552500 103.4306186  90.3438231  61.7550553
 103.5076364  92.1135781  61.5842625 101.5076661  91.3081236  61.6081328
 100.7107248  92.3744479  61.1372039 101.2208825  93.1475464  60.5626108
  99.3218207  92.4724858  61.3758690  98.7263220  93.1957378  60.8187427
  98.6797587  91.5494459  62.2678823  97.4180855  91.7044023  62.5747573
  97.0191327  92.4662998  62.1482030  99.4697605  90.5703243  62.8644158
  98.9962783  89.9081281  63.5892684 100.8714670  90.4149491  62.5520179
 101.4514112  89.6239960  63.0275785 102.4786236  91.8306539  58.8334414
 102.8363902  92.9126126  58.5339776 101.3936855  91.3298636  58.3011704
 101.2553319  90.3768295  58.6056102 100.4394657  91.9003368  57.2949199
 100.4074029  92.9814229  57.4302857 100.8300078  91.5968281  55.8279515
 100.6821534  90.5301323  55.6594336 100.0682390  92.1585640  55.2873398
 102.2127948  92.0036914  55.3270969 102.4852051  92.9136275  55.8618021
 103.3200571  90.9349198  55.5279315 103.0485557  90.0247882  54.9930984
 104.2661588  91.3141666  55.1417137 103.4242253  90.7141061  56.5902359
 102.1566437  92.1741812  53.8535297 101.4311605  92.9485334  53.6042263
 103.1396336  92.4651969  53.4832028 101.8578474  91.2341778  53.3896188
  99.0414766  91.4163789  57.5954266  98.8830795  90.2924155  57.9970003
  98.0242879  92.2370443  57.3756167  98.1639678  93.2220145  57.2011957
  96.6593533  91.7271218  57.4037336  96.6950581  90.7375631  56.9481044
  96.2435199  91.5713242  58.9099462  96.1945613  92.5547419  59.3774853
  95.2663975  91.0920194  58.9699385  96.9805471  90.9589146  59.4294119
  95.5424977  92.5670311  56.7115783  95.7600749  93.7316805  56.3476924
  94.4090939  91.8779414  56.4085416  94.3858649  90.9572634  56.8231640
  93.3081225  92.2632231  55.4822231  93.1038873  93.3315574  55.4111670
  93.5820110  91.6715605  54.0129561  92.9334798  92.1914596  53.3078231
  95.0468387  91.8520929  53.5894554  95.6959945  91.3320443  54.2939033
  95.1904376  91.4392265  52.5909457  95.2954183  92.9133461  53.5824553
  93.0774532  90.2304477  53.9019061  93.4612871  89.6711165  54.7550890
  91.9883191  90.2495671  53.9409050  93.5083493  89.5868827  52.6651274
  94.5974513  89.5669732  52.6256269  93.1254279  88.5668581  52.6331868
  93.1244849  90.1454256  51.8114425  91.9642953  91.8207074  56.1077575
  91.8286020  90.7419049  56.6107956  91.0122851  92.6771639  55.8506817
  91.2872143  93.6209122  55.6186202  89.5631767  92.4002854  56.0926823
  89.3897301  91.3312517  55.9694654  89.3178999  92.7678650  57.5479068
  89.4788059  93.8371462  57.6851911  88.2920887  92.5176465  57.8184660
  90.0067631  92.2126258  58.1845199  88.6798610  93.0259977  55.0270076
  87.7775124  93.8247969  55.2715496  88.8696426  92.7957167  53.7404080
  89.7440924  91.7068442  53.1957941  89.5749220  90.8561100  53.8558949
  90.7622502  92.0725349  53.3289262  89.4327181  91.3961788  51.7685384
  88.6972950  90.6014756  51.6432442  90.3142430  91.1727853  51.1676136
  88.8433005  92.7754293  51.3923361  88.1678380  92.6087642  50.5532460
  89.5909242  93.5182839  51.1142615  88.0112024  93.2861731  52.6711213
  87.9109306  94.3648356  52.7916657  86.6151262  92.6372913  52.6824594
  86.5683612  91.4484741  52.8336928  85.4960023  93.3175559  52.4909841
  85.3826440  94.7316470  52.1606913  86.1629711  94.9613096  51.4351260
  85.5605153  95.2964584  53.0758136  83.9679466  94.9563064  51.5981618
  83.9269315  94.7102950  50.5370797  83.6506951  95.9889077  51.7437210
  83.1121462  94.0024207  52.4243463  82.1782324  93.6625178  51.9767191
  82.9055014  94.4588752  53.3923580  84.0879813  92.7924409  52.6021777
  83.9079429  92.5260314  53.6436720  83.8472810  91.5436194  51.6974047
  82.9740931  90.6996608  52.0552018  84.6648829  91.2678012  50.6919632
  85.4259384  91.8807652  50.4366810  84.4455508  90.0737440  49.8949783
  83.4160828  90.0503332  49.5375615  85.4202947  89.9564174  48.6810859
  85.3575275  90.8743235  48.0966127  86.8933804  89.7391801  49.1518509
  86.9570342  88.8211535  49.7360393  87.5456600  89.6616645  48.2820099
  87.2070854  90.5828794  49.7665540  84.9879075  88.7880375  47.7147073
  85.7477912  88.6759863  46.9413237  84.9187495  87.8658748  48.2917105
  83.6580610  89.0785812  47.0725751  83.7265702  90.0004211  46.4949789
  83.3856149  88.2557290  46.4116767  82.8975285  89.1903120  47.8453664
  84.5848263  88.7737607  50.7451910  83.9431438  87.8262749  50.3794272
  85.3201016  88.8087574  51.8276487  85.8538275  89.6258592  52.0876115
  85.3379139  87.6269105  52.7473196  84.9230789  86.6945848  52.3642009
  86.7275918  87.3718342  53.3017348  86.6725465  86.6505394  54.1170901
  87.6509674  86.7885418  52.1370686  87.7068729  87.5095276  51.3214984
  88.6521342  86.6018180  52.5255270  87.2251604  85.8555130  51.7679550
  87.3987256  88.5018946  54.1124932  87.6938746  89.2805165  53.4091187
  86.6536393  88.8991230  54.8018084  88.5722663  88.0553782  54.8667593
  89.3180346  87.6584195  54.1780263  88.9955021  88.8979388  55.4136253
  88.2777993  87.2770238  55.5707149  84.4258573  87.8805197  53.9820775
  84.1862970  86.9802181  54.7281754  83.8569939  89.0803973  54.2311583
  84.1896839  89.8926163  53.7314414  82.8399268  89.2752863  55.2898546
  83.1007653  88.6728306  56.1599750  82.7617851  90.7515794  55.7192009
  82.8369795  91.3871184  54.8368545  81.8083500  90.9316276  56.2158338
  83.9293218  91.0832738  56.6996707  83.6808188  90.6989428  57.6889314
  84.8396249  90.6023117  56.3417242  84.1443044  92.5575816  56.7788411
  84.2364860  93.0085397  55.7907934  83.3478398  93.0553601  57.3319777
  85.4635941  92.7135488  57.5348048  85.5026139  91.9987035  58.3567380
  86.2984497  92.5335845  56.8575100  85.5532138  94.0884589  58.0729058
  84.7799454  94.2552755  58.7008611  86.4233799  94.1978623  58.5738469
  85.5175054  94.7509914  57.3114108  81.4715078  88.7311917  54.8360522
  80.5877801  89.4123956  54.3354850  81.1915387  87.4636285  55.1347843
  81.7839058  87.0225783  55.8237511  80.0444569  86.6666889  54.5615657
  79.1255768  86.9239063  55.0884411  79.8505392  86.9656040  53.0522030
  79.0486331  86.2849946  52.7661666  79.4761032  87.9892670  53.0487613
  81.0416301  86.8375628  52.0226804  81.9407893  87.4235462  52.2130405
  81.2875006  85.7760456  52.0515091  80.5253143  87.1781061  50.6375456
  79.4908089  87.7349514  50.4737900  81.4269501  86.9568413  49.6666328
  81.1866351  87.1502714  48.7048974  82.3410636  86.5980607  49.9027989
  80.3729819  85.1340886  54.6912647  81.4729445  84.7034843  54.2939636
  79.3986160  84.3228515  55.1247475  78.5022668  84.7872769  55.1558354
  79.4941893  82.9042934  55.6620638  78.7054876  82.6694967  56.3768501
  79.3077832  81.9906654  54.3862215  78.3148318  82.1784729  53.9777181
  80.0618169  82.2759817  53.6526496  79.4393011  80.6296764  54.6847748
  79.3191797  80.1134393  53.8843562  80.8402569  82.8245403  56.4467309
  81.0588091  83.6707640  57.3035514  81.6171849  81.7891179  56.2007466
  81.2495982  81.1105376  55.5492038  82.8355213  81.4859000  56.8773153
  83.4010144  82.4158437  56.9366579  82.5235782  81.0194894  58.2818062
  81.7840356  81.6785908  58.7365175  81.9609118  79.5902037  58.2105748
  82.7001244  78.9303856  57.7563673  81.7307497  79.2392281  59.2165274
  81.0524479  79.5864064  57.6082630  83.7127287  80.9487840  58.9789453
  83.5405811  80.6540591  59.8762205  83.6771343  80.5237289  56.0525400
  83.1979445  79.6107563  55.3528871  84.9893095  80.6655336  56.2250588
  85.2598476  81.5000111  56.7256143  86.0752315  79.7254157  55.7617136
  85.8386226  79.3949679  54.7503187  87.4819424  80.3177443  55.7871130
  87.6732393  80.6526701  56.8065886  88.5993038  79.3148516  55.3499954
  88.4089295  78.9798173  54.3303826  89.5696640  79.8093707  55.3941856
  88.5992667  78.4553193  56.0202963  87.4871369  81.5598030  54.8487009
  87.6367846  81.2370908  53.8183790  86.5338505  82.0819615  54.9305233
  88.6477347  82.5242376  55.2670268  89.6014482  82.0028897  55.1850109
  88.6522532  83.3943366  54.6105159  88.4985151  82.8477587  56.2971567
  86.0650651  78.4919667  56.7045022  86.2807235  78.6750964  57.9318628
  85.8846601  77.2461753  56.2335683  85.7342887  77.1764405  55.2372627
  85.8419812  76.0119347  57.0335867  85.9647498  76.1668848  58.1055091
  84.5474415  75.2462241  56.7978513  84.7081547  74.2159392  57.1153155
  83.3523398  75.8389161  57.5658735  83.1907096  76.8691133  57.2485874
  82.4584658  75.2507866  57.3580430  83.5603657  75.8171440  58.6356177
  84.2270879  75.1068504  55.2871000  85.0363455  74.5705630  54.7915196
  83.2957821  74.5544540  55.1620909  84.1236276  76.0974249  54.8442014
  87.0764842  75.0522412  56.7213358  87.3528044  74.1436298  57.5036315
  87.8758040  75.2528380  55.6583839  87.5883547  75.9704822  55.0084155
  89.0404503  74.3777332  55.2849875  89.6803884  74.2048798  56.1502621
  88.4937339  72.9740189  54.7677676  89.2679566  72.2272620  54.5916071
  87.7072373  72.5421765  55.3866660  87.7458527  73.3019308  53.1697788
  87.3715137  72.0481272  52.9315663  90.0369017  75.0911488  54.3147775
  89.7093946  76.1973661  53.8553839  91.2631230  74.5926224  54.0599486
  91.4263713  73.6667395  54.4289881  92.3715750  75.2753955  53.3723105
  92.0025507  75.8494010  52.5223470  93.0455748  76.2419364  54.3633746
  93.9254833  76.7397544  53.9558978  92.3262336  76.9906184  54.6952235
  93.4921260  75.5168182  55.5753617  94.6900433  74.8614265  55.7482374
  94.6549198  74.4383061  57.0255911  95.5507076  73.9607540  57.4225889
  93.4538201  74.6992799  57.6033187  93.1855371  74.4311404  58.5393878
  92.6766320  75.3667809  56.7443990  91.6667495  75.6563320  57.0349136
  93.3806411  74.2537065  52.7952186  93.6525657  73.1535873  53.2423078
  94.0562473  74.7488846  51.7374431  93.9385399  75.7297707  51.5274271
  94.9202131  73.9583310  50.8757790  95.4583185  73.1961658  51.4393798
  94.0606182  73.2980818  49.9039464  93.5119988  72.5570255  50.4852824
  93.3597995  74.0150022  49.4761867  94.7705191  72.6002402  48.7886063
  94.5702128  72.7030896  47.6300518  95.6445141  71.7544450  49.1725716
  96.1746015  71.2344909  48.4879149  95.8023591  71.6086647  50.1594524
  95.9862786  74.7353933  50.1292941  95.5972933  75.7113044  49.5271464
  97.2720925  74.3704741  50.1998325  97.4807157  73.5847131  50.7991283
  98.3603781  75.0065266  49.5048795  98.2744926  76.0924476  49.5435915
  99.6675430  74.5893256  50.2134381  99.5179070  74.6569541  51.2909977
  99.8980573  73.5588447  49.9431194 100.8381975  75.5031126  49.7991467
 101.1584070  75.2474770  48.7890887 100.5133450  76.5432728  49.8244364
 102.0010626  75.3111670  50.7638880 102.7941083  76.0292905  50.5553789
 101.6668406  75.4288578  51.7946857 102.5453590  73.9369371  50.5931763
 102.1820538  73.4163927  49.8075923 103.5940465  73.4363966  51.2625302
 103.8924332  73.8460345  52.4503935 103.3289339  74.5584792  52.8919715
 104.6878784  73.4520158  52.9321776 104.1384835  72.3780628  50.7284956
 103.7625314  71.9984851  49.8713604 104.9334155  71.9431791  51.1746548
  98.3584531  74.5463795  48.0377579  98.2379607  73.3736697  47.7879292
  98.6251097  75.4916237  47.1405741  98.6676416  76.4493575  47.4584365
  98.7596717  75.2274076  45.6934871  98.5549585  74.2152124  45.3446996
  97.9350333  76.2095205  44.8565864  98.3686512  77.1992460  44.9998278
  97.9037908  75.8754721  43.3521206  97.4698440  74.8860115  43.2080414
  97.3003910  76.6161952  42.8273935  98.9190154  75.8876531  42.9555450
  96.5621915  76.5735581  45.2864273  96.6000897  77.0338265  46.2737564
  96.1326165  77.2778749  44.5740350  95.9440155  75.6767541  45.3276815
 100.1754114  75.2297479  45.2512783 100.3896880  74.3935795  44.3611851
 101.0684797  76.0661690  45.8087680 100.7194397  76.6566991  46.5500807
 102.4028372  76.2778834  45.3459330 102.6027563  75.5272486  44.5812899
 102.6931472  77.7055333  44.7392165 101.8654932  78.2528125  45.1904079
 103.6374766  78.1275488  45.0830840 102.6095119  77.8182186  43.2268131
 102.5333854  78.9813289  42.7594201 102.4498783  76.8894477  42.4053274
 103.4074919  75.9192484  46.4760015 103.3706606  76.5750092  47.5181546
 104.3391703  74.9588182  46.2946196 104.5958780  74.1590321  45.0345306
 105.2626263  74.7177364  44.3777228 103.6520838  73.9743479  44.5214582
 105.2135820  72.9137192  45.5463376 105.8277332  72.4312953  44.7859531
 104.4592216  72.2120599  45.9023098 106.0156490  73.4032093  46.6372537
 107.0026850  73.7274272  46.3074937 106.1202406  72.5621548  47.3226640
 105.2898846  74.5665890  47.3397007 104.6669897  74.1958736  48.1537464
 106.2691321  75.6174382  47.8830931 106.8769691  75.3680296  48.9075239
 106.3875944  76.8256473  47.3117758 106.1553831  76.9562116  46.3375427
 106.9527053  77.9748794  48.0601114 107.7096730  77.6835901  48.7882939
 107.6544421  78.8532403  46.9140967 108.3316144  79.6459204  47.2322086
 108.2308110  78.0358840  46.4807059 106.7334192  79.4022462  45.8614338
 105.6115302  79.7333885  46.1409064 107.2528195  79.7795444  44.6938172
 106.6505735  80.1511375  43.9731799 108.2463867  79.6922120  44.5347633
 105.9807472  78.8017698  48.9261696 106.4846210  79.5844895  49.7104031
 104.6689678  78.4815574  49.0093372 104.2593835  77.7218478  48.4847598
 103.8209135  79.2443468  49.8724068 103.0524101  78.5675365  50.2458095
 104.4364553  79.5883057  50.7036106 103.1393113  80.4642610  49.2129891
 102.4240828  81.1626379  49.8911984 103.3459501  80.7217225  47.9253583
 103.9759863  80.1273166  47.4059016 102.7609441  81.8735724  47.2440683
 102.8534840  82.7598193  47.8718437 103.4735591  82.1329926  45.9319357
 102.9615433  82.9370582  45.4033360 104.5010090  82.4319021  46.1395405
 103.4747308  80.9571710  45.1226822 103.9290853  81.1377827  44.2965216
 101.2633594  81.8380993  46.9444358 100.6402741  82.8494988  46.6796703
 100.7120284  80.6019521  46.9080474 101.3542279  79.8361137  47.0535495
  99.2893746  80.2822284  46.5997004  98.6813634  81.1795307  46.7148964
  99.1389913  79.7710889  45.1677481  99.8250036  78.9317479  45.0537619
  98.1132442  79.4185519  45.0597639  99.4385921  80.8380694  44.0739863
  98.9553470  81.7629685  44.3888461 100.5189459  80.9814904  44.0547997
  98.9346730  80.4466248  42.6310065  97.9188700  80.0610320  42.7179626
  98.9297063  81.3466703  42.0161951  99.7745076  79.4246543  41.9684651
 100.7318858  79.3626806  42.2841953  99.3549369  78.5661609  41.0659931
  98.1578300  78.4950998  40.6019204  97.4517308  79.1361923  40.9343725
  97.9293431  77.7985289  39.9071670 100.1859158  77.7622943  40.5346434
 101.1573764  77.7902830  40.8095634  99.8700641  77.1000897  39.8405098
  98.6078798  79.2747498  47.5401406  99.0840489  78.1670737  47.6964790
  97.4378508  79.5970624  48.0706542  97.1319219  80.5424519  47.8896971
  96.5544642  78.7091777  48.8992597  96.8380764  77.6630434  48.7840804
  96.7266456  79.1178512  50.4295968  96.5214470  80.1752417  50.5966835
  95.9572900  78.5177661  50.9154875  98.0896245  78.7664756  51.0147138
  99.2163591  79.6571131  50.9541188  99.2003951  80.5445381  50.3214092
 100.3923239  79.3568396  51.7565842 101.1400679  80.1302237  51.9322483
 100.4831590  78.1256615  52.4289758 101.7003172  77.7651631  52.8688959
 102.3798096  78.4116990  52.6642473  99.3686846  77.2982323  52.4595809
  99.4615446  76.4018615  53.0727668  98.1593060  77.5564520  51.7553550
  97.3390468  76.8400129  51.7999642  95.0554661  78.8248826  48.5240810
  94.5138067  79.9675221  48.6365354  94.3988284  77.7753034  48.0483296
  94.9192621  76.9926796  47.6785349  92.9666315  77.7242103  47.9976598
  92.6089258  78.5791748  47.4239164  92.4406084  76.4503004  47.3514104
  93.0287764  75.7185130  47.9051656  91.3797677  76.2680302  47.5231503
  92.7419525  76.3238409  45.8687166  93.6174013  76.9298659  45.6354273
  93.0179103  74.8519942  45.4862636  92.1426779  74.2453879  45.7188487
  93.2311613  74.7871505  44.4192958  93.8747871  74.4839528  46.0505402
  91.6157630  77.0655629  45.1121165  91.6032417  78.1128830  45.4138836
  91.7936867  76.9993524  44.0387756  90.6553465  76.6080596  45.3495820
  92.5173216  77.8496681  49.4387590  93.0129858  77.2022681  50.3514305
  91.3925154  78.4875623  49.6123131  91.1165742  79.0962423  48.8550387
  90.5024452  78.3991832  50.8115938  90.8545185  77.6541073  51.5250400
  90.5498421  79.8300832  51.5057600  89.9819802  80.4040452  50.7735033
  89.9741293  79.7475949  52.4276334  91.8461765  80.5249273  51.7876658
  92.3757553  80.7029815  50.8517471  91.5660411  81.8598773  52.4758145
  91.0368533  81.6825934  53.4120995  92.5082203  82.3676622  52.6820994
  90.9529005  82.4831551  51.8249045  92.7509360  79.6767704  52.5621935
  92.9627347  78.7651809  52.0034043  93.6816674  80.2125855  52.7485870
  92.2838475  79.4193585  53.5128073  89.0306545  78.0380601  50.4338159
  88.5455973  78.5267406  49.3820522  88.3332042  77.4407109  51.4068334
  88.7034683  77.5154629  52.3435382  87.0661742  76.6837077  51.2066985
  86.6805856  76.8902346  50.2083162  87.2681855  75.6170319  51.3041327
  85.9959715  77.0939856  52.2572561  86.2646087  77.2281166  53.4558874
  84.7405544  77.2537146  51.8340961  84.5483960  76.9252758  50.8985201
  83.6785206  78.0376182  52.5441526  84.0017164  78.2203050  53.5689791
  83.3797832  79.4791920  51.8244394  84.2870228  80.0833572  51.8240903
  83.1785234  79.1262589  50.8129885  82.1674446  80.3526174  52.3267838
  82.2118491  81.5740056  51.9897479  81.1391989  79.9289035  52.8972839
  82.3876692  77.2042559  52.8064881  81.9124833  76.5362753  51.8551710
  81.7520476  77.3543204  53.9527917  82.2309553  77.8993271  54.6554399
  80.4950063  76.6305194  54.3466954  80.6523356  75.5519444  54.3419376
  80.1054273  77.0661331  55.7762827  80.9934189  76.9276917  56.3930519
  79.8648020  78.1277411  55.7198209  78.9226294  76.3047702  56.4019989
  78.7917252  76.7877404  57.3703505  78.0839817  76.5585744  55.7536505
  78.9731024  74.5249818  56.6321873  77.2450024  74.2059397  57.0012110
  76.6285090  74.5255934  56.1610584  77.1003851  73.1391886  57.1721745
  76.9556147  74.7590957  57.8947291  79.3611228  76.7086482  53.3540830
  78.7400946  75.7249660  53.0704242  79.1932686  77.8249734  52.6807600
  79.7369271  78.6199543  52.9849643  78.1949877  78.0256092  51.5783434
  77.2061766  77.6907410  51.8917364  78.1204640  79.5423444  51.2330483
  77.9131596  80.0419692  52.1793565  79.1215082  79.8086799  50.8938199
  77.0258440  80.0131611  50.1187127  77.0202842  81.0915276  49.9599817
  77.3680622  79.5147008  49.2117820  75.6066022  79.5391884  50.4579185
  75.1615189  79.5249209  51.6481332  74.7317640  79.2351044  49.6121531
  78.4282400  77.2253270  50.3391970  77.5362935  77.0185403  49.4212822
  79.6481213  76.6779357  50.1257691  80.3794550  76.8667386  50.7962942
  79.9694009  75.8108755  48.9530223  80.7153760  75.0642041  49.2252392
  79.0705285  75.3109369  48.5922050  80.5533971  76.7261527  47.7923324
  79.9449835  76.8164770  46.7418086  81.7457195  77.2763626  48.0125741
  82.1452699  77.1250693  48.9277622  82.4563139  78.1388791  47.0851035
  82.4533237  77.6520541  46.1098642  81.8499854  79.5604677  46.9320032
  82.4396162  80.0549239  46.1600266  80.8315997  79.4134822  46.5723008
  81.8256948  80.4226458  48.1786939  81.7177732  79.7373117  49.0193906
  82.7997047  80.9092409  48.2299967  80.7052383  81.4987787  48.2406325
  80.8413475  82.2576976  47.4701681  79.7176520  81.0493530  48.1367604
  80.7930013  82.1471391  49.5638737  81.4490004  81.7466261  50.2191247
  80.0807168  83.1591641  49.9434910  79.3318017  83.7498391  49.0761213
  79.3111638  83.4185099  48.1222371  78.7692792  84.5411134  49.3546049
  80.1185091  83.6173367  51.1725966  80.7182778  83.1756407  51.8547125
  79.5476508  84.4095339  51.4307497  83.9639396  78.2082449  47.5371679
  84.3320522  77.9905199  48.7316761  84.8321885  78.3929960  46.5569608
  84.5388080  78.5430319  45.6022271  86.3044534  78.4773106  46.8743250
  86.4880141  78.1794987  47.9066586  87.1012114  77.5042231  45.9190741
  86.8324890  77.7858242  44.9009443  88.1748004  77.6303884  46.0590351
  86.7193188  76.0212662  46.1626779  85.6701204  75.8592728  45.9156116
  87.6026526  75.1392887  45.2565554  88.6520461  75.3004008  45.5033650
  87.3502541  74.0903817  45.4120867  87.4307608  75.4029415  44.2129842
  86.8228285  75.4844688  47.5524478  86.1689960  76.0546527  48.2123666
  86.5226308  74.4366577  47.5610787  87.8525140  75.5697500  47.8996851
  86.8165425  79.9026731  46.5633581  86.3591857  80.6309219  45.6935004
  87.8065738  80.3018634  47.3647689  87.9720697  79.6486517  48.1171151
  88.6344032  81.4459054  47.2754183  88.3121860  82.0740595  46.4449379
  88.5481917  82.2763702  48.5902418  88.5190289  81.3999767  49.2376853
  89.3470783  82.9421911  48.9166813  87.2805144  83.0014593  48.8037698
  87.2844798  84.4009655  48.9361512  88.2164079  84.9198278  48.7116700
  86.1209244  85.1517756  49.3498917  86.1610141  86.2398655  49.2993558
  85.0008520  84.5362356  49.7917541  84.1394962  85.0631038  50.2023343
  84.9878619  83.1428450  49.6987828  84.0627224  82.6440347  49.9875830
  86.1053984  82.3729441  49.2538684  86.0543522  81.2841592  49.2603273
  90.1625666  81.0265765  47.0942420  90.5057538  79.8472144  47.2951439
  91.0140693  81.9759420  46.5860184  90.5779535  82.7973435  46.1920616
  92.5176979  81.8747852  46.5429999  92.8464258  80.8851564  46.8602882
  92.9823367  82.1061300  45.1078974  92.3259291  81.5544006  44.4349761
  92.9161432  83.1714027  44.8867352  94.3915495  81.6447776  44.9181315
  94.5987957  81.9505032  43.8926161  94.9400340  82.2879263  45.6063369
  94.9191565  79.9625338  45.1442988  93.9313454  79.2835909  43.7989878
  94.2253842  79.7516574  42.8595444  94.0943340  78.2077502  43.7349400
  92.8758989  79.4800618  43.9874897  93.0608097  82.9269598  47.5057227
  92.8191743  84.0996468  47.3039914  93.7647031  82.4667633  48.5466965
  93.7170947  81.4973556  48.8261270  94.6045244  83.3874778  49.3465091
  94.1315801  84.3678658  49.4036245  94.7817111  82.8307750  50.8024716
  93.7914379  82.6077677  51.1996189  95.3872722  81.9244814  50.8077420
  95.4655942  83.9186774  51.6905420  96.3914333  84.1954910  51.1862633
  94.6314105  85.1671920  51.9403355  93.7055529  84.8912159  52.4450372
  95.1929682  85.8607825  52.5661835  94.3975208  85.6448803  50.9889103
  95.7057137  83.0417144  52.9315467  96.3412016  82.1977516  52.6632533
  96.1951834  83.6327973  53.7055890  94.7511244  82.6723751  53.3063090
  95.9258513  83.4815102  48.5741612  96.4218059  82.5726191  48.0810944
  96.6189638  84.6428531  48.5822071  96.2987002  85.3594886  49.2177888
  97.7901906  84.9151681  47.7737032  98.2009222  83.9912686  47.3665075
  97.3884579  85.8081740  46.6301193  97.2272911  86.7830416  47.0902908
  98.2600524  85.8547861  45.9772407  96.1431800  85.4181404  45.7999454
  95.4744036  84.9314325  46.5098427  95.3859613  86.5243147  45.0624548
  96.0540068  87.0112106  44.3519998  94.5402401  86.0920795  44.5276379
  95.0234128  87.2588359  45.7815776  96.6175210  84.4444969  44.7804377
  97.0457570  83.5750370  45.2791888  95.7786054  84.1300231  44.1596091
  97.3763019  84.9139109  44.1543377  98.8736710  85.6260474  48.5152623
  98.5898514  86.5265643  49.2609980 100.1127801  85.3019940  48.2654405
 100.2542033  84.4381201  47.7616343 101.3163029  86.0079002  48.8197828
 101.0292072  86.9570429  49.2723349 101.9631713  85.1175625  49.9068836
 102.0583426  84.1291529  49.4573416 102.9525413  85.5598703  50.0235492
 101.2959700  84.9916758  51.2786770 100.9282779  85.9689068  51.5916034
 100.1237565  84.0063004  51.1993312 100.4907603  83.0286563  50.8868908
  99.6531025  83.9211138  52.1787845  99.3929715  84.3676961  50.4758349
 102.3078477  84.4304928  52.3045046 103.1612343  85.1044016  52.3798554
 101.8274404  84.3430520  53.2790118 102.6491494  83.4478883  51.9787741
 102.2805068  86.4907923  47.7121137 102.7171309  85.6776127  46.8742423
 102.5344953  87.7639688  47.6305646 102.0863461  88.3919524  48.2824067
 103.4294141  88.3463321  46.5891830 103.5684716  87.6005952  45.8064706
 102.8853023  89.6302611  45.9515707 101.8816205  89.3631709  45.6208367
 102.8186671  90.3358038  46.7797430 103.6676177  90.2906026  44.7648176
 103.3936534  91.3456078  44.7619318 104.7433047  90.1954938  44.9129761
 103.2704471  89.6444614  43.3937224 103.3154999  90.3166630  42.3800162
 102.8898787  88.4999735  43.4482389 104.8472888  88.6872954  47.1107999
 105.0456353  89.6498293  47.8792256 105.9163422  88.0886649  46.5190461
 105.7197589  87.2734558  45.9561177 107.2973744  88.4059895  46.8072217
 107.3861634  88.6007493  47.8759987 108.2935981  87.2699200  46.4234202
 109.2777747  87.6236712  46.7305939 108.0106999  86.4108343  47.0317295
 108.3347896  86.8762750  45.0113207 107.4223135  86.3313533  44.7693525
 108.3955120  87.7737045  44.3956624 109.5953025  85.9516048  44.7250670
 110.4808675  86.4797213  45.0785728 109.4686866  85.0323248  45.2968993
 109.7689685  85.5984171  43.1887390 110.4635311  84.7615155  43.1160818
 108.7948080  85.2958274  42.8046166 110.2918924  86.7577949  42.3759816
 111.1947604  87.0380574  42.7314843 110.3825883  86.4778414  41.4098035
 109.6482269  87.5332466  42.4428273 107.6711861  89.8279008  46.2282820
 107.2344425  90.2070234  45.1206449 108.5942960  90.4433902  46.9949624
 108.5825535  90.1950145  47.9738756 109.4370567  91.6304315  46.5635620
 109.3446864  91.7083271  45.4802803 109.0821294  92.9291535  47.1607838
 108.0153016  92.9428203  46.9376452 109.2295493  92.6879599  48.2134913
 109.6940953  94.3313691  46.8584677 109.0819365  95.1004422  47.3295186
 110.6701151  94.2975387  47.3425547 109.8745015  94.6638215  45.3555785
 109.7313103  95.8275641  44.9704713 110.2281430  93.7904081  44.5298222
 110.9204511  91.2205861  46.6624657 111.2882807  90.5469725  47.6464546
 111.7598177  91.4852852  45.6717645 111.3873652  91.8613644  44.8115651
 113.1841388  91.1787294  45.7327390 113.3520608  90.4703885  46.5440063
 113.7192115  90.5730098  44.4377197 113.2689952  91.1032358  43.5985148
 114.8003734  90.7097098  44.4153091 113.3949833  89.0968951  44.3344215
 113.9993649  88.5729084  45.0748685 112.3441545  89.0411124  44.6185803
 113.5884709  88.4414820  42.9600099 114.3236604  88.9930329  42.0872884
 113.0199471  87.3280313  42.7970674 113.9952759  92.4797661  46.1182737
 114.1163432  93.4108936  45.3204151 114.5186679  92.5432145  47.3610404
 114.2579313  91.7553444  47.9366935 115.2205403  93.6789260  48.0016100
 114.5308880  94.5228800  47.9867557 115.6860266  93.4683726  49.4029925
 116.2739084  92.5542940  49.4863864 116.2798199  94.3144631  49.7488833
 114.4008514  93.3418999  50.2800002 113.7805643  94.2202245  50.1014211
 113.9128705  92.4618541  49.8610776 114.5492171  93.1458116  51.7962663
 115.5487338  92.7603610  52.3117614 113.5175985  93.5045436  52.5145089
 113.5457634  93.4033788  53.5190356 112.6971885  93.8812036  52.0615673
 116.3381347  94.1836069  47.0200781 116.8267825  93.4450874  46.1481273
 116.9005969  95.3408876  47.3106341 116.3873180  96.0035502  47.8741253
 118.1449299  95.7749574  46.6990487 117.9692686  95.9808417  45.6431822
 118.6983249  97.0418208  47.3594092 117.8461683  97.4923669  47.8682672
 119.4160345  96.6864462  48.0988021 119.3738595  98.0978588  46.4510229
 120.1718754  97.5732119  45.9256496 118.6117574  98.4082447  45.7362060
 120.0686343  99.5828173  47.2747980 120.7893676 100.3313100  45.7816040
 120.0006506 100.5245722  45.0545042 121.2782548 101.2693734  46.0445243
 121.5216619  99.6491016  45.3498194 119.2479558  94.7335503  46.5492221
 119.7544149  94.5820605  45.4111663 119.5913555  93.9513323  47.5043272
 119.1584729  94.1755282  48.3888882 120.5848408  92.8638356  47.4685647
 121.3686449  93.0757667  46.7413539 121.2169298  92.7545517  48.8455943
 122.0297969  92.0385354  48.7244872 121.6310395  93.7456475  49.0309108
 120.3529380  92.3425575  50.0165170 119.1282062  92.4180334  49.8954163
 120.8657406  91.9119570  51.1224093 120.0973502  91.4595290  47.0012844
 120.8134278  90.4630213  47.2203806 118.8346599  91.3318945  46.4908300
 118.2237086  92.1328862  46.4183721 118.3261909  90.0137385  46.0290261
 117.6693113  90.1763369  45.1745261 119.1756302  89.4032461  45.7226746
 117.5660627  89.2900947  47.0972652 117.1228493  88.1746021  46.8862485
 117.4830114  89.7885298  48.3424881 117.8703323  90.7110243  48.4806395
 116.8225085  89.1240346  49.4918583 117.1587006  88.0888733  49.5511467
 117.1826306  89.8438868  50.8323742 116.7048347  90.8211733  50.9010947
 116.6490924  88.9400872  51.9345812 117.1268031  87.9626947  51.8667869
 116.8667718  89.3837083  52.9061342 115.5710489  88.8256535  51.8213220
 118.5659093  90.0126538  50.9780170 118.7483321  90.4564099  51.8095232
 115.3094074  89.2284909  49.3444263 114.6985824  90.3312650  49.1087359
 114.5955634  88.0838831  49.5195966 115.1280645  87.2768719  49.8116151
 113.1358243  87.9228803  49.3022075 113.0056851  88.4403682  48.3517501
 112.6879978  86.4137723  49.1224902 112.9577583  85.8511770  50.0162547
 111.1803572  86.3366256  48.9096400 110.9098710  86.8986440  48.0157309
 110.8830033  85.2951391  48.7872184 110.6687477  86.7608601  49.7735742
 113.2276681  85.9078897  47.7966905 114.3155338  85.9760827  47.7968381
 112.9292710  84.8691594  47.6549225 112.8262142  86.5147101  46.9850843
 112.4188402  88.5253801  50.5225751 112.6976586  88.1765220  51.6487777
 111.4464113  89.4007805  50.3329915 111.3055190  89.7277040  49.3878091
 110.5748785  89.8654049  51.3371298 110.6536070  89.3030663  52.2675471
 110.9700813  91.4024177  51.6286062 112.0587213  91.4236368  51.6787342
 110.4904115  92.4326340  50.6242132 109.4017643  92.4123259  50.5738701
 110.8208617  93.4240882  50.9339232 110.9033842  92.2029437  49.6419726
 110.4724193  91.7660989  52.8715018 110.7030047  92.6800356  53.0535747
 109.1243548  89.8045664  50.7848674 108.8936951  89.5781149  49.5994135
 108.1061094  90.0597960  51.6465164 108.3803053  90.2133541  52.6063788
 106.6344675  89.9922972  51.3255690 106.4936191  89.4928745  50.3670087
 105.8797980  89.2217845  52.3880200 106.3034379  88.2205614  52.4666380
 106.0920222  89.7782494  53.3009317 104.3235272  89.1178362  52.1877307
 103.9157356  90.1147158  52.3551759 103.8922360  88.6168934  50.8139486
 104.2992915  87.6198054  50.6459600 102.8040000  88.5772878  50.7662558
 104.2646194  89.2949195  50.0460218 103.7380116  88.1028133  53.1284331
 103.9431238  88.3991993  54.1571138 102.6603485  88.0442865  52.9757307
 104.1852407  87.1276349  52.9357879 105.9963921  91.3330366  51.0660471
 105.8823980  92.1775134  51.9433574 105.6375099  91.6381219  49.7958489
 105.7671813  90.8793403  49.1419872 105.0837506  92.9004367  49.2951334
 105.6793521  93.7304463  49.6751887 105.0941371  92.9530862  47.7138055
 105.9748487  92.4373277  47.3311312 104.1956825  92.4772649  47.3207744
 105.1299649  94.4336554  47.2682080 104.1104003  94.8012923  47.3841039
 105.7814588  94.9402723  47.9802453 105.6119050  94.7135829  45.8520102
 105.5686908  95.7982375  45.7532376 106.6526366  94.3896877  45.8436944
 104.8989618  94.0931037  44.7334206 105.2317552  93.0587080  44.6475454
 103.8318331  94.1137373  44.9545761 105.1516255  94.7992339  43.4590238
 106.1403440  94.7798557  43.2536951 104.6441710  94.3424957  42.7147254
 104.8429302  95.7576338  43.5382448 103.6621003  92.9885320  49.7700141
 103.2547652  93.9534743  50.3478562 102.8195585  91.9745695  49.6093709
 103.2302986  91.0735454  49.4105051 101.3836275  92.0628176  49.7174464
 101.0728773  92.6836732  50.5577272 100.8925367  92.7456240  48.3744977
 101.7161857  93.3998733  48.0887366 100.8122250  91.9289278  47.6571015
  99.5903445  93.5425855  48.3857163  99.1310694  93.8922721  47.2761170
  99.0850676  93.7944280  49.4842128 100.6352659  90.6611520  49.8607596
 101.0104472  89.7461842  49.1613292  99.6129959  90.6403604  50.7028622
  99.3816715  91.5194929  51.1429921  98.8286530  89.4947985  51.0276286
  99.2695706  88.6005851  50.5870911  98.7751562  89.3131534  52.5765741
  99.8114929  89.0437379  52.7803404  98.5643854  90.2934860  53.0039190
  97.8719449  88.3027707  53.1863069  96.8686029  88.3841685  52.7682397
  98.4477606  86.9242060  52.8634252  99.4509822  86.8418835  53.2815976
  97.8100677  86.1531611  53.2957889  98.4934459  86.7930849  51.7823051
  97.6830405  88.5353386  54.6981265  97.2503524  89.5220666  54.8631970
  97.0158335  87.7742819  55.1027604  98.6491468  88.4743810  55.1991471
  97.4429471  89.7830033  50.4529965  96.9522805  90.8749749  50.8037165
  96.8206491  88.9856329  49.5609945  97.3519897  88.1632130  49.3132000
  95.5100629  89.2365587  48.8445692  94.9714713  90.0488802  49.3325775
  95.7648755  89.6260196  47.3821487  96.3047307  88.8180943  46.8882739
  94.8078805  89.7806711  46.8838080  96.6031564  90.9292368  47.3070811
  96.0458663  91.7348378  47.7851351  97.5433264  90.7745703  47.8364776
  96.8987311  91.3108605  45.8238994  96.0222158  91.1049544  45.2095521
  97.1463817  92.3703789  45.7591749  98.0465774  90.5193541  45.2984896
  98.6382067  90.0953056  45.9986732  98.3085118  90.2657987  43.9860971
  97.7388248  90.9419776  43.0839802  97.0883280  91.6714152  43.3386856
  97.9365651  90.7499274  42.1123244  99.1496228  89.4354767  43.5879932
  99.6852949  88.9027743  44.2583540  99.2910001  89.2998168  42.5971817
  94.5467303  88.0478042  48.9422055  95.0470982  86.9258129  49.0925031
  93.2441958  88.2037629  48.8883377  92.8777646  89.1361127  49.0169897
  92.2763284  87.0713962  48.7787233  92.7510420  86.1681376  48.3954869
  91.6679768  86.7573150  50.1957336  92.4823249  86.4929598  50.8703096
  90.8950589  87.9828173  50.7701560  90.0802117  88.2474923  50.0963072
  90.4884990  87.7301423  51.7494235  91.5751593  88.8290919  50.8670288
  90.7222808  85.5594425  50.1654566  91.2643421  84.6763818  49.8271145
  90.3278929  85.3818491  51.1659657  89.8983638  85.7635268  49.4816356
  91.1886290  87.3581168  47.6868766  90.5414715  88.3964179  47.6027816
  90.8904259  86.2867192  46.9293760  91.3429315  85.3920377  47.0513713
  89.9876879  86.4589559  45.7873231  89.4277708  87.3820154  45.9374999
  90.6982414  86.5327216  44.4341035  91.0760657  85.5346003  44.2125138
  89.9507200  86.8109030  43.6911856  91.8104634  87.4979974  44.3964107
  92.5560758  87.2946722  45.1650601  92.2514374  87.3396098  43.4122591
  91.3344594  88.9588359  44.5165941  92.0763253  89.8812523  44.8837141
  90.1712520  89.2559683  44.1330659  88.8622262  85.4068244  45.7276721
  89.0280557  84.3558263  46.3483238  87.6472508  85.6686144  45.1039752
  87.4559124  86.6185472  44.8191655  86.5363370  84.6701097  45.0339548
  86.7570056  83.8415906  45.7069783  85.1917436  85.2858364  45.4392268
  85.3053714  85.4380394  46.5125498  85.1137305  86.2526432  44.9419356
  83.9089671  84.4611030  45.1679957  83.8984049  84.1962779  44.1107081
  83.8357670  83.1502392  46.0379236  83.8458190  83.4143013  47.0954060
  82.9168205  82.6113226  45.8072572  84.6939302  82.5165785  45.8140254
  82.6796371  85.2713844  45.4050985  82.6805107  86.1364294  44.7419276
  81.7981483  84.6620899  45.2055015  82.6604601  85.6087094  46.4414108
  86.5780121  83.9592694  43.6621536  86.5418296  84.6200501  42.6359813
  86.5752883  82.6225253  43.6263817  86.6214747  82.1029239  44.4912404
  86.5515959  81.8635431  42.3488326  86.9546314  82.4219293  41.5039264
  87.5064744  80.6469230  42.6498173  86.9149804  79.8624774  43.1219180
  87.8038075  80.3260237  41.6514603  88.7725981  80.9231743  43.5022180
  88.4260607  81.4005600  44.4187962  89.6169731  79.6957340  43.8543291
  89.9642793  79.2180497  42.9381987  90.4756381  80.0037660  44.4509122
  89.0130630  78.9901878  44.4249406  89.6759263  81.7953240  42.6557034
  89.1601137  82.7238543  42.4110238  90.5868664  82.0214935  43.2099026
  89.9319247  81.2692768  41.7360088  85.2468879  81.3197179  41.7276449
  85.0216673  81.4524895  40.5500132  84.3307410  80.8317337  42.5535294
  84.5474346  80.7463435  43.5363070  83.0140973  80.4103688  42.0980704
  82.3565575  81.2797001  42.0961549  83.1086671  80.0247527  41.0829566
  82.4090104  79.3364794  42.9790259  83.1213133  78.8181619  43.8994044
  81.1995994  78.8860492  42.7546629  80.7183600  79.3442009  41.9940020
  80.4658190  77.8254630  43.5260830  80.5338577  78.0266005  44.5952012
  79.0346999  77.8131405  43.1362264  78.6117623  77.1696216  43.9076579
  78.7539145  78.8478500  43.3327866  78.4986726  77.3919335  41.7740442
  78.8891290  78.1222001  41.0652741  78.9138146  76.4096236  41.5486035
  76.9455906  77.3375397  41.6606294  76.1986655  77.4614575  42.6604070
  76.4117213  77.1364684  40.5030458  81.0195028  76.3834975  43.3667632
  81.4056609  75.9728148  42.2400087  81.0656476  75.6187660  44.4828521
  80.8601381  76.1087294  45.3418055  81.3645268  74.1227316  44.5562922
  81.1372852  73.4982549  43.6922961  82.8965133  73.9485178  44.9177060
  82.9969289  72.8682827  45.0231054  84.0263289  74.4842777  44.0104757
  83.9268409  75.5645886  43.9049761  84.9929585  74.2508145  44.4568179
  83.9574795  74.0159828  43.0286101  83.1233832  74.3853025  46.2540227
  84.0522780  74.2792470  46.4719835  80.5060519  73.4747733  45.6673525
  79.6356613  74.1232383  46.1769988  80.7491745  72.2393412  46.0364811
  81.3544972  71.7389487  45.4014291  80.2032059  71.5195350  47.1850878
  79.1279905  71.6974637  47.2038619  80.4517807  69.9909002  47.1754876
  80.2132556  69.6528637  46.1670550  81.5176906  69.8574869  47.3602495
  79.7058014  69.2263130  48.1221355  79.9326632  68.2977366  48.0333692
  80.7087698  72.0441375  48.5354649  81.6877662  72.8509614  48.6368906
  79.9772509  71.6897135  49.6021878  79.1258349  71.1662585  49.4566377
  80.2966486  72.1425694  50.9747583  80.5563318  73.2007682  50.9451083
  79.0886818  71.9421824  51.8783280  78.7740584  70.8985774  51.8772386
  79.5222436  72.3470823  53.3035649  79.8365872  73.3907704  53.3055468
  78.6843397  72.2192299  53.9888907  80.3523631  71.7175405  53.6239988
  77.8330599  72.8080913  51.4905787  78.0908405  73.8415550  51.7221013
  77.7065093  72.6982811  50.4135336  76.5084630  72.4323516  52.2078963
  76.6341049  72.5423710  53.2850266  75.7102015  73.0914071  51.8665408
  76.2497749  71.3990956  51.9764605  81.5558282  71.4648885  51.5057961
  81.5527110  70.2692348  51.8368243  82.7233006  72.1456738  51.6390348
  82.7133904  73.1554951  51.6552216  83.9977864  71.4745069  51.6708169
  84.0183151  70.5801465  51.0480833  85.0372034  72.5106883  51.0981168
  85.0347736  73.4081979  51.7166397  86.0333502  72.0682528  51.1046500
  84.7636460  72.7735329  50.0762664  84.3049432  70.9828629  53.1091975
  84.6424104  71.7375086  54.0146155  84.1575046  69.6738511  53.3854873
  83.5852527  69.1706618  52.7225940  84.7409479  68.9242460  54.5191994
  84.4054673  69.3741652  55.4536108  84.3315276  67.4796114  54.5080766
  83.2872117  67.4361301  54.1988632  84.9499230  66.9682035  53.7704120
  84.4883680  66.8002401  55.8586994  84.3153591  65.7314173  55.7330546
  85.5316899  66.9700990  56.1246438  83.5765637  67.3404267  56.9821589
  84.0106611  67.2896138  58.1654710  82.4349726  67.8794960  56.7531985
  86.2778594  68.9493139  54.4754311  86.9718719  68.8646818  55.5039227
  86.7336615  69.0545807  53.2346768  86.0492093  69.0276711  52.4924501
  88.1341893  68.9601676  52.8805269  88.7059507  69.7685199  53.3363279
  88.6760636  67.6154115  53.4069948  89.6532742  67.4004250  52.9746300
  88.7563032  67.6337696  54.4938824  87.6358091  66.2095474  53.0087557
  88.4017233  65.2976779  53.6010121  88.3807259  69.3062247  51.4100055
  87.4406358  69.5383645  50.6681693  89.6605688  69.5550649  51.0895953
  90.4133349  69.2163536  51.6715894  89.9990800  70.2751502  49.8788731
  89.4003083  69.9652983  49.0223899  89.6715127  71.7356079  50.2022520
  88.5839645  71.7659841  50.2687013  90.0992727  71.8536680  51.1978338
  90.1430187  72.8341771  49.3296072  91.2247377  72.7764285  49.2085701
  89.4780202  72.6921587  47.9820580  88.3962260  72.7502749  48.1022350
  89.8136057  73.4940063  47.3243927  89.7433218  71.7294904  47.5450396
  89.8156751  74.2234598  49.7962308  90.2673058  74.3949763  50.7733241
  90.2075916  74.9486269  49.0830441  88.7341840  74.3366364  49.8715106
  91.4870009  70.0880179  49.6450917  92.2870588  70.0078013  50.5826938
  91.8508040  69.7852372  48.4141095  91.0840373  69.7035509  47.7618093
  93.2695668  69.5236713  47.9027100  94.0666501  70.1521493  48.2999163
  93.6328320  68.0817820  48.1353976  93.6109406  67.9904831  49.2213468
  92.8030197  66.9208062  47.4985799  92.8248344  67.0111755  46.4125518
  93.2329405  65.9630113  47.7916601  91.7716513  66.9772816  47.8467040
  94.9350491  67.9451632  47.8513026  95.1988792  67.0326633  47.9903635
  93.3893469  69.8551212  46.4046671  92.4352353  69.6139737  45.6825169
  94.5352771  70.3861152  45.9679404  95.2493597  70.4550789  46.6788760
  94.8771326  70.7593194  44.6162775  93.9748882  70.9856070  44.0480802
  95.7789556  72.0198154  44.6364323  95.1807598  72.8571087  44.9958776
  96.6366816  71.8780320  45.2939303  96.2732872  72.3182410  43.2020336
  97.6422969  72.2663804  42.7987421  98.4099523  72.1190292  43.5584080
  97.9997051  72.3990164  41.4750809  99.0454112  72.3291030  41.1755602
  96.9957007  72.6529266  40.4994478  97.3169865  72.7350605  39.1719511
  98.2532693  72.6056781  39.0039199  95.6915764  72.7961825  40.8679425
  94.9152877  72.9822213  40.1257391  95.3549482  72.7008445  42.2256925
  94.3409525  72.9302933  42.5532076  95.7262215  69.6144367  44.0890615
  96.7243453  69.1424484  44.7144942  95.4533438  69.1292279  42.8613192
  94.5633692  69.4109110  42.4757037  96.2233969  68.0951704  42.1544782
  96.8990463  67.6377830  42.8772464  95.3602082  66.9635913  41.4879476
  94.5389447  67.5309099  41.0500263  95.8578924  66.3857890  40.7091312
  94.8051856  66.0028093  42.5679415  95.6169406  65.7254216  43.2404075
  93.6462071  66.6908006  43.3965372  92.8338358  66.9680720  42.7247692
  93.2738482  65.9948695  44.1482882  94.0313293  67.5841240  43.8882227
  94.4420004  64.6441189  41.8847995  95.3349381  64.2155202  41.4297556
  94.0490300  63.9547312  42.6320745  93.6884825  64.8135602  41.1156445
  97.2100997  68.8038291  41.2177396  98.1222458  69.5198299  41.6778074
  97.0102606  68.6979409  39.9347688  96.2354743  68.1428264  39.6006231
  97.8429390  69.4092442  38.9412370  98.3869663  70.2634404  39.3443280
  98.8599997  68.3118228  38.5599145  99.3482436  67.9390208  39.4603232
  98.3262381  67.4960402  38.0723723  99.9174993  68.8760341  37.6011584
 100.1088802  70.1786970  37.6091462 100.6082763  68.1731381  36.8266023
  96.9557696  69.8020654  37.7263481  95.8560859  69.2604358  37.6065776
  97.4069662  70.7048721  36.8323354  98.2967474  71.1053128  37.0931722
  96.7737608  71.1615016  35.5759284  97.3257563  72.0110933  35.1739407
  96.7720797  70.0348853  34.5265672  96.0733585  69.2745614  34.8755593
  96.4033786  70.4667937  33.5961831  98.1198106  69.3713668  34.2558949
  99.0737687  69.9923030  33.7691669  98.2901202  68.1147379  34.5396773
  99.1820537  67.6760784  34.3604228  97.5297559  67.5826144  34.9381636
  95.3056987  71.5714717  35.9932281  94.3407128  71.1930619  35.3059747
  95.0881140  72.3791796  37.0159826  95.9318487  72.5070510  37.5562233
  93.8527786  73.0841385  37.4582589  94.1573930  73.9249559  38.0814245
  93.3482336  73.4571597  36.5669740  92.8619641  72.1866284  38.2648736
  91.9025442  72.6200159  38.8101916  93.2207810  70.9379049  38.4298769
  94.1192561  70.6575576  38.0634793  92.3272231  69.9035149  38.9342036
  91.2811306  70.1642055  38.7734860  92.5959626  68.5650035  38.2876415
  93.6557706  68.3336410  38.3943075  91.7568325  67.4477880  38.9452215
  90.6968251  67.6782338  38.8385448  91.9721234  66.4966102  38.4583837
  92.0084118  67.3788204  40.0035470  92.3428229  68.5397123  36.7903621
  92.9880319  69.2685854  36.2999017  92.5586246  67.5445187  36.4016220
  91.2998737  68.7878592  36.5934333  92.4416466  70.0123107  40.4347674
  93.5470001  70.0028086  40.9736591  91.2565154  70.0626241  41.0737585
  90.4389800  70.0107178  40.4829616  91.0597876  70.1744779  42.5328914
  91.9352360  69.9246381  43.1322823  90.6065193  71.6252192  42.8920730
  89.7985351  71.8950745  42.2120444  90.1076643  71.7737171  44.3908215
  90.9153095  71.5044582  45.0714902  89.8076867  72.8055077  44.5739115
  89.2567830  71.1133494  44.5582049  91.7172914  72.6017330  42.5719699
  91.9520329  72.5500408  41.5088018  91.3969104  73.6126281  42.8240551
  92.6041775  72.3469259  43.1521485  89.9656620  69.1511174  42.8447916
  88.9003076  68.9749072  42.1909217  90.1085574  68.5550298  43.9771155
  91.0137907  68.6320061  44.4183939  89.0532238  67.7324443  44.6569486
  88.2492592  67.5297633  43.9493749  89.6122238  66.3821889  45.1711909
  90.0563582  65.9436565  44.2775840  90.3793190  66.5018687  45.9362672
  88.6359805  65.3823617  45.6977559  87.7220202  64.7672457  44.8306009
  87.8121167  64.9913632  43.7677021  86.7283917  63.9006955  45.2774413
  86.0127128  63.4492724  44.5903302  86.6615395  63.6124834  46.6504717
  85.9175985  62.9141116  47.0337844  87.5428437  64.2182168  47.5120104
  87.4573573  63.9524987  48.5656641  88.5196517  65.1389595  47.0966540
  89.1507483  65.6340873  47.8346686  88.4144228  68.4357629  45.8226355
  89.0816031  69.0151805  46.7143315  87.0795819  68.4561234  45.9126824
  86.5442800  67.9624316  45.2128113  86.3368427  69.1476574  47.0211769
  87.0400327  69.5477481  47.7516223  85.3998175  70.2957229  46.5533913
  84.5284527  69.8334557  46.0895685  84.9304429  71.2510478  47.7183149
  85.8012941  71.7140711  48.1823498  84.2799405  72.0262561  47.3133467
  84.3854079  70.6736531  48.4650772  85.9918203  71.2054407  45.4483790
  86.2192000  70.6061182  44.5667821  85.2680314  71.9769796  45.1857821
  86.9054318  71.6743234  45.8138427  85.4152978  68.1869314  47.7692214
  84.2371214  67.9209572  47.5094830  86.0564217  67.4473740  48.6575929
  87.0536741  67.5991882  48.7079851  85.4600515  66.4536510  49.5506877
  85.0389551  65.6668754  48.9247795  86.2644948  66.0412503  50.1597000
  84.3774253  66.9901437  50.4624488  84.4299091  68.1179816  50.9330496
  83.3288317  66.2305878  50.6717770  83.3660715  65.3171742  50.2423726
  82.0500640  66.6664406  51.2909050  82.2669243  67.4210621  52.0469587
  81.0930818  67.2492223  50.2922617  81.6201873  67.8581317  49.5577629
  80.5380653  66.4629576  49.7805542  80.1970699  68.0601526  51.0184827
  79.5630601  68.4556622  50.4158190  81.3926952  65.6010111  52.1901915
  81.3158006  64.4289614  51.8355019  80.8510837  66.0679000  53.2991670
  81.0826199  67.0115202  53.5749771  79.9378276  65.2774638  54.1774676
  79.8994198  64.2288819  53.8823408  80.5161265  65.3666804  55.5936911
  81.5354218  64.9842385  55.5400772  80.5387898  66.4243249  55.8563213
  79.7287450  64.5851941  56.6709578  78.6994062  64.9380357  56.6071978
  79.7720015  63.5370735  56.3748596  80.2243444  64.7281160  58.0971080
  79.3666948  64.5409340  58.7432498  80.9685435  63.9457938  58.2462362
  80.8192179  66.0206669  58.4666100  81.0478199  66.6113837  57.6799118
  80.8665272  66.5455445  59.6911472  80.4640656  65.8703294  60.7128430
  80.1086379  64.9333581  60.5869224  80.5060714  66.2814723  61.6344159
  81.5399304  67.6388464  59.8760065  82.0146873  68.0736130  59.0977494
  81.5862797  68.0501165  60.7973139  78.5581813  65.7986472  54.1407670
  77.6770974  64.9799213  54.2667561  78.3270370  67.0844783  53.9187046
  79.0983842  67.7333637  53.8549046  76.9449618  67.6224206  53.8307377
  76.2609916  66.9820767  54.3877328  76.8857162  69.0549535  54.4325311
  77.6932905  69.6283947  53.9774617  75.9274694  69.4275138  54.0705062
  76.9484281  69.2035830  55.9435924  75.9356256  69.0384784  56.3111144
  77.9186472  68.2481877  56.6655086  78.9317931  68.4130353  56.2988213
  77.8856393  68.4383375  57.7382874  77.6256686  67.2165293  56.4707144
  77.4708185  70.6036897  56.3447639  76.8038507  71.3685964  55.9470568
  77.5051551  70.6816170  57.4314330  78.4719731  70.7485698  55.9388104
  76.3603114  67.6481655  52.3646193  75.1928039  68.0751312  52.2145645
  77.1237480  67.1592979  51.3646602  78.1065539  67.0151715  51.5474704
  76.6128405  66.8298107  50.0443403  75.5633083  66.5726248  50.1872971
  76.6852724  67.7471196  49.4600481  77.2899300  65.7197469  49.2961858
  78.2202151  65.0998489  49.7699389  77.0803196  65.6912198  48.0340908
  76.2512901  66.1473508  47.6808857  77.9690457  64.9916142  47.0643647
  78.1218654  63.9515484  47.3524769  77.2833334  65.0247537  45.6845874
  76.9650002  66.0638661  45.6008697  77.9948287  64.7981641  44.8905271
  76.0596998  64.1020093  45.5547703  75.5368123  63.9863943  44.3921247
  75.4579664  63.5192896  46.4802458  79.3701521  65.6833698  47.0212378
  79.4183792  66.8801260  46.8416523  80.5116792  64.9644848  47.0883887
  80.4695309  63.9854125  47.3328070  81.8380930  65.5520194  46.7541501
  81.9616913  66.4667412  47.3338971  83.0092628  64.6243397  47.0527748
  82.9712268  63.7491768  46.4041281  83.9528805  65.1482101  46.9003101
  82.9093912  64.2096963  48.4194919  83.6393805  63.6228348  48.6299890
  81.9963405  65.8584933  45.2237271  81.4844572  65.0933504  44.4675633
  82.7856295  66.8652523  44.7926296  83.2056686  67.5033609  45.4532989
  83.0504243  67.0578321  43.4048627  82.4684582  66.3491149  42.8156814
  82.6526598  68.5353386  42.9621485  83.3070977  69.1936256  43.5335227
  82.9085555  68.5982130  41.9044792  81.1755791  68.9718060  43.1639845
  80.4937213  68.4870193  42.4653053  80.8764247  68.7363391  44.1853386
  81.0854967  70.4734851  42.9663589  81.6975665  71.2297075  43.6991967
  80.4033247  71.0175873  41.9986382  80.3738880  72.0231635  41.9089094
  79.9071991  70.4312025  41.3428077  84.5155215  66.8462522  43.1450354
  85.3165989  66.9836090  44.0467239  84.8030968  66.4446300  41.8896056
  84.2463018  65.7507200  41.4115183  86.0572659  66.9132865  41.2394324
  86.7841528  67.2394088  41.9833268  86.6720437  65.7034184  40.4290095
  86.6989311  64.8244500  41.0730520  85.9361206  65.5521866  39.6392968
  88.0135226  65.9143099  39.8223356  88.1041012  66.9314992  39.4412553
  89.0617765  65.6850095  40.9261807  88.9721155  64.6678133  41.3074571
  90.0607140  65.8317983  40.5154769  88.8957687  66.3928304  41.7382962
  88.2534345  64.8743255  38.7716688  87.4883872  64.9540882  37.9993735
  89.2362800  65.0273977  38.3259280  88.2104908  63.8835179  39.2239466
  85.8101840  68.2067284  40.3961486  84.7860871  68.3240628  39.6992740
  86.7510528  69.1706894  40.5050074  87.5902008  69.0083814  41.0431394
  86.5313175  70.5684725  39.8999547  85.9068304  70.6527610  39.0105670
  86.0123616  71.5580213  40.9617888  85.7439160  72.4840940  40.4534330
  84.8073116  71.0276721  41.7155541  85.0751298  70.1017861  42.2245822
  84.4841694  71.7652177  42.4502010  83.9955995  70.8344235  41.0142124
  86.9640465  72.2587661  42.0090704  87.7135249  72.8489359  41.4817338
  86.3766031  72.9115807  42.6547041  87.4598678  71.5001705  42.6147062
  87.7967902  71.1012794  39.2385586  88.8472045  71.1566343  39.9388697
  87.7467197  71.4440771  37.9835938  86.8758288  71.3729630  37.4770456
  88.9238674  72.0833582  37.2941273  89.8572183  71.6720812  37.6785835
  88.8472120  71.8004030  35.7826504  88.4639931  70.8001150  35.5809912
  88.2294064  72.5362215  35.2678811  90.3056209  71.9058902  35.2748821
  90.6772420  72.8780288  35.5988345  90.8665206  71.1174418  35.7767215
  90.4798003  71.7729304  33.7736172  91.5404684  71.9073883  33.5614775
  90.1818275  70.7593039  33.5055256  89.6648091  72.7772791  32.9551149
  89.6149065  72.4472167  31.9174883  88.6562379  72.8469797  33.3625768
  90.3008188  74.0755016  33.0179075  91.2352440  74.0112280  32.6399948
  89.7643434  74.7396555  32.4782837  90.3467740  74.3817185  33.9792703
  88.8416452  73.6164072  37.3796043  87.8605455  74.1676215  36.8180421
  89.8409075  74.2312519  38.0398451  90.3145645  73.6411503  38.7088208
  90.2040817  75.6339024  37.9820866  89.3966715  76.2679413  38.3483962
  91.4702583  75.8343073  38.9172661  92.1770585  75.1372713  38.4670732
  91.8321470  76.8539545  38.7851447  91.3367238  75.5320065  40.4040329
  91.1964176  74.4642763  40.5724590  92.5963222  75.9690239  41.0396858
  92.7370949  77.0368195  40.8720713  92.5504507  75.7728622  42.1109080
  93.4322848  75.4203530  40.6058343  90.1049523  76.1724957  41.0009506
  89.2166853  75.7942784  40.4949537  90.0478908  75.9318915  42.0625319
  90.1605775  77.2539396  40.8765166  90.4092236  76.1853214  36.5929286
  90.6781079  75.4642311  35.6417615  90.2414583  77.4899408  36.5068997
  89.8483156  77.8941756  37.3448331  90.3989780  78.3412488  35.3396712
  91.2326421  78.0082463  34.7214377  89.0950486  78.2512033  34.5039179
  88.3079800  78.1481968  35.2509199  88.9520789  79.1801910  33.9519745
  88.9986641  77.1163234  33.5544767  89.9373903  76.7201253  32.8937519
  87.8446585  76.5502430  33.3596310  87.7675879  75.7764369  32.7151280
  87.0306174  76.8869269  33.8536773  90.8403897  79.7089658  35.8320696
  90.5247504  80.7548303  35.2606283  91.5308192  79.7880721  36.9680548
  91.8598215  78.9186793  37.3630395  91.7325309  81.0551197  37.7606908
  90.8281564  81.6401602  37.9278244  92.4282801  80.7987648  39.1468026
  93.4004354  80.3330178  38.9852686  92.6217940  82.1711660  39.8999495
  91.6499633  82.6373206  40.0622638  93.1042144  81.9938468  40.8611617
  93.2451155  82.8320318  39.2975971  91.7312253  79.7141806  40.0252056
  91.7242802  78.7634900  39.4920628  92.2754055  79.6004074  40.9627680
  90.7062693  80.0197774  40.2353880  92.4850358  82.1845150  36.9967354
  92.0472079  83.3401295  37.1099946  93.3899163  81.7797748  36.1683577
  93.6058625  80.7948025  36.2257705  94.2293384  82.6172988  35.3463802
  94.0338006  83.6670213  35.5653475  95.7176302  82.3240662  35.6272439
  95.7027873  81.2394441  35.5201280  96.4058653  82.7512883  34.8979197
  96.1818526  82.6925672  37.0471853  96.0477156  83.8702462  37.3642460
  96.8172496  81.8433459  37.6889437  93.7916759  82.5588686  33.8618734
  94.5120489  83.0466688  33.0010814  92.5531688  82.2467196  33.4882530
  92.1563091  81.5306984  34.0797895  91.7811980  82.7118553  32.3721057
  92.3719859  82.6054135  31.4623041  90.4818984  81.9244481  32.2056350
  90.6734603  80.8516320  32.2272873  89.7697106  82.1817295  32.9896598
  89.9401660  82.2859312  30.9327701  89.1186818  81.8107383  30.7880111
  91.4256050  84.1834365  32.3744257  90.8929850  84.6943726  33.3701757
  91.5869573  84.7560703  31.1871721  92.1961885  84.2106234  30.5943615
  91.1499797  86.0554758  30.7139397  90.8292060  86.6428083  31.5743140
  92.2496033  86.8391466  29.9635585  92.3367721  86.6068265  28.9021781
  91.8775666  87.8567189  30.0828703  93.6009334  86.7509922  30.5824524
  93.6725708  86.9820841  31.7558908  94.6570220  86.2818816  30.0001613
  95.5361494  86.2598625  30.4969006  94.5972069  85.9399637  29.0516809
  89.9022402  86.0627779  29.9100001  89.4798415  87.1537171  29.5549719
  89.2295638  84.9239142  29.7347117  89.4876179  84.1172691  30.2850126
  88.0814276  84.7862444  28.7494345  87.5101733  85.7083932  28.6426206
  88.7767775  84.4537444  27.3551414  87.9739066  84.5685841  26.6269179
  89.5022458  85.2567760  27.2250031  89.4769542  83.0845496  27.1413951
  90.4191517  83.0197695  27.6856085  88.7921001  82.3206169  27.5094723
  89.7282381  82.8674701  25.6818528  89.3709603  81.7441447  25.2034287
  90.2182903  83.7916655  24.9519064  87.0707193  83.6930898  29.0541703
  85.9705662  83.6884683  28.4783668  87.2351960  82.7955201  29.9888409
  88.1717459  82.6691702  30.3452246  86.1680217  82.0055360  30.5673233
  85.5691804  81.5385598  29.7853889  86.7699919  80.9267077  31.4189896
  87.5759712  81.3538756  32.0156672  86.0016229  80.5266181  32.0805314
  87.3390275  79.7734323  30.5218145  88.0407531  80.3115399  29.8845373
  87.8770950  79.0234808  31.1016060  86.3338212  79.0748575  29.6473241
  85.3490016  78.5135016  30.1705179  86.5481389  78.9406959  28.3957820
  85.8668397  78.4700595  27.8174792  87.3979416  79.3058509  27.9900744
  85.3127611  82.9062108  31.4566739  85.8398193  83.8580730  32.0496580
  83.9998570  82.6662859  31.6529814  83.5869047  81.8870300  31.1607112
  83.1740080  83.4357430  32.5009691  83.4204393  84.4798045  32.3078202
  82.1471444  83.2419856  32.1909552  83.2985098  83.1687246  33.9726884
  83.6801751  84.0229641  34.7570667  83.0112804  81.9590544  34.3766331
  82.3377440  81.4685181  33.8058247  83.5132664  81.2921727  35.5991796
  83.4328656  81.9354274  36.4754549  82.6097671  80.0442338  35.8140430
  82.8886397  79.5927536  36.7661433  81.5764329  80.3874743  35.8641083
  82.7354638  79.1059830  34.8045605  82.1586630  78.3605619  34.9869008
  84.9602820  80.8809604  35.6496197  85.5758524  80.4357631  34.6441409
  85.4775533  80.7683788  36.8483181  84.8669368  81.1137150  37.5749471
  86.9245148  80.4067111  37.2228004  87.5583500  80.3350665  36.3389344
  87.4550331  81.5304348  38.1150029  86.7426991  81.4882352  38.9389560
  88.4624577  81.3666903  38.4976037  87.3796823  82.9240999  37.4375888
  86.2892983  83.7458709  37.6584446  85.4982651  83.4879622  38.3626100
  86.2234746  84.9359484  36.9454307  85.3151987  85.5342996  37.0169323
  87.2777013  85.3312191  36.0461420  87.2833955  86.6012376  35.4622973
  86.5339559  87.1393735  35.7275324  88.3676674  84.4409421  35.8492185
  89.2074036  84.7261593  35.2155035  88.3575887  83.2025772  36.4697761
  89.1047539  82.4543283  36.2052617  87.2069591  78.9901291  37.7455113
  88.3334358  78.7348305  38.0756186  86.1582161  78.1158585  37.8590818
  85.2874011  78.4141110  37.4433583  86.1881946  76.8224273  38.5669843
  87.0005563  76.1696899  38.2474507  86.2830896  77.0164281  40.1062359
  87.2416686  77.4936190  40.3099870  85.1782724  77.8446069  40.6917842
  84.2193439  77.3677794  40.4888244  85.3198554  77.9306917  41.7691162
  85.1915272  78.8381025  40.2435740  86.3822691  75.7675482  41.0324601
  87.2753997  75.1964860  40.7788703  86.4404902  76.0893953  42.0722314
  85.5004025  75.1417934  40.8951898  84.9705039  76.0324050  38.2232618
  83.8618139  76.5351339  38.4557360  85.1198878  74.8944964  37.6227301
  86.0798773  74.7108715  37.3681692  84.0581303  74.0883721  36.9821735
  83.1239260  74.3270979  37.4904761  83.9111531  74.4505031  35.4751208
  83.8687186  75.5358324  35.3836947  85.0906455  73.9121615  34.6468792
  85.1334497  72.8267738  34.7374450  84.9541919  74.1837970  33.6001247
  86.0211334  74.3439664  35.0154420  82.6158229  73.7623294  34.8803068
  81.7367746  74.1122999  35.4215061  82.5188163  74.0197024  33.8255801
  82.6985758  72.6803978  34.9836348  83.9988231  72.6111246  37.3728557
  84.9876545  71.9593096  37.4156418  82.8152555  72.0975360  37.7513203
  82.0519206  72.7297579  37.9455228  82.6281665  70.6683503  38.0428113
  83.2163265  70.3728309  38.9116239  81.1735663  70.5730023  38.3939793
  80.5715156  70.8571495  37.5309061  80.9350298  69.5490123  38.6814599
  80.9552333  71.2434339  39.2252141  83.1453705  69.7197857  36.8755105
  83.1919792  70.1038538  35.7127081  83.6782478  68.5602289  37.2369502
  83.6474203  68.2474211  38.1967941  84.2391583  67.6394397  36.2131808
  84.2527060  68.1440071  35.2470921  85.6886724  67.2004963  36.5648165
  85.7274273  67.0122007  37.6377293  85.8952292  66.2755234  36.0264305
  86.7161554  68.2303620  36.2009697  86.6670639  68.2704323  35.1128129
  86.3137611  69.1541892  36.6165707  88.4400795  68.0507339  36.7115667
  88.9302413  66.7346025  35.6375361  88.8024356  67.0445839  34.6003880
  89.9771418  66.4895825  35.8166034  88.3137583  65.8570923  35.8325379
  83.4242449  66.4132156  36.2618094  83.2659764  65.7766415  35.2054447
  83.0284848  65.9720229  37.4335005  83.0658697  66.6811337  38.1517370
  82.6058323  64.6925834  37.7895514  81.8111463  64.3518034  37.1258932
  83.7982299  63.7242317  37.6676821  84.1938485  63.7861490  36.6539014
  84.5677003  64.0296784  38.3767081  83.3714639  62.2677171  37.9661785
  84.3494552  61.7927107  38.0436564  82.7878277  62.0442854  38.8592329
  82.6396845  61.7313269  36.7304555  83.1821416  61.0038653  35.9074768
  81.5239075  62.2153522  36.4218096  82.0836525  64.8236606  39.2359791
  82.9402465  65.2176629  40.0986806  80.8361693  64.4556625  39.5341804
  80.1868242  64.2123427  38.7998468  80.3432948  64.4680070  40.9330715
  81.0853583  64.9517486  41.5682369  79.1012046  65.2603247  40.9725776
  78.3902764  64.7525708  40.3207591  78.4795453  65.4417332  42.3644104
  79.1897635  65.9498698  43.0167040  77.5711884  66.0385831  42.2822088
  78.2356510  64.4657370  42.7839908  79.3611173  66.5849591  40.5234771
  78.5496262  67.0971409  40.5509031  80.1473607  63.0260935  41.4340017
  79.9333218  62.0151547  40.7493717  80.1574968  62.9809558  42.7862327
  80.0717865  63.8505304  43.2927828  80.4167425  61.6999906  43.5824594
  80.2869447  60.8501704  42.9123419  81.8019808  61.6314372  44.1876043
  81.9621390  62.5049180  44.8196485  82.0010387  60.7266362  44.7618962
  82.8401044  61.6893592  43.1033302  83.4730113  62.9280159  42.8207357
  83.2824946  63.8262735  43.4080487  84.3834219  62.9722726  41.7277070
  84.8473588  63.9341927  41.5095947  84.7065410  61.8041065  40.9126861
  85.4287452  61.8640936  40.0984856  84.0444568  60.5447827  41.2048485
  84.1971501  59.6298142  40.6324695  83.1458284  60.5503124  42.3197971
  82.6414197  59.6311461  42.6177991  79.2912434  61.5810509  44.6319861
  79.3334752  62.3610224  45.6233381  78.3204371  60.7143554  44.4056191
  78.4341980  60.1954367  43.5466190  77.0869700  60.5872308  45.1155285
  76.5850349  61.5480322  45.2296388  76.1914777  59.6711920  44.3787705
  76.0627094  60.1519888  43.4090523  76.5856167  58.2333158  44.1768505
  76.7141237  57.7517006  45.1461968  75.8060742  57.7176736  43.6160246
  77.5226064  58.1873798  43.6218362  74.9438149  59.6146141  45.0036878
  74.3696144  59.0176841  44.5183337  77.2189900  60.2746123  46.5810745
  78.1050797  59.5762253  46.9545269  76.4413170  60.8743409  47.4390788
  75.7856073  61.5438770  47.0624282  76.5515301  60.7499937  48.9175614
  76.9936231  59.7825945  49.1558717  77.4198766  61.8522932  49.5385607
  78.4348268  61.7628242  49.1513005  76.9513184  62.7455069  49.1253748
  77.4870624  61.9932805  51.0379781  77.5615742  61.0111090  51.7190450
  77.5674405  63.1872059  51.5249602  77.6141975  63.3192208  52.5252030
  77.5831426  63.9829296  50.9031258  75.1459459  60.6616689  49.6060394
  74.3692144  61.6341703  49.4456952  74.7926081  59.5980979  50.3274645
  75.3943326  58.7870442  50.3126671  73.5453576  59.5277341  51.1065563
  72.6885778  59.8699501  50.5261118  73.3398232  58.0886906  51.4590931
  74.2861086  57.8169915  51.9268781  72.5455951  58.0625628  52.2051622
  73.0159781  57.0804804  50.3233178  73.8416745  57.0430694  49.6127358
  72.8182231  55.7256493  50.9300843  71.9923318  55.7621605  51.6404851
  72.5897202  55.0051050  50.1447798  73.7284817  55.4221990  51.4472375
  71.7826554  57.4489066  49.4801919  71.9407473  58.4188830  49.0087554
  71.6286834  56.6923347  48.7107812  70.9036352  57.4968589  50.1229384
  73.5964056  60.3940855  52.3362564  72.6212948  61.0350349  52.6791148
  74.6844145  60.4841256  53.1104362  75.4998153  60.0069316  52.7533554
  74.8015379  61.2170838  54.4383874  74.0197506  60.8464232  55.1013494
  75.7779509  60.9906328  54.8666831  74.6563388  62.7575648  54.2971760
  74.9328729  63.2991798  53.2316475  74.3080888  63.4341849  55.3473456
  74.2973169  64.8680821  55.4337155  73.5653648  65.2367422  54.7150806
  75.2895636  65.2233562  55.1556403  73.9287875  65.2279191  56.8975930
  72.9140335  65.6235204  56.9408714  74.6249086  65.9713876  57.2858858
  74.0513565  63.8840790  57.6853199  73.3401617  63.7341315  58.4976109
  75.0665542  63.7782209  58.0677690  73.8033799  62.8682332  56.5899757
  74.4250904  61.9976718  56.7990142  72.3295087  62.4548486  56.5950652
  71.4453957  63.2191234  56.2649242  72.0456629  61.2392538  57.1040787
  72.7569740  60.5478066  57.2939119  70.6503887  60.8285427  57.1644073
  69.9330048  61.3937018  56.5693823  70.5765006  59.3396281  56.7788857
  71.2848419  58.8117078  57.4173628  69.1622338  58.6992408  56.9313017
  68.4533930  59.2263720  56.2927267  69.2042721  57.6502750  56.6380368
  68.8394300  58.7729781  57.9697908  71.2103905  59.1369961  55.3565574
  70.5004183  59.5129672  54.6198852  72.1252137  59.7280399  55.3133684
  71.5319062  57.6846967  55.0536681  70.6174329  57.0930651  55.0962176
  71.9672529  57.6085716  54.0572859  72.2422270  57.3081370  55.7897028
  70.0222774  61.2256475  58.4248191  70.0778187  60.5983285  59.4830157
  69.3505063  62.3716942  58.4446811  69.2720484  62.9091246  57.5931458
  68.6897812  62.9144018  59.7040079  69.3542560  62.8670402  60.5667531
  68.3306017  64.3867832  59.4404246  67.7205603  64.7730709  60.2569603
  69.6198305  65.1897373  59.3471149  70.2302353  64.8043042  58.5304459
  69.3833612  66.2372397  59.1602419  70.1706952  65.1036469  60.2837249
  67.5219136  64.5441962  58.1318518  66.5979310  63.9704641  58.2038917
  67.2843586  65.5964086  57.9752755  68.1125975  64.1768299  57.2926645
  67.4001438  62.1261341  60.0643178  67.0237063  62.1159532  61.2326227
  66.7418710  61.5380026  59.0746692  67.1071002  61.6621460  58.1412372
  65.4420151  60.8577826  59.2325187  65.4917024  60.1377798  60.0493579
  64.3380589  61.9017898  59.5573692  64.7634771  62.6547501  60.2208218
  63.9656526  62.3835626  58.6533180  63.1825414  61.1883921  60.2689231
  63.3407131  60.0836037  60.8635368  62.0437123  61.6935660  60.2313406
  65.1048115  59.9452271  58.0158622  65.4112351  60.3468380  56.9007509
  64.4756334  58.8143494  58.1697214  64.1913680  58.6028110  59.1155248
  64.2261557  57.8028522  57.1196413  64.0048447  58.3026811  56.1766187
  65.4747751  56.8868825  56.9179207  65.3176851  56.4562410  55.9289971
  66.3046503  57.5924824  56.8787285  65.7926391  55.7987907  57.8893694
  65.6525814  56.1869185  58.8982507  65.1016302  54.9731958  57.7190703
  67.4439131  55.2157131  57.7179991  67.2156275  53.8100186  58.8951153
  66.4280076  53.1521118  58.5278108  68.1470123  53.2498715  58.9779299
  66.9369935  54.1976067  59.8750336  63.0282938  56.9513608  57.3521388
  62.7486128  56.5661727  58.5059944  62.4524498  56.4672564  56.2761603
  62.8242475  56.6855863  55.3628160  61.2211900  55.7210806  56.3524169
  61.1183750  55.3195789  57.3605462  59.9683660  56.5912828  56.0327465
  59.0623023  56.0006811  56.1681619  59.9394889  57.4569189  56.6945172
  59.8954570  57.2296407  54.3881452  58.7401398  57.8710183  54.5390598
  61.2788795  54.5024747  55.4733262  61.9649942  54.5653574  54.4080533
  60.6070611  53.3925838  55.8137072  60.5044281  53.1429385  56.7869713
  60.2277008  52.3962322  54.7914679  60.6819191  52.5698833  53.8159525
  60.5753668  50.9464788  55.2524553  60.4790346  50.9711410  56.3379096
  59.7606754  49.7865247  54.6972973  59.8568929  49.7609314  53.6118536
  60.1286694  48.8499969  55.1163398  58.7122965  49.9169155  54.9656283
  62.0847853  50.6294317  55.0093996  62.6993670  51.3319208  55.5723388
  62.3008143  49.6132207  55.3391665  62.3093945  50.7215128  53.9467743
  58.8752785  52.5422972  54.2744766  58.0109681  52.7427046  55.1087849
  58.6789067  52.4269130  52.9631721  59.4924714  52.4807824  52.3670933
  57.3702130  52.4954251  52.3465848  56.6653419  52.0207448  53.0291787
  56.8082960  53.8846894  51.9401098  57.3877989  54.2992079  51.1152158
  55.3729496  53.6979284  51.5033774  54.7926795  53.2838451  52.3279515
  54.9531430  54.6606587  51.2118070  55.3367425  53.0144421  50.6550631
  56.8941229  54.9351695  53.0899785  57.9355742  55.0713325  53.3814248
  56.4864788  55.8856316  52.7456708  56.3203781  54.5836560  53.9475075
  57.3344130  51.4296478  51.2502819  58.0919521  51.4875140  50.2570533
  56.4454659  50.4636559  51.3865129  56.1527055  50.2755666  52.3346759
  56.0020781  49.5089636  50.2941239  56.8445286  49.1688513  49.6918781
  55.3729939  48.2857571  50.9987429  56.0173278  47.9815251  51.8235919
  54.3681704  48.4777084  51.3750202  55.3220721  47.1860769  49.9695513
  55.9998483  47.2329557  48.8874456  54.5488461  46.1975378  50.1518176
  55.1337191  50.0679110  49.1169873  53.8877541  49.8649011  49.0605767
  55.8002055  50.8433096  48.2742335  56.8096290  50.8466566  48.3081792
  55.1133717  51.6783714  47.2093442  54.4389143  52.4256695  47.6273776
  56.2790540  52.4095619  46.4887298  57.0227270  51.6163890  46.5657128
  56.1527345  52.6881747  45.4425375  56.7537489  53.6417185  47.2968188
  56.4717434  53.4667811  48.3350724  58.2480945  53.9147925  47.2167445
  58.5307920  54.0902962  46.1787757  58.4895222  54.7951651  47.8123597
  58.7962506  53.0548617  47.6016397  55.9258595  54.9343359  47.1256309
  54.8972103  54.7514151  47.4363081  56.3552556  55.7255101  47.7402557
  55.9400249  55.2396023  46.0793466  54.4055291  50.6978505  46.2249299
  54.9632715  49.7373298  45.7285990  53.0773166  50.9742208  45.9993772
  52.7417714  51.7424862  46.5626505  52.0691895  50.1642539  45.2200617
  51.1460699  50.7395260  45.1492704  52.5534400  49.8040779  43.7585297
  53.3571296  49.0716016  43.8337678  51.7144375  49.3677361  43.2165144
  53.0627922  51.0511989  43.0013147  52.3139869  51.8432763  42.9991338
  53.9240872  51.3677810  43.5895714  53.5014276  50.7655384  41.5751198
  54.3038657  49.8000915  41.3767449  53.0352240  51.3795490  40.5957158
  51.5311599  48.9622627  45.9959827  50.9029765  48.0448145  45.3364903
  51.7479985  48.8326966  47.3211592  52.0770091  49.6572064  47.8028592
  51.7235879  47.5713446  48.0490303  52.3689307  47.6328249  48.9253020
  50.2692622  47.2562527  48.5215965  49.6070466  47.1199788  47.6666116
  50.2509299  46.3596994  49.1412384  49.7747283  48.5115513  49.3847307
  50.6110802  49.0393834  49.8429987  49.1914248  49.2087627  48.7832697
  48.9071052  47.9296035  50.4540188  48.0709587  47.4473711  49.9476495
  49.5061896  47.1752880  50.9641220  48.3921518  48.8349733  51.4234632
  48.4053431  49.8130578  51.1719158  47.8529254  48.4871635  52.5848057
  47.8721916  47.1897398  52.9573049  48.2943301  46.5000016  52.3521931
  47.4643786  46.9146691  53.8394184  47.3835290  49.4279504  53.3432521
  47.4365697  50.3900795  53.0406064  46.9670055  49.1943360  54.2332134
  52.3896597  46.3820525  47.3418573  51.8566375  45.3077641  47.2667324
  53.6213278  46.5760518  46.8271467  53.9439940  47.5306418  46.8960220
  54.3961260  45.6387852  46.0127419  53.7413953  45.1247535  45.3090386
  55.4809842  46.4056770  45.2111898  55.0125269  47.3369201  44.8927038
  56.2770132  46.6248259  45.9228159  56.0512027  45.7097111  44.0301283
  56.9634626  46.1766662  43.6588659  56.2874206  44.7282964  44.4413803
  55.0658058  45.5258445  42.8384879  53.8932750  45.8256149  42.9306688
  55.5710675  45.1757643  41.6992564  54.9664859  45.0458340  40.9006948
  56.5674859  45.0342047  41.6143287  54.9062518  44.3879963  46.7569923
  55.2314151  43.4366445  46.0544942  54.8473177  44.3718398  48.0975872
  54.4386091  45.1613400  48.5769055  55.3570917  43.2427925  48.9113204
  54.7438823  43.1795611  49.8102504  55.2366884  42.3317319  48.3251711
  56.8003080  43.3798329  49.3119983  57.4487198  42.4986791  49.9077466
  57.3823727  44.5158881  49.0894040  56.7585996  45.2578330  48.8056360
  58.7650540  44.7861164  49.1350755  59.2427220  44.2557071  49.9588464
  59.4001179  44.2829075  47.7725482  59.2296630  43.2073620  47.7251532
  58.8495711  44.7732285  46.9696885  60.9016912  44.5708400  47.6138737
  61.0440408  45.5015382  47.0646577  61.2218694  44.7065627  48.6469116
  61.7690238  43.4867823  46.9717296  61.3859366  43.0471929  45.8736088
  62.9099616  43.1104953  47.4973303  63.4573980  42.3913711  47.0464699
  63.2359724  43.5415537  48.3505636  59.0655605  46.2348786  49.3849653
  59.0060255  47.0345251  48.4655682  59.1740296  46.5915255  50.6237823
  58.9752866  45.8578223  51.2888238  59.5405084  47.8970696  51.1312012
  58.6472846  48.5207269  51.0951195  59.8499172  47.7660973  52.1681254
  60.6584888  48.5884266  50.3643827  61.6632344  47.9462025  50.0407895
  60.5263902  49.9033389  50.1654116  59.6578288  50.4053596  50.2823546
  61.7635608  50.6863711  49.6915903  62.5615221  49.9629311  49.5242832
  61.5709123  51.5024564  48.4181755  60.9631120  52.3799520  48.6388099
  62.5430065  51.8199597  48.0409164  60.8555908  50.6331676  47.3421670
  61.2942028  49.6696646  47.0825860  59.8653880  50.4774828  47.7703757
  60.7142063  51.4466856  46.0929681  61.5455346  52.2675206  45.7778919
  59.7462083  51.1391873  45.2077236  59.6463609  51.6845773  44.3635189
  59.1247925  50.3646767  45.3923231  62.0864585  51.5765956  50.8724046
  61.1474284  52.0749835  51.5488187  63.3716905  51.9710739  51.0114707
  64.0296938  51.5562754  50.3672091  63.8736278  52.9056637  52.0001638
  63.1866597  52.9836094  52.8428372  65.2277966  52.3891642  52.5160168
  65.1013457  51.3861834  52.9236181  65.8185356  52.3373072  51.6014468
  65.9433981  53.2608305  53.5312283  66.0858072  54.2316123  53.0564619
  65.2176609  53.4486852  54.8732590  65.0752946  52.4783114  55.3488694
  65.8151765  54.0873899  55.5237451  64.2471766  53.9137465  54.7001155
  67.2724734  52.6705195  54.0150318  67.9436020  52.5410100  53.1659658
  67.7288138  53.3461844  54.7384484  67.0915778  51.7039416  54.4852477
  64.0235150  54.2713584  51.3601460  64.5962746  54.3843010  50.3002232
  63.4764646  55.3115494  52.0541744  62.9138594  55.0403928  52.8479306
  63.4889796  56.6947492  51.6694514  64.2544657  56.8723473  50.9140780
  62.1526286  57.0876335  51.1012455  61.4189023  57.0771324  51.9072447
  62.1966893  58.4784489  50.4714105  62.9299153  58.4896056  49.6649639
  61.2138610  58.7281431  50.0716583  62.4777812  59.2115307  51.2275058
  61.5979606  56.1648866  50.0149552  61.4747519  55.1601033  50.4190989
  60.6324236  56.5407141  49.6764413  62.2908425  56.1352754  49.1740399
  63.9728366  57.6803365  52.7346974  63.3770781  57.9027752  53.7665418
  65.1537958  58.1579466  52.4626647  65.5372561  58.0204275  51.5384644
  65.9674505  58.9369485  53.4658387  65.5686353  58.7740754  54.4670968
  67.4336731  58.5344200  53.4554373  67.9083597  59.0679721  54.2789026
  67.6992121  57.0284320  53.6008382  67.2251905  56.4942226  52.7774165
  68.7734763  56.8448784  53.5817733  67.2876568  56.6760527  54.5466457
  67.9748597  58.9839924  52.2010061  68.9044412  58.7494914  52.1511295
  65.9245346  60.4404790  53.1422134  66.2662971  60.8977235  52.0878151
  65.7613689  61.1888762  54.2086582  65.2298530  60.8703834  55.0062499
  66.3434777  62.5532608  54.2505156  66.0311282  63.1187891  53.3726120
  65.8542829  63.3082062  55.5321235  66.3119101  62.9078216  56.4367609
  66.0494368  64.3787974  55.4700796  64.1093154  63.1402064  55.7502741
  64.0386733  63.8607787  56.8659280  67.8508839  62.4794231  54.2476144
  68.4655641  61.5258022  54.7435594  68.5452783  63.4140515  53.5256952
  67.9290008  64.1931720  53.3432872  69.8809856  63.4230662  52.9111168
  70.6094024  63.0762624  53.6440802  69.9608547  62.4938440  51.6446746
  69.9308677  61.4396981  51.9203129  69.1564321  62.7078782  50.9409746
  71.1808800  62.7818637  51.0528758  71.2906324  62.2418420  50.2667900
  70.3943668  64.8239104  52.5963845  69.7060911  65.8181791  52.3342181
  71.7008063  64.9981891  52.7517413  72.2682858  64.2053598  53.0153472
  72.3721178  66.3124741  52.5550155  73.4420919  66.1778047  52.7135041
  72.1952861  66.6374587  51.5297278  71.8693579  67.3651271  53.4932837
  71.3720679  67.0664816  54.6046340  72.1932300  68.6376267  53.1963285
  72.8593400  68.7321098  52.4430225  71.7957062  69.8546292  53.9379125
  70.7439738  69.6943078  54.1750941  72.5782105  69.9995724  55.2509676
  73.6318643  70.1697653  55.0297259  72.1853989  70.8440006  55.8173070
  72.4736711  69.0879954  55.8393535  71.8677102  71.1568657  53.0669180
  72.7115039  71.2208210  52.1395913  71.1023237  72.1883295  53.4135458
  70.5149974  72.0597819  54.2251015  71.0570764  73.5006570  52.7096181
  70.2213273  74.1025234  53.0665207  72.3745858  74.2604653  53.0020242
  73.2145215  73.6950933  52.5983389  72.4106604  75.2826139  52.6251808
  72.5901456  74.3439728  54.5187105  71.9144417  75.1622336  55.3567155
  71.1453594  75.8040634  54.9269868  72.1682733  75.2032807  56.7070246
  71.6171414  75.8706925  57.3695318  73.1667865  74.3569255  57.2305782
  73.3717211  74.3602953  58.3011343  73.9175988  73.4869239  56.3537065
  74.6910502  72.8047280  56.7065263  73.6119090  73.5498039  55.0009723
  74.1853644  72.9613955  54.2847151  70.9214078  73.2436989  51.1759243
  70.0377944  72.4964266  50.8017925  71.7059825  73.8780344  50.3207472
  72.3272036  74.5921150  50.6732704  71.6123529  73.6866449  48.8358332
  70.5905407  73.8412552  48.4892864  72.5275813  74.7232233  48.1507453
  72.3076054  74.7249168  47.0831747  72.3079465  75.7059547  48.5679976
  73.9991566  74.3989759  48.3646416  74.2449751  74.4885416  49.4227777
  74.2037199  73.3821667  48.0294475  74.8606208  75.3941320  47.5489297
  74.3709748  75.6004619  46.5972083  74.9692563  76.3224128  48.1098152
  76.2546904  74.7845915  47.2884604  76.5852505  74.2780008  48.1952110
  76.1692133  74.0600052  46.4786657  77.2436082  75.8280226  46.9162654
  77.3232807  76.4993047  47.6666869  78.1423951  75.3971223  46.7531491
  76.9377058  76.2972732  46.0758329  71.8975465  72.2512004  48.4617215
  71.3768599  71.7833928  47.4695827  72.7170760  71.5582331  49.2710057
  73.3390386  72.0717478  49.8789239  72.9537483  70.0780641  49.0899314
  72.9025493  69.8040705  48.0361737  74.2964103  69.7556985  49.5944404
  74.2015224  69.8221763  50.6782652  74.4511759  68.7157635  49.3068942
  75.4941621  70.5971874  49.1335793  75.3568970  71.6153689  49.4976748
  76.3457755  70.1425918  49.6397379  75.7454870  70.6247891  47.6702824
  75.7090859  71.7046903  47.0710292  76.0407721  69.5266576  47.1216023
  71.8240494  69.1515765  49.5282087  71.7521805  67.9783265  49.1185256
  70.7214469  69.6637509  50.1152922  70.7207919  70.6696448  50.2062672
  69.5390581  68.9049540  50.6269766  69.8795275  68.1828825  51.3691304
  68.8470363  69.6059770  51.0936371  68.8312572  68.1797873  49.5337263
  68.3585243  68.7434961  48.5588057  68.6562611  66.9097863  49.8872737
  69.0904035  66.6291634  50.7549549  68.0076208  65.8602886  49.0493731
  67.2585805  66.3177576  48.4030296  69.0698214  65.1311520  48.1492784
  68.5966610  64.2722322  47.6733844  69.4166970  65.8248368  47.3833940
  70.1901023  64.6864597  48.9363327  70.8252898  64.2448112  48.3679285
  67.1289627  64.7978659  49.7384217  67.1758900  64.6773972  50.9171113
  66.4149032  63.9660358  48.9121036  66.3773224  64.2409946  47.9409781
  65.7124539  62.8149380  49.3060637  65.9833573  62.5366881  50.3245369
  64.2012790  63.0947709  49.2586284  64.1039376  63.3626036  48.2065402
  63.7121323  62.1369633  49.4359422  63.5198195  64.2064319  50.1497107
  63.9550877  65.1735759  49.8981656  62.0643742  64.2474560  49.9172307
  61.6283035  63.2807365  50.1690135  61.6177392  65.0207832  50.5421970
  61.8696105  64.4712177  48.8683750  63.8481066  64.0056571  51.6389894
  64.9271552  64.0579255  51.7839778  63.3648470  64.7862546  52.2265513
  63.4852812  63.0303146  51.9632791  66.1363527  61.7041068  48.3567851
  66.3089133  61.8873018  47.1511797  66.3130141  60.4955562  48.9420972
  66.1347161  60.2983225  49.9164729  66.9850335  59.4721465  48.1381273
  66.7265068  59.6413432  47.0928352  68.4400517  59.4755862  48.2655131
  68.6505739  59.0095823  49.2281242  68.8054394  58.8335994  47.4639866
  69.1697319  60.8852677  48.1889438  69.0357681  61.3154075  47.1964045
  68.7489047  61.5583778  48.9358905  70.6296359  60.6939470  48.4564244
  70.7536088  60.3518867  49.4839089  71.0125793  59.9360486  47.7730183
  71.4033206  61.9230904  48.2747857  71.1228400  62.6432400  48.9250275
  72.3514734  62.2011063  47.3956382  72.9365270  61.3489098  46.5634547
  72.6621697  60.3768893  46.5655400  73.6534680  61.6762578  45.9318389
  72.8009729  63.3905551  47.3229825  72.4312013  64.1050584  47.9336003
  73.5250448  63.6135935  46.6550959  66.3267103  58.1590169  48.4497007
  65.7269140  57.9065867  49.5234532  66.2434542  57.2692269  47.4353939
  66.8478816  57.4121421  46.6389379  65.2315556  56.1483661  47.3749107
  64.7220584  55.9581588  48.3195444  64.1985779  56.5366145  46.3052148
  64.7650465  56.6998412  45.3883883  63.0853622  55.5327094  46.0414431
  62.5181233  55.3693070  46.9577620  62.4218755  55.9199628  45.2681896
  63.5177371  54.5889008  45.7092136  63.5484175  57.8645147  46.6140617
  62.7320310  57.6367489  47.2994352  64.3082356  58.4465990  47.1355536
  63.0224177  58.6541983  45.4573941  62.2621660  58.0729051  44.9356513
  62.5829359  59.5831063  45.8208290  63.8383709  58.8827533  44.7717682
  65.9435896  54.7935706  47.1214018  66.4817384  54.6208307  46.0906269
  65.9976022  53.9063961  48.0968109  65.3291840  54.0761486  48.8347137
  66.9277274  52.7756703  48.2445688  67.4799210  52.6699264  47.3107596
  67.8848922  52.7998867  49.3875806  67.3515916  52.7857618  50.3381023
  68.7763235  51.5079627  49.2671988  69.3103280  51.5216024  48.3170652
  69.4945567  51.4838213  50.0867468  68.1421924  50.6226620  49.3143115
  68.7368764  54.1277324  49.4176399  69.7143711  53.8447058  49.8081533
  68.8378790  54.4394623  48.3780619  68.1682770  55.2959048  50.2519588
  68.0674203  54.9850570  51.2918153  68.8445099  56.1486839  50.1921588
  67.1909265  55.5798120  49.8617249  66.0995051  51.4805225  48.3480917
  65.4520394  51.1155073  49.3490278  66.1812080  50.7368912  47.1966347
  66.8999387  51.0299923  46.5504016  65.4082313  49.5250857  46.8781565
  64.6770142  49.3377688  47.6644982  64.6781139  49.6894723  45.5713204
  64.0334658  50.5609351  45.6856910  65.4377571  49.8965310  44.8175506
  63.8416878  48.4933017  45.1337803  64.5087612  47.7027435  44.7900774
  63.2640851  48.1355860  45.9861398  62.8592370  48.8979256  43.9649690
  62.1981091  49.6995095  44.2943202  63.4290106  49.2309393  43.0974672
  62.0198522  47.7140726  43.5651851  61.1772906  47.6532171  44.1187967
  62.2957316  46.7237458  42.7147443  63.2963009  46.8308691  41.9112155
  63.8671847  47.6638668  41.9287251  63.5054340  46.0813833  41.2672947
  61.5000424  45.6592920  42.5396280  60.6425366  45.5813367  43.0675549
  61.7616485  44.9400662  41.8805565  66.4286475  48.3987358  46.6558085
  67.5089206  48.5945195  46.0695622  66.1929867  47.2245185  47.2083089
  65.4921442  47.1807952  47.9342617  66.9759921  45.9469730  46.8747720
  68.0007550  45.9851151  47.2442385  66.2588492  44.8408466  47.5721158
  66.2847750  45.0226034  48.6465420  65.2325582  44.9246762  47.2146256
  66.7477904  43.4392755  47.3086774  66.5576343  42.9586945  46.2348107
  67.4064899  42.8526324  48.2417958  67.7492997  41.9132421  48.0999259
  67.5786682  43.3333722  49.1131996  67.1741037  45.6157598  45.3442352
  66.2832116  45.9456372  44.5695216  68.3316329  44.9920066  45.0027251
  68.9501695  44.8036688  45.7786378  68.7440100  44.5855210  43.6897988
  67.8974519  44.3505338  43.0446480  69.4868350  45.8164280  43.1047279
  70.3426051  46.0583745  43.7349814  69.8319678  45.5876994  42.0964289
  68.8083185  46.6688358  43.0713276  69.6570184  43.3966976  43.6947712
  70.0404446  42.9785882  44.7575275  69.9969053  42.8364266  42.4976086
  69.6908492  43.2819537  41.6444178  70.8323578  41.6630049  42.3956003
  70.4012198  40.7483658  42.8026071  71.0756938  41.4638882  40.8878069
  71.5157454  42.3683074  40.4677111  71.7556830  40.6255288  40.7365834
  70.1281043  41.2567164  40.3905613  72.2376757  41.9135901  43.1054275
  73.1681761  42.4331413  42.4759520  72.3560573  41.4026737  44.3535570
  71.4519216  41.0941887  44.6813907  73.4631066  41.4075503  45.2917724
  73.1392717  41.0613963  46.2733056  74.4611340  40.4220127  44.7384128
  74.8016017  40.7597204  43.7595689  75.3135491  40.3493168  45.4138417
  73.9907452  39.4435493  44.6412378  73.8899615  42.8621550  45.5692833
  75.0984093  43.1626062  45.5227636  72.9651328  43.7954894  45.6330688
  72.0294546  43.5134012  45.8880827  73.2091924  45.2334958  45.3169700
  74.0915854  45.6555975  45.7979190  73.3645603  45.3654336  43.8270793
  72.4844925  44.9552833  43.3317436  73.4714233  46.4178427  43.5641809
  74.2505419  44.8189449  43.5038366  72.0301520  46.0013501  45.8521012
  71.0510642  45.4754897  46.4502165  72.1353558  47.3064713  45.6227697
  72.9785878  47.6835021  45.2142274  70.9723825  48.2482830  45.8691213
  70.0765737  47.6526229  46.0446624  71.1935272  49.1852359  47.0907863
  72.1518878  49.6539386  46.8672649  70.4247616  49.9533915  47.1746693
  71.2961458  48.4197592  48.4130211  71.7842248  47.4723891  48.1841769
  72.0485946  49.1179382  49.5029216  71.5608130  50.0652455  49.7326535
  72.0623369  48.4912873  50.3946730  73.0712271  49.3063084  49.1760580
  69.8961414  47.9948661  48.9233879  69.4196575  47.3505031  48.1845653
  70.0005218  47.4533785  49.8635992  69.2820214  48.8814037  49.0815230
  70.7464950  49.2499698  44.7386898  71.6901237  49.9599019  44.3809270
  69.5442411  49.3511852  44.1629197  68.9472307  48.5369295  44.1887175
  69.1216186  50.4954255  43.3563831  69.9779329  50.8157008  42.7628776
  67.9252653  50.2102199  42.3931586  68.4363779  49.4868781  41.7578320
  66.9729274  49.7947068  42.7225541  67.5988349  51.3998655  41.5183765
  68.5066127  52.3311030  40.9605396  67.8260227  53.0363844  40.0467796
  68.3260959  53.9004482  39.6092644  66.6313089  52.5359253  39.8374531
  65.9907873  52.7658141  39.0911401  66.3864173  51.6169186  40.8336463
  65.3847911  51.2067540  40.9625308  68.8771552  51.7008770  44.1903798
  68.1334635  51.6875247  45.2017953  69.4813614  52.7585755  43.7188899
  70.0801936  52.6804336  42.9093264  69.3411455  54.0675769  44.3531295
  68.5199740  54.1651809  45.0632352  70.6971281  54.3780029  45.0767806
  71.4746739  54.4586117  44.3171590  70.6401888  55.6698062  45.8842434
  69.8631289  55.5897752  46.6444233  71.6029058  55.8404483  46.3660712
  70.4137606  56.5041555  45.2203980  71.1575992  53.2138366  45.9214150
  70.2310427  52.7805612  46.2980662  71.6111950  52.5315805  45.2024734
  72.1272378  53.4440463  47.0905834  71.6741159  54.1258872  47.8102177
  72.3422741  52.4929134  47.5776201  73.0542679  53.8769090  46.7146247
  69.0077261  55.2515529  43.4326637  69.7337665  55.4217006  42.4825479
  67.9836287  56.0328230  43.8148973  67.5291443  55.8361783  44.6951666
  67.4513610  57.1929708  42.9651531  68.0428993  57.2679899  42.0527092
  65.9751306  56.9902042  42.5790400  65.4567066  56.6567028  43.4779908
  65.5906063  57.9649955  42.2790014  65.7385180  55.9665528  41.4356445
  66.3019892  56.3278470  40.5753727  66.1609535  55.0207086  41.7748037
  64.2513860  55.7540225  41.0291641  64.2261276  55.0066036  40.2361785
  63.7182180  55.3757652  41.9013755  63.5723279  56.9715526  40.5521247
  64.1197064  57.3599777  39.7974048  62.3723989  57.4847894  40.7934880
  61.5743751  57.1244582  41.7706888  61.8623927  56.3999034  42.4126906
  60.6757881  57.5733212  41.8763438  62.0583244  58.5712476  40.1460222
  62.7182038  58.9783497  39.4987765  61.1565007  59.0010942  40.2944968
  67.6204560  58.5000174  43.8008498  67.3394478  58.4418656  44.9838869
  67.9496731  59.6600361  43.1851463  68.0846102  59.7282067  42.1865252
  68.1255401  60.9032733  44.0155992  67.8243615  60.7881554  45.0568189
  69.6401245  61.2332007  43.9714286  69.8965635  61.2577012  42.9123068
  70.1143373  62.5470692  44.6488390  69.8586423  62.5231035  45.7081526
  71.1943781  62.6441024  44.5384058  69.6234214  63.3978196  44.1762652
  70.4172823  60.2174787  44.5474576  71.3452255  60.4589700  44.5005135
  67.3565825  62.1995258  43.5820321  67.5561656  62.6871381  42.4489519
  66.4740310  62.6962046  44.4198812  66.2234716  62.1306508  45.2182973
  65.8143842  63.9895926  44.2525413  65.8104393  64.3123226  43.2114222
  64.3601714  63.8958120  44.7434175  64.4220566  63.7841483  45.8259150
  63.4187425  65.0903010  44.3972850  63.3559869  65.2023048  43.3148721
  62.4243670  64.8985388  44.8004539  63.8170507  66.0059808  44.8343007
  63.7080776  62.6530434  44.1929251  64.2571550  61.7740317  44.5304965
  62.6784952  62.5954530  44.5461147  63.7164365  62.6898163  43.1035772
  66.4600755  65.1946458  44.9821470  66.6032012  65.1134214  46.2333607
  66.8695446  66.2705781  44.3134238  67.1124365  66.2256258  42.8464119
  66.1686444  66.1070791  42.3141494  67.7738013  65.3944409  42.6018156
  67.7662076  67.5878443  42.5891576  67.0277847  68.3692433  42.4095851
  68.4681310  67.5535799  41.7559524  68.5087936  67.8093248  43.9279341
  68.7361192  68.8723094  44.0084679  69.4255147  67.2321055  44.0485159
  67.5088573  67.4162241  44.9897370  67.9504159  67.0590298  45.9200791
  66.4837285  68.5632355  45.3043232  65.7599133  69.0979821  44.4674166
  66.2756428  68.8431062  46.5525454  66.7890621  68.3176864  47.2456789
  65.3945573  69.9554504  47.0169405  64.4577264  69.9319131  46.4602602
  65.0840239  69.8306562  48.4899311  66.0587523  69.9403696  48.9652906
  64.4183974  70.6192564  48.8408600  64.4826601  68.4446389  48.8555971
  65.1997476  67.6671563  48.5921445  64.1821956  68.3707832  50.3243593
  63.4647730  69.1477219  50.5884992  63.7620024  67.3932866  50.5610842
  65.1013094  68.5176332  50.8916029  63.2481872  67.9914291  48.0724129
  63.4915932  67.9328828  47.0115522  62.9323912  67.0102453  48.4268877
  62.4402039  68.7079497  48.2202644  66.0257169  71.3696224  46.9320334
  65.2688869  72.3107508  46.7228049  67.3070496  71.4896124  47.1871468
  67.6987995  70.5860912  47.4113806  68.1698458  72.7143773  47.3872633
  69.1887518  72.4175502  47.6359067  68.2021459  73.5405015  46.1113296
  67.1638616  73.8573915  46.0131171  68.8294280  74.4094486  46.3101965
  68.6536150  72.8741220  44.8185040  70.0214503  72.8828810  44.4840448
  70.7043403  73.2180421  45.2647033  70.5205703  72.4943589  43.2398061
  71.5491128  72.7281995  42.9649959  69.6171528  71.9552402  42.2561426
  70.0786891  71.4523250  41.0624083  71.0333741  71.5058227  40.9768854
  68.2693219  71.7916833  42.6445778  67.6111227  71.2593842  41.9578960
  67.7486284  72.3007102  43.9030352  66.6823095  72.2333649  44.1187398
  67.8658237  73.5203140  48.6534771  68.2084365  74.7147062  48.7188353
  67.2926162  72.8908971  49.7231040  66.9599761  71.9826201  49.4324450
  67.0640617  73.3104949  51.1457176  67.8564381  73.9845251  51.4711742
  65.6930040  74.0572026  51.2618796  65.5740611  74.3606627  52.3020064
  65.7496809  74.9432895  50.6296314  64.4603299  73.1811634  50.8272365
  64.6328289  72.8474704  49.8040093  64.4422804  72.3177334  51.4922644
  63.1451545  73.8984667  50.9038693  62.2158251  73.2398564  51.2683105
  63.0579897  75.1149807  50.6131772  67.0818101  72.0837059  52.0961489
  66.9573048  70.9122238  51.7068197  67.2542680  72.2711514  53.4261160
  67.2201980  73.2283875  53.7464872  67.5435418  71.1854362  54.4394688
  68.3113818  70.5162347  54.0512802  68.0397538  71.7884181  55.7513855
  67.2464225  72.4239758  56.1448207  68.2242886  70.9675460  56.4443616
  69.2250385  72.5526263  55.5977072  69.4905617  72.9061547  56.4498310
  66.2917426  70.3002490  54.7087409  65.4210375  70.8184520  55.4107689
  66.2643794  68.9898086  54.2356384  67.1809472  68.3264316  53.3654227
  68.1897861  68.4480237  53.7598334  67.1201001  68.7831321  52.3775860
  66.7165575  66.8449698  53.3622452  67.2631488  66.2726544  54.1117731
  66.8729751  66.3990048  52.3800283  65.2364741  66.9212615  53.6934275
  64.9147048  66.0072632  54.1925974  64.5659202  67.1355131  52.8612296
  65.2266965  68.0826301  54.6817398  64.2490226  68.5581580  54.6034752
  65.5109095  67.7270814  56.1654045  66.5922175  67.2686943  56.4806511
  64.4657051  67.8182487  57.0070591  63.5539340  68.0661748  56.6502603
  64.6257641  67.6532720  58.4676356  65.6796122  67.6178110  58.7437625
  63.9558110  68.9057889  59.1806021  62.9714529  69.0568288  58.7375159
  63.8449386  68.6694300  60.2388751  64.7970230  70.2012295  59.0254537
  65.7528203  70.1176231  59.5427181  64.9719823  70.4370023  57.9757383
  63.9746621  71.3037579  59.6599578  64.4463443  72.2525547  59.4042242
  62.9782771  71.2636600  59.2198345  63.8423918  71.2167220  61.1798372
  62.9194484  71.2002051  61.5897176  64.8673515  71.2043139  61.9674021
  66.1060123  71.2975545  61.6307500  66.3556565  71.3924718  60.6567025
  66.8225680  71.2753662  62.3421958  64.7226290  71.0521126  63.2032966
  63.7965852  70.9378174  63.5899223  65.5327786  71.0445273  63.8063712
  64.0582761  66.3433567  58.9926092  64.7832531  65.7278117  59.7720331
  62.8332827  65.8751090  58.5820078  62.5853201  66.1839687  57.6529117
  62.0084815  64.7928980  59.2160213  62.6719208  64.0533714  59.6644049
  61.0700943  65.3566244  60.3242091  60.7049729  66.3394578  60.0261752
  60.2249922  64.6822980  60.4627237  61.8645329  65.4807192  61.6687587
  62.7947547  65.9895967  61.4161088  61.2615481  66.1240061  62.3096123
  62.1892811  64.1411742  62.4275176  61.2555151  63.6194158  62.6371560
  62.8176711  63.5186213  61.7906084  62.9353927  64.4328085  63.7696130
  63.8128275  65.0418113  63.5520715  62.2633202  64.9860674  64.4256025
  63.3578652  63.1794310  64.4390291  63.9809706  62.6668260  63.8315133
  63.8355251  63.4024009  65.3005541  62.5449227  62.6151624  64.6410800
  60.8853329  64.3442445  58.2251952  60.4458479  65.1806159  57.4254736
  60.4916784  63.0251530  58.1719139  60.8099765  62.3971935  58.8961049
  59.7079741  62.4703103  57.0677368  59.1069639  63.1721227  56.4895109
  60.7812132  61.7944772  56.1244461  61.4723433  62.5714355  55.7976812
  61.5803257  60.6497284  56.8316394  60.8898698  59.8721254  57.1582967
  62.3016202  60.2246470  56.1336847  62.1068566  61.0539640  57.6961959
  60.0614674  61.3150328  54.8186991  59.3915311  60.4991150  55.0899262
  59.4774784  62.1519035  54.4356797  61.0444555  60.8330844  53.7303136
  61.6285144  59.9958662  54.1124664  60.4854456  60.5139556  52.8506751
  61.7144636  61.6486547  53.4582215  58.5976740  61.4981309  57.6410177
  58.7424736  60.9296320  58.7289993  57.4663700  61.4675198  56.9194090
  57.4078427  62.1316103  56.1606878  56.3014182  60.5989662  57.1808167
  56.6580264  59.6474665  57.5752504  55.3147101  61.2114060  58.1910601
  54.4495853  60.5720958  58.3669603  55.7890453  61.4500270  59.1429877
  54.6450969  62.8149203  57.5327667  53.8661207  63.0797282  58.5777409
  55.6045036  60.3158557  55.8364851  55.6265431  61.0353772  54.8867962
  54.6995316  59.3292684  55.8113190  54.5991505  58.7972485  56.6639489
  53.9184650  58.9398743  54.6691315  53.9089323  59.6948330  53.8829727
  54.6248092  57.7095248  54.1485743  55.5793246  58.0470803  53.7447727
  54.8033501  57.0102416  54.9654135  53.8414515  57.0285679  53.0721661
  53.0186999  55.9425938  53.3930492  52.9323901  55.6116661  54.4280067
  52.3078941  55.2825583  52.3866948  51.6561030  54.4601945  52.6816322
  52.3414706  55.7118447  51.0330746  51.6481244  55.0176380  50.0932144
  51.1773594  54.2634192  50.4553388  53.1827871  56.7875849  50.7310224
  53.2350758  57.1232143  49.6953008  53.9384478  57.4244126  51.7060329
  54.6132357  58.2346450  51.4298359  52.4625279  58.6863751  54.9828244
  52.1202698  58.2296160  56.0075998  51.5785217  59.0164315  54.0611190
  51.9139181  59.3316610  53.1620979  50.1733641  59.0327629  54.3019913
  49.8993010  58.3653596  55.1190356  49.7983404  60.4958758  54.7049304
  50.4604541  60.8023764  55.5147218  49.9637696  61.1366145  53.8387970
  48.3207493  60.6231805  55.1682242  47.6290853  60.2356340  54.4202206
  48.2310692  60.0376465  56.0832157  47.9359263  62.1065262  55.4841254
  47.3727716  62.8047391  54.6402223  48.1382243  62.6598740  56.6861466
  47.8746508  63.6215506  56.8467970  48.5535051  62.1131691  57.4269279
  49.3755035  58.5193077  53.0870592  49.1471466  59.1704952  52.0661728
  49.0539149  57.1703225  53.2688244  49.4018979  56.6968396  54.0902994
  48.4529557  56.3870797  52.2414302  49.1333906  56.3032393  51.3940351
  48.1322768  54.9513795  52.7682471  49.0680086  54.4568048  53.0288256
  47.5068809  55.0359892  53.6569659  47.3864513  54.1141372  51.6866240
  46.3398024  54.4054029  51.7748923  47.7464020  54.3531138  50.6859118
  47.5209402  52.5876773  51.9336357  47.1989781  51.8015979  50.9660042
  47.8647297  52.2151193  53.0877321  47.3216735  57.0407446  51.5362014
  47.3173497  57.2030282  50.3362171  46.3364315  57.5199493  52.3333527
  46.5099888  57.6778423  53.3157207  45.0363583  57.9592242  51.7692498
  44.4835107  57.2029684  51.2119922  44.1008409  58.5038741  52.9675810
  43.2498312  59.0303457  52.5354823  43.5888334  57.3295402  53.8543800
  44.4393238  56.8028421  54.2872265  42.9613200  57.7239304  54.6536195
  43.0071577  56.6391389  53.2435600  44.6918231  59.5891197  53.8538203
  44.9347219  60.4617800  53.2475479  43.9673302  59.8689337  54.6186169
  45.5976333  59.2156454  54.3314453  45.2734844  59.1900300  50.8708265
  44.7693364  59.1910871  49.7410055  46.1001453  60.1826976  51.2815305
  46.4062816  60.0942755  52.2399466  46.5466906  61.3195859  50.5263276
  45.7364887  61.7876099  49.9671983  47.0664952  62.3182241  51.5619520
  47.9089911  61.9219562  52.1287603  47.3481604  63.2696207  51.1107210
  45.9342824  62.5210320  52.4541527  46.1776271  63.1431355  53.1436238
  47.6581584  61.0506632  49.4636908  47.9458000  61.9089324  48.6492595
  48.2279696  59.8017774  49.4140074  48.1143868  59.2948625  50.2801688
  49.1171031  59.2394717  48.3898795  49.4922675  58.2667166  48.7078393
  48.3385398  59.0603380  47.0761306  47.7847325  59.9796802  46.8858499
  49.0615849  58.9001972  46.2763427  47.3546923  57.8673406  47.1279614
  47.5862830  56.9295257  47.6329067  46.5772927  58.3947156  47.6807973
  46.8080484  57.5385325  45.6706544  47.5062039  56.8977221  44.8778518
  45.5103889  57.6401058  45.3986846  45.1741417  57.4289199  44.4700083
  44.8669637  57.9279727  46.1220366  50.4419031  60.0023677  48.3106778
  50.9874212  60.2734282  47.2183568  51.1215354  60.3056225  49.4289463
  50.8707140  59.8245286  50.2808480  52.1445375  61.3402419  49.4957633
  52.8002320  61.3072910  48.6256609  51.4284949  62.6840067  49.5148468
  52.1082117  63.5359808  49.4998734  50.6927312  62.7928272  48.7180344
  50.5073200  62.8040648  51.0684684  50.0010477  64.0119456  50.8369286
  53.0507457  61.0858246  50.7595590  52.7329388  60.3085071  51.6768246
  54.1894380  61.7893774  50.7099771  54.5140425  62.1135916  49.8101902
  55.0430222  62.0208121  51.8831326  54.7526964  61.3424128  52.6853698
  56.5457713  61.7720629  51.5385835  57.0256347  62.5021120  50.8867717
  56.9982380  61.8174085  52.5291983  56.8819273  60.3734682  50.9611374
  57.3458876  59.2853032  51.7008926  57.3823207  59.4628557  52.7757171
  57.7462993  58.0466113  51.1811986  58.2629839  57.3017740  51.7864714
  57.4574557  57.7769173  49.8172967  57.6562747  56.7973077  49.3826291
  56.9024703  58.8053413  49.0196845  56.7474477  58.6813590  47.9479119
  56.5539086  59.9921677  49.6354230  55.9724562  60.7374690  49.0927084
  54.8207096  63.4315958  52.4733897  54.7713385  64.3781916  51.6459250
  54.7558729  63.5714344  53.7926385  54.5511237  62.7547369  54.3504756
  54.9590450  64.8072012  54.4588214  54.7428530  65.6605392  53.8160351
  54.3696601  64.8827691  55.3726126  56.4775217  64.8218657  54.8302073
  57.0094873  63.8800448  55.4134739  57.1683481  65.9637613  54.5930948
  56.6185701  66.6825213  54.1445110  58.6071903  66.2419494  54.8667326
  58.9851774  65.4929089  55.5625510  59.3435591  66.0480176  53.4550526
  58.8190448  66.5905332  52.6685026  60.7368047  66.6039412  53.6053213
  61.2621347  66.0615796  54.3914340  61.2763915  66.4925623  52.6648207
  60.6806637  67.6601988  53.8685130  59.4973642  64.5544903  53.1243167
  58.5127684  64.0894743  53.0749897  59.9991285  64.4445103  52.1629444
  60.0893940  64.0690978  53.9002005  58.6655617  67.6248781  55.4303334
  58.4342485  68.6861833  54.7556850  59.1829438  67.6950098  56.7045360
  59.1566458  66.9066037  57.3352686  59.7314122  68.9341607  57.1848667
  59.0248891  69.7559693  57.0684415  60.0230145  68.7452358  58.6831903
  60.6807990  67.8780145  58.7410351  60.5437125  69.6218987  59.0684638
  58.7773988  68.4914598  59.5132946  58.3508641  67.5249143  59.2450431
  59.1510379  68.4904575  61.0074856  59.5772418  69.4569052  61.2766098
  58.2582178  68.3084147  61.6056774  59.8824563  67.7053420  61.1991138
  57.6419011  69.5464701  59.2407356  57.3558702  69.5098055  58.1895736
  56.7753587  69.3167536  59.8607644  58.0068956  70.5446045  59.4828217
  60.9698028  69.2955538  56.3980677  61.8778737  68.4334288  56.2871188
  61.1161376  70.5857238  56.1057227  60.2707054  71.1382982  56.1079981
  62.3717286  71.2265929  55.6567082  63.2379131  70.6627978  56.0030586
  62.3856811  71.2533709  54.1728273  63.3969667  71.4429604  53.8130266
  62.0334947  70.2997370  53.7795753  61.5028463  72.3194735  53.7222024
  61.5012328  72.3494715  52.7626726  62.6351832  72.6056252  56.2655937
  61.8241686  73.1111424  57.0295418  63.8086444  73.1870289  56.0305968
  64.4905824  72.5772868  55.6024912  64.2066832  74.5817956  56.3359654
  63.3369637  75.2327941  56.4247800  64.9148233  74.5619287  57.6301107
  64.3242346  74.0204704  58.3691149  65.8849865  74.0783406  57.5159800
  65.0997889  75.8858598  58.0582967  65.5601708  75.8883485  58.9006992
  65.1121139  75.2795444  55.3311033  66.0269629  74.5973182  54.8337304
  64.7727714  76.5131924  54.9530567  63.8799981  76.8660133  55.2670194
  65.5282752  77.3039584  53.9696127  66.4767149  76.8052827  53.7699035
  64.7693006  77.4656931  52.6425225  65.5300493  77.6104920  51.8754540
  64.2564791  76.5193117  52.4708355  63.7635297  78.6057035  52.5804414
  63.0892721  78.4746707  53.4267911  64.3288607  79.5290713  52.7065163
  62.9296014  78.6808156  51.2552109  63.5835414  78.8629795  50.4024051
  62.3781413  77.7538336  51.0980626  61.9357728  79.8270783  51.3607404
  62.1845112  80.7054343  50.9286301  60.7822519  79.7179176  51.9003796
  60.1278897  78.5908288  52.1943438  60.5494594  77.6968686  51.9864640
  59.2146282  78.6378883  52.6231079  60.2052050  80.8479266  52.2728152
  60.6795916  81.7269186  52.1230470  59.2927432  80.8268038  52.7053267
  66.0293215  78.6573986  54.5443632  65.2739906  79.3404569  55.1861291
  67.3351469  79.0021356  54.3257553  67.9706513  78.2530673  54.0909569
  67.8741232  80.2702698  54.6066722  67.4933779  80.6567571  55.5520609
  69.4507436  80.1710860  54.6749114  69.8552438  79.9471870  53.6878202
  70.0059356  81.5448890  55.1648645  69.6022133  81.7692706  56.1521648
  71.0936085  81.4991964  55.2194588  69.7102972  82.3270675  54.4656550
  69.9732337  79.0560014  55.5948960  69.2897148  79.0992221  56.4428551
  69.7783852  78.1522462  55.0175225  71.4137729  79.0345441  56.1030369
  71.6092397  79.9378307  56.6809347  71.5634534  78.1596151  56.7356461
  72.0979105  78.9908570  55.2556014  67.3032943  81.3591418  53.6819694
  67.0824909  81.0856411  52.4928789  66.9913579  82.5272923  54.2398736
  67.1415152  82.6028237  55.2357888  66.4578583  83.6909987  53.5277369
  66.5763281  83.5602164  52.4521161  64.9863559  83.8480928  53.8360645
  64.8414340  83.6870775  54.9043206  64.6894363  84.8648386  53.5788358
  64.1401800  82.8641531  53.0588173  64.6969004  82.5735764  52.1679030
  64.0971491  82.0226494  53.7502787  62.6792368  83.2824512  52.6507268
  62.1282446  82.7514078  51.6724730  62.0496092  84.0983230  53.3766904
  67.2607056  84.9346518  54.0304527  68.2265705  84.8446230  54.7733429
  66.9240291  86.1718846  53.4966625  66.2879683  86.1812998  52.7121644
  67.4715757  87.5067399  54.0017687  67.8833060  87.3989778  55.0052450
  68.5807901  88.0754327  53.0668977  68.7447171  89.1296796  53.2900360
  69.8905990  87.2897002  53.3022676  69.7275709  86.2353670  53.0788749
  70.6721002  87.6818478  52.6514400  70.1972522  87.3969169  54.3427339
  68.2314476  88.0231556  51.5920191  67.3286305  88.6064837  51.4110452
  69.0538236  88.4369338  51.0084226  68.0604490  86.9884215  51.2950583
  66.2434970  88.3994420  54.0470742  65.1991918  88.1865354  53.3926558
  66.3386512  89.4416052  54.8843589  67.0807729  89.3734608  55.5660560
  65.2723429  90.4378716  55.1078069  64.3129034  89.9237547  55.1648929
  65.4787601  91.2121275  56.3794098  65.8306706  90.4521847  57.0770810
  66.3003125  91.8834256  56.1293888  64.3475754  92.0106084  57.0247310
  63.4534073  91.4817874  56.6947120  64.4160037  91.9644535  58.1116023
  64.2296285  93.5018442  56.5968695  64.7150427  93.9795291  55.5601173
  63.6468169  94.3131544  57.4647361  63.5412209  95.2929008  57.2432686
  63.3102703  93.9488959  58.3445960  64.8226640  91.2320639  53.9275212
  65.7077262  91.7341843  53.2546691  63.5313968  91.4129822  53.6863166
  62.9229174  91.0713884  54.4164987  62.9028940  91.9068302  52.4011056
  63.6587875  92.0580141  51.6304775  61.9177565  90.8479089  51.9164852
  62.3536610  89.8611917  52.0729323  60.9787984  90.9209009  52.4652382
  61.6511536  91.0594317  50.4107884  60.7099581  90.3957761  49.8899167
  62.3288695  91.8393357  49.6793207  62.3396015  93.3089360  52.5776556
  61.3097827  93.6244698  51.9397579  62.9320621  94.1197091  53.4425264
  63.8672927  93.8941120  53.7500148  62.2205756  95.2260834  54.1165916
  62.6014032  95.3703249  55.1276623  62.3354077  96.5881735  53.3369058
  61.7441215  96.4391217  52.4334323  61.8836102  97.8900889  54.0394366
  62.4748060  98.0400677  54.9428155  62.0280907  98.7355070  53.3667609
  60.8291115  97.8134181  54.3044929  63.6105743  96.7391627  52.9806724
  63.7132852  97.5644684  52.5011714  60.8134056  94.8083045  54.4302530
  60.6341249  93.7776691  55.1082227  59.7964216  95.5600274  54.0778238
  60.0666392  96.3936253  53.5756322  58.3427848  95.3393337  54.3560977
  58.2055877  95.3754586  55.4368249  57.3915306  96.3675299  53.7028428
  56.4087689  96.3398943  54.1734966  57.8006824  97.3751651  53.7760976
  57.2715172  96.0040292  52.3355239  56.6857018  96.6208930  51.8906652
  57.9058600  93.9450733  53.8755445  56.8693613  93.5350457  54.2911557
  58.7315258  93.2293068  53.0528803  59.6763506  93.5570329  52.9114557
  58.3160008  92.0231332  52.3742278  57.3282566  92.1704535  51.9374699
  59.0290974  91.7823884  51.5857898  58.2542378  90.8548067  53.3647223
  57.6790060  89.8213198  52.9619031  58.7217659  91.0560881  54.5603164
  58.8087368  92.0283015  54.8198094  59.1247660  90.0303381  55.5433127
  59.0647818  90.4278497  56.5564690  58.4868071  89.1504288  55.4604425
  60.5455114  89.6329586  55.2572480  61.5197603  90.2990568  55.5759724
  60.5847202  88.4946001  54.4970219  59.7164514  87.9993889  54.3521965
  61.8855682  87.8411771  54.0088202  62.6569602  88.5847813  53.8085543
  62.4134997  86.8561708  55.0931185  63.3285924  86.3843223  54.7352574
  62.7069196  87.6207404  56.4008142  61.7921295  88.0925053  56.7595573
  63.0757878  86.9247859  57.1542615  63.4604173  88.3858182  56.2137375
  61.5192734  85.8174553  55.3744164  61.8956462  85.2443898  56.0463835
  61.7614309  87.2073576  52.6012553  60.6661964  86.9909353  52.1017687
  62.9639861  87.0336881  51.9813870  63.7888142  87.4055199  52.4302734
  63.0997338  86.4724430  50.5850781  62.2397222  85.8551277  50.3254609
  63.1675830  87.6547906  49.6084171  62.2578235  88.2286927  49.7846961
  64.3785789  88.5784583  49.7074375  65.2887490  88.0053180  49.5308014
  64.2961598  89.3678343  48.9603152  64.4169075  89.0228087  50.7020149
  63.1781567  87.2232456  48.2296963  63.2209994  87.9906672  47.6545189
  64.2299025  85.4572892  50.3968453  65.2216320  85.5609276  51.0696280
  64.0665409  84.5593258  49.3894160  63.1742957  84.5155665  48.9181592
  65.0463605  83.6134424  49.0485700  65.4410131  83.1766589  49.9659405
  64.3669029  82.5321132  48.2551896  63.9743855  82.9522813  47.3291826
  65.0853105  81.7464517  48.0212521  63.5477083  82.1125338  48.8391182
  66.2923248  84.2555236  48.2949051  66.2212107  85.3074194  47.6592141
  67.3694348  83.5560060  48.5176559  67.3547617  82.9007806  49.2861374
  68.6560620  83.7542556  47.7784850  68.6892873  84.7999072  47.4725307
  69.9212837  83.4345023  48.5474732  69.5828463  82.4695784  48.9249401
  70.8108067  83.2922836  47.9337772  70.2614721  84.3695205  49.7450373
  71.2431072  84.0571085  50.1012564  70.2817551  85.9053463  49.4399570
  69.3002597  86.2186107  49.0841044  70.5301803  86.4535734  50.3487104
  71.0289634  86.1143969  48.6743998  69.5344411  84.1178490  51.0575381
  69.7536801  83.1090358  51.4072945  69.8676131  84.8405205  51.8024163
  68.4604013  84.2234214  50.9045937  68.6514802  82.9532256  46.4230272
  69.3860586  83.3738875  45.5052646  67.8265274  81.8943664  46.3695469
  67.3235202  81.8242554  47.2425690  67.6089015  80.8729334  45.3687999
  67.5262452  81.3234867  44.3797251  68.8292221  79.8710960  45.3664631
  68.7093829  79.1717421  44.5390322  69.7503423  80.4380999  45.2317630
  68.8978984  79.0751335  46.7183378  68.9356995  79.7668308  47.5598998
  68.0256684  78.4291630  46.8185330  70.1722056  78.2161145  46.7040705
  71.0470066  78.8661223  46.6864062  70.2000526  77.5945543  47.5990492
  70.2114648  77.3248437  45.4987145  69.2780498  77.0211242  45.2608275
  71.2197917  76.8259455  44.8302809  72.4120915  77.3184438  45.0420154
  72.5349211  78.0664997  45.7094173  73.2048582  76.9485913  44.5372087
  71.0398102  75.9536568  43.8757061  70.1049200  75.6516835  43.6414144
  71.8363060  75.5848982  43.3759960  66.3088088  80.1999145  45.6374288
  65.9821874  79.9417147  46.8002613  65.6486978  79.7181093  44.6195432
  66.0055421  79.7340482  43.2147495  66.8602149  79.0686406  43.0928181
  66.3019690  80.7539835  42.9698780  64.8064288  79.2823810  42.4309990
  65.0501901  78.3817220  41.8675338  64.4968046  80.0685036  41.7423442
  63.7164396  79.0107124  43.4788123  63.2722459  78.0437227  43.2427574
  62.9367885  79.7720875  43.5022999  64.4097336  78.9434122  44.8151320
  63.7960630  79.4268096  45.5752857  64.7583075  77.5178461  45.2697829
  65.9010805  77.1165861  44.9696372  63.8423226  76.8228058  45.9673678
  63.0162829  77.3223520  46.2643716  64.0565483  75.4242985  46.4860138
  64.4528809  74.7932318  45.6905425  65.0680050  75.4276140  47.6687565
  65.1473520  74.4064222  48.0415441  66.0343737  75.7477620  47.2792223
  64.6739263  76.2934153  48.7336297  65.3294561  76.2580030  49.4340771
  62.7116870  74.8267665  46.7483583  61.7050523  75.5661824  46.7613856
  62.6418322  73.4971905  47.0186583  63.5027265  72.9860059  46.8858028
  61.3968455  72.7312062  47.2133429  61.0561886  72.4819458  46.2083945
  61.8679166  71.4541831  47.8985722  62.2036725  71.6861823  48.9092870
  61.0448983  70.7409927  47.9444043  62.6926043  71.0206520  47.3328513
  60.2060072  73.5136956  47.7933365  59.1300273  73.5156897  47.1556631
  60.2800492  74.1795012  48.9889830  61.1366585  74.1431737  49.5228370
  59.1874548  74.8758587  49.5301380  58.2740945  74.2872273  49.4442011
  59.4644100  75.1423753  51.0277657  58.6144938  75.6728198  51.4571496
  59.5935687  74.1890210  51.5401461  60.6208835  75.9140301  51.1808731
  60.7795592  76.0709560  52.1145734  58.8536099  76.2226806  48.8324143
  57.6679538  76.6013351  49.0156667  59.5792118  76.8254466  47.8590146
  60.5276307  76.4781978  47.8546454  59.2486232  77.9744672  46.9865395
  58.3328051  78.4095486  47.3866400  60.3737783  79.1120181  46.9312669
  59.8969409  80.0856688  46.8184369  61.2298562  79.0923574  48.2772227
  61.7074036  78.1191084  48.3905121  61.9938952  79.8685419  48.2338480
  60.5740370  79.2759675  49.1282744  61.3225124  78.9715840  45.8968865
  61.9536069  79.6936258  45.9413361  58.7987338  77.6124619  45.5945511
  57.9134700  78.2363743  44.9956461  59.2468279  76.4614957  45.0684081
  59.9074236  75.9286745  45.6159611  58.8708510  75.9556253  43.7587045
  58.5965578  76.7747750  43.0939819  60.1142325  75.1871599  43.1319826
  60.3739974  74.3394686  43.7660496  59.8547931  74.8289950  42.1357351
  61.2884523  76.1207350  43.0383495  60.9752570  76.9599996  42.4173468
  61.5828113  76.4870918  44.0218319  62.4647939  75.4714199  42.4015367
  63.1777628  74.6143368  42.8998838  62.8472617  75.8684811  41.1873164
  63.6449234  75.4343244  40.7453379  62.3375261  76.6015494  40.7152126
  57.5933465  74.9661064  43.8375190  57.1179613  74.5106487  42.7621859
  57.0489057  74.6515626  45.0234618  57.5716451  74.9388867  45.8385003
  55.7366051  73.9116914  45.2324272  55.8438978  72.8366224  45.0881563
  55.3120922  74.1726242  46.6890376  55.1917454  75.2444538  46.8465116
  54.3666195  73.6682076  46.8884005  56.0769164  73.7902234  47.3649909
  54.6146896  74.4162169  44.2520045  54.4533206  75.6367990  44.0556904
  53.7626094  73.5003016  43.7946430  54.0372298  72.5307004  43.8621452
  52.5485467  73.8297315  43.0325192  52.7734461  74.5614569  42.2565698
  52.0026932  72.5412358  42.3567909  51.7641497  71.8748224  43.1856994
  51.0855426  72.8129077  41.8341732  52.9390752  71.8388646  41.3991175
  53.7769667  71.4379373  41.9694648  52.2399488  70.7045108  40.6582303
  51.4021656  71.1047564  40.0872472  52.9449226  70.2241419  39.9797332
  51.8722161  69.9724913  41.3772717  53.5035929  72.8703090  40.3716370
  54.0467496  73.6523642  40.9021744  54.1784764  72.3641668  39.6813808
  52.6801736  73.3154183  39.8131056  51.4399431  74.6328997  43.8114897
  50.7100642  75.3912484  43.2297424  51.3730101  74.4701132  45.1273326
  51.8634635  73.6728842  45.5067805  50.6258705  75.3574695  46.0706598
  50.3884263  76.3159684  45.6091413  49.2656222  74.6203964  46.4401468
  49.5257568  73.7095896  46.9794614  48.7048431  75.2841128  47.0982558
  48.4868225  74.2977202  45.3351694  47.6848876  73.8576403  45.6264251
  51.3811384  75.6708611  47.3568196  52.3356320  74.9615154  47.6081294
  50.9157512  76.5326024  48.2138597  50.0545005  76.9771697  47.9297710
  51.6217624  77.0599286  49.4299145  52.1790431  76.2847305  49.9558472
  52.5960111  78.0809798  48.9054862  53.4133239  77.5680884  48.3984938
  52.0838311  78.7341912  48.1990257  53.0908965  78.8195508  49.9247071
  53.7103066  79.4667192  49.5795926  50.6716081  77.4819022  50.5456305
  49.4683949  77.7531590  50.2212546  51.1119410  77.5316588  51.7794689
  51.8422348  76.8742970  52.0132330  50.3957012  78.2026030  52.8813425
  49.9496053  79.1316201  52.5263428  49.2931320  77.3050197  53.4041688
  48.8310977  77.8705233  54.2133839  48.5892241  77.2144013  52.5768829
  49.6466584  75.9972769  53.8762302  48.8569903  75.5409583  54.1758925
  51.3538260  78.9296382  53.8990717  52.4408707  78.4044118  54.0584831
  50.9469971  80.0377135  54.5046033  49.9897196  80.3554904  54.4522858
  51.9387084  80.8885309  55.2372309  52.8330708  80.3011925  55.4451940
  52.3226796  82.0594519  54.3088021  51.4246668  82.6228342  54.0552816
  53.3389814  82.9969264  55.0170191  54.2375087  82.4343239  55.2704518
  53.6013401  83.8187516  54.3507822  52.8921990  83.3964192  55.9274545
  53.0170289  81.5456048  53.0361528  52.3434014  80.8785687  52.4982021
  53.2778932  82.3897948  52.3978796  53.9225500  81.0037859  53.3092182
  51.2803920  81.3340775  56.5606510  50.1518460  81.8149851  56.6487522
  51.9164722  80.8789943  57.6635056  52.6584762  80.2123490  57.5050332
  51.6550193  81.3192023  59.0481861  50.7101759  80.9199341  59.4169069
  52.8339989  80.7626675  59.9624596  53.7793923  81.1328247  59.5658311
  52.6915898  81.1421883  60.9742816  52.8555764  79.3272632  59.9886685
  53.5765899  79.0282353  60.5475261  51.6661162  82.8399172  59.2337802
  52.3649961  83.5298726  58.4645323  50.7895149  83.3681248  60.0593199
  50.2264113  82.7810112  60.6579109  50.5201733  84.8236883  60.0494694
  50.5933297  85.1964949  59.0278224  49.0555630  85.1547123  60.6120605
  48.9589929  86.2402872  60.5947220  48.3500826  84.7163871  59.9061792
  48.7839010  84.6893524  61.8822482  47.8893040  84.9354676  62.1286693
  51.6155329  85.6182139  60.8211647  51.9693663  85.1889903  61.9695057
  51.9761551  86.7489895  60.1602002  51.4386135  86.9993360  59.3425970
  53.2762252  87.5117079  60.4364383  54.0715109  86.8016176  60.6631357
  53.7036535  88.3598113  59.2090090  54.6914843  88.8090588  59.3113128
  53.6468145  87.8197183  58.2639328  52.7202391  89.3748069  59.2311269
  52.8722564  89.9835195  58.5045187  53.3108112  88.2874774  61.7600581
  54.3423510  88.5956690  62.3537327  52.1242603  88.6187088  62.3250895
  51.3046611  88.3804937  61.7850802  51.9531301  89.3884428  63.4997716
  52.8614719  89.9412965  63.7392862  50.8062534  90.4033955  63.2499042
  51.0323267  90.9983535  62.3650228  49.8706420  89.8656931  63.0962572
  50.6707467  91.3255895  64.4630824  50.4063286  90.7059945  65.3199872
  51.6426640  91.7878397  64.6357196  49.6341210  92.3948186  64.2805854
  48.7852976  91.9676121  63.7466450  49.3100356  92.7353346  65.2640064
  50.1919798  93.5834703  63.4862562  50.9401425  94.1073226  64.0811780
  50.6469603  93.2292236  62.5612691  49.0731250  94.5138161  63.1645875
  48.6516698  94.8425206  64.0215755  49.4295038  95.3007047  62.6412324
  48.3799539  94.0287177  62.6129604  51.7812113  88.5647199  64.7666029
  50.6685081  88.2759807  65.2626132  52.9322885  88.0873271  65.2314023
  53.7449344  88.2193794  64.6463653  53.0837403  87.2914859  66.4810263
  52.4785524  86.3853016  66.4550105  54.6313636  86.8725110  66.5817440
  54.8219797  86.2064635  65.7402302  55.2257869  87.7791490  66.4687457
  55.0223033  86.1588944  67.9055750  55.0391351  86.9157293  68.6898061
  54.0441850  85.0084539  68.3127325  54.0271705  84.2509595  67.5291436
  54.3813196  84.5574929  69.2460466  53.0414005  85.4139765  68.4471762
  56.3994674  85.5569843  67.8057947  57.1266278  86.3435908  67.6043316
  56.6497306  85.0633881  68.7448540  56.4200387  84.8277860  66.9958900
  52.5199490  88.1837675  67.6551719  53.1952312  89.0757199  68.2618093
  51.2511740  87.9334548  68.0922754  50.7424338  87.1634334  67.6819708
  50.6084188  88.7007792  69.1412635  50.5766033  89.7585416  68.8800633
  49.1820235  88.1983885  69.3095797  49.2768886  87.1386407  69.5462956
  48.6060898  88.6945009  70.0907793  48.3030965  88.2930734  67.9561888
  48.3503334  89.4889361  67.2514717  48.9522664  90.3375819  67.5763977
  47.5806837  89.5805444  66.0751175  47.6760656  90.4805813  65.4677160
  46.7246192  88.5722415  65.6841611  46.1394611  88.7391038  64.7798123
  46.5850567  87.3428432  66.4130310  45.9229885  86.5145160  66.1607617
  47.3959665  87.2646385  67.5322018  47.3722205  86.3748453  68.1613315
  51.3236929  88.5219800  70.4744427  51.2490690  89.4279207  71.2792190
  52.1601374  87.5441299  70.6898392  52.2398120  86.8243141  69.9858388
  52.9541208  87.3987311  71.9411632  52.3705411  87.7549694  72.7900614
  53.3326083  85.8900099  72.1882655  53.6850268  85.4106214  71.2749818
  54.0893149  85.7890481  72.9662769  52.1268173  85.2666613  72.6159731
  52.2903064  84.3359346  72.7851441  54.2234764  88.2229397  71.9804253
  55.1824677  87.7996667  72.5960361  54.3637390  89.2599523  71.1614984
  53.5533156  89.5092542  70.6127164  55.5647041  90.0918472  71.0446528
  55.9851030  90.2658308  72.0351545  56.6121855  89.4166970  70.1866034
  56.8563813  88.4439395  70.6134646  56.2210705  89.2825004  69.1780795
  57.7553640  90.2000329  70.1382541  58.4166851  89.7676909  69.5929701
  55.2042321  91.4137912  70.3276912  54.0936254  91.5918045  69.8173726
  56.1301745  92.3212514  70.3730845  56.8285316  92.0847761  71.0633570
  56.1459895  93.6613943  69.8069635  55.3396547  93.7413966  69.0779073
  55.9570063  94.7727623  70.8822200  56.7908830  94.8192819  71.5826374
  55.7994927  95.7564051  70.4397989  54.7838464  94.3709333  71.5704142
  54.5857497  95.0057341  72.2627909  57.2891489  93.9522657  68.7692090
  57.7351856  95.0435394  68.5466712  57.8585522  92.9054040  68.2325141
  57.7406608  92.0289447  68.7203871  58.7335202  92.9282384  67.0065535
  58.3843159  93.7444822  66.3741758  60.2551858  93.1485373  67.3142812
  60.3707773  94.0627300  67.8965101  60.8178037  91.9655499  68.1056540
  60.7029797  91.0510041  67.5238284  61.8748737  92.1347696  68.3107562
  60.2768279  91.8671408  69.0468030  61.0211932  93.2554771  66.1358795
  61.9438131  93.3891752  66.3650031  58.4975533  91.6225380  66.2565267
  57.7629885  90.7449909  66.7464845  58.9183787  91.5770483  64.9993371
  59.2266266  92.4911282  64.7001038  58.9298243  90.5061804  64.0402965
  57.9365748  90.3329465  63.6261170  59.8337537  91.0511958  62.9318183
  60.8344814  91.2211355  63.3290141  59.8847638  90.3297929  62.1162964
  59.4266396  91.9913284  62.5596514  59.3986555  89.1184377  64.6213616
  60.1158719  89.1106392  65.5986363  58.9528318  87.9933698  63.9881939
  58.2276775  87.8545438  62.7657290  58.9145636  87.9763953  61.9282089
  57.4578647  88.6247829  62.7186236  57.6344417  86.4354332  62.8424265
  57.6242113  86.0097254  61.8390486  56.6132306  86.5064749  63.2168359
  58.4832545  85.6336486  63.7640106  59.1659943  84.9462183  63.2646060
  57.8533194  85.0784119  64.4589879  59.2856180  86.7090050  64.5250575
  58.9025596  86.6599397  65.5443499  60.7857121  86.4555040  64.5350650
  61.2868870  85.9987914  65.5342522  61.5656508  86.8558810  63.4736188
  61.0046345  87.0609204  62.6591749  63.0071921  86.7786640  63.3150275
  63.3154138  85.8218997  63.7365731  63.5487650  86.8821374  61.8960201
  64.6378297  86.9268678  61.9020590  63.2249469  85.9995712  61.3443693
  63.0710568  88.0821239  61.1109995  61.7077481  88.4743662  60.9185513
  61.7434356  89.6086280  60.1672087  60.8156640  90.0920917  59.8612647
  63.0470476  89.9390947  59.9286895  63.3706623  90.7692352  59.4530424
  63.8678634  88.9474896  60.4463203  64.9431752  88.9839082  60.2717366
  63.6157032  87.6838930  64.3251205  64.7125783  87.3130814  64.8408469
  63.0238897  88.7973640  64.6575630  62.1125490  89.0531374  64.3052318
  63.6609957  89.6770440  65.6247305  64.7424890  89.6796293  65.4888456
  63.1212221  91.1457945  65.4064751  62.0837790  91.1286198  65.0725349
  63.1964043  91.7239908  66.3274185  63.9900010  91.7879783  64.3315047
  64.9390311  91.3586763  64.6526627  63.7561106  91.4395530  63.3255254
  64.0962987  93.3269032  64.3305426  63.5085059  93.9807553  65.2372311
  64.5781128  93.9262819  63.3457389  63.2660231  89.2591652  67.0644885
  63.9404569  89.7208472  67.9965667  62.1885537  88.4779836  67.3208009
  61.5362468  88.2692508  66.5784899  61.8955925  87.9524648  68.6917669
  62.1624659  88.6791672  69.4590878  60.3684857  87.6600438  68.7925631
  60.1056875  86.9418750  68.0158578  59.9960183  87.1079051  70.1258042
  60.2581080  87.8257625  70.9030361  58.9230548  86.9180504  70.1541502
  60.5340935  86.1755074  70.2967143  59.5053948  88.7898238  68.5950909
  58.5902288  88.5113275  68.6757830  62.6806494  86.7358313  69.0089269
  63.1956868  86.5898661  70.1220125  62.9449384  85.8862556  68.0071197
  62.4163884  86.0799246  67.1685337  63.8411790  84.7592752  68.0041367
  64.1317024  84.4449016  69.0065660  63.0043600  83.6124952  67.3428571
  61.9730703  83.6942529  67.6861592  63.0376740  83.7393327  66.2607746
  63.5141793  82.3397970  67.6833837  62.9820818  81.6593836  67.2644450
  65.0944181  85.0337481  67.2596509  65.4325889  84.4535244  66.2576803
  65.7521870  86.0250452  67.8220966  65.3283770  86.5781240  68.5532520
  67.0324865  86.4136008  67.3386239  67.0339879  86.4711044  66.2501432
  67.3623960  87.7897865  67.8988202  66.6424537  88.5309674  67.5517855
  67.3292112  87.7334271  68.9868563  68.7040411  88.3032247  67.5421152
  69.0461412  88.6963287  66.2157888  68.2524052  88.7003929  65.4687503
  70.3663351  89.0744557  65.8516211  70.6092178  89.2763262  64.8083776
  71.3707359  89.1892988  66.8499002  72.3726912  89.5519701  66.6204336
  71.0506846  88.8294233  68.1283652  71.8438385  88.8225931  68.8760018
  69.7340419  88.4723530  68.4926161  69.4819973  88.3166479  69.5415819
  68.0291285  85.3486629  67.6850108  68.0785635  84.9178743  68.7842380
  68.9018735  85.0579092  66.7357225  68.9523255  85.6255876  65.9018789
  69.8254361  83.9048359  66.8578381  70.1382933  83.7318334  67.8875418
  69.4001608  82.9882718  66.4489977  71.0214775  84.2927607  66.0436236
  71.4088606  85.4227194  66.1543023  71.6122890  83.3206357  65.2937384
  71.2072467  82.4283713  65.5384920  72.8112773  83.3344951  64.3845273
  73.1966476  84.3530788  64.3389619  73.9433150  82.4002001  64.8546131
  73.5560492  81.3818852  64.8886595  74.7564881  82.4551065  64.1308488
  74.4720273  82.7989273  66.2568221  73.5850780  82.9918790  66.8603048
  75.0287760  81.9659525  66.6861041  75.3514249  84.0397106  66.2374988
  76.1779294  84.1815889  65.2693051  75.3145185  84.8587723  67.1317369
  72.4091618  83.1450334  62.9102749  73.3162423  82.7459201  62.1745498
  71.1307993  83.2677664  62.5411408  70.4879648  83.5287588  63.2751342
  70.5951905  83.0493174  61.1923009  71.1993634  83.5403689  60.4294493
  70.6454157  81.4946438  60.9500993  70.4124726  81.2796435  59.9072131
  71.6421559  81.1204900  61.1838038  69.5900221  80.7894330  61.8787942
  68.8312152  81.5592301  62.0192410  69.1153407  79.8706193  61.5344714
  70.2995399  80.5292033  63.2011141  69.8916961  81.1797859  64.2258944
  71.3732028  79.8350848  63.2621771  69.1776470  83.5423515  61.0029522
  68.5332858  83.9399022  61.9545246  68.7589002  83.7948856  59.7224294
  69.4831881  83.9274295  59.0310984  67.3184546  84.0020495  59.3021635
  66.7113844  83.8710626  60.1979355  67.0188210  85.3563589  58.7108330
  67.6074638  85.4257044  57.7960706  65.5614940  85.6339603  58.3960450
  64.9722469  85.5652467  59.3104668  65.4642630  86.6351229  57.9761401
  65.1990527  84.9013138  57.6749576  67.3850494  86.4990442  59.6048459
  68.4538913  86.4675605  59.8162411  67.1402956  87.4397873  59.1116951
  66.8281147  86.4233355  60.5387585  66.8509525  82.8742353  58.3179979
  67.3942403  82.7145305  57.2304016  65.9403809  82.0440672  58.7524324
  65.6183385  82.1303265  59.7058197  65.5100435  80.9017140  57.9866962
  65.6066097  81.0856485  56.9166765  66.3988527  79.7397433  58.3585138
  65.9369234  78.8284871  57.9786022  67.3640301  79.8865565  57.8737681
  66.5983562  79.6183366  59.8490200  67.3931681  80.3520464  59.9833507
  65.7114388  79.9401922  60.3948090  67.0464037  78.3056821  60.3663764
  66.6365953  77.8875735  61.4636714  67.9536124  77.6392552  59.8022801
  63.9774087  80.5895949  58.0683240  63.4430535  80.6417355  59.1946521
  63.3202770  80.2315852  56.9626898  63.8531309  80.3409475  56.1116869
  61.9046364  79.8524246  56.8544129  61.4176466  80.1811660  57.7724920
  61.1553366  80.4404286  55.6696843  61.6230427  80.1016669  54.7452435
  59.6478876  79.9735362  55.6980213  59.1793535  80.3123516  56.6220240
  59.1189177  80.3996586  54.8455478  59.6028743  78.8857041  55.6460910
  61.2024845  81.9227307  55.7449072  62.2401994  82.2554293  55.7212123
  60.6658753  82.3473575  54.8964720  60.7360378  82.2550049  56.6723350
  61.8096162  78.2984531  56.9128678  62.2765464  77.6264289  55.9802561
  61.4200406  77.6696580  58.0162283  61.4497666  78.1775723  58.8887183
  61.0158200  76.2728097  58.0449606  61.7164456  75.6264635  57.5163213
  61.0174670  75.8744896  59.5773807  60.4199027  76.6523363  60.0527444
  60.5613537  74.9021079  59.7632156  62.3515646  75.8662296  60.2790934
  63.2777977  74.8008976  60.5332444  64.2369258  75.2773935  61.2137303
  64.9625228  74.5616770  61.6001986  64.1709864  76.5908362  61.3274728
  64.8418267  77.2082000  61.7621395  62.9631906  77.0046577  60.7185704
  62.7055062  78.0631649  60.6830396  59.6666806  76.0991523  57.3671191
  58.7983771  76.9551342  57.4315942  59.3667434  74.8380847  56.9700409
  59.8896239  74.0993518  57.4183365  58.3315402  74.4764862  56.0586694
  57.4822338  75.1497966  56.1745611  58.8201266  74.5687351  54.6698687
  59.5304871  73.7491610  54.5613077  57.9905986  74.4239529  53.9777550
  59.5056750  75.8381626  54.3287334  58.9604252  76.8474518  54.0162481
  60.8096743  75.6505806  54.3667324  61.4333525  76.4173292  54.1588338
  61.1792435  74.7409518  54.6035761  57.9150562  73.0284469  56.2011387
  58.6476865  72.2204979  56.7665998  56.7462648  72.6773453  55.6668839
  56.1593697  73.4442041  55.3709428  56.2078138  71.2867029  55.5512531
  57.0195704  70.5813582  55.7291274  55.0881603  71.0044601  56.5509810
  55.5264103  70.8826100  57.5415307  54.4673484  71.9002759  56.5366035
  54.1852772  69.7221633  56.2039492  53.7261474  69.9497959  55.2419283
  54.8735277  68.3618377  56.1296630  55.3325293  68.1332890  57.0915267
  54.1380937  67.5947361  55.8871909  55.6421608  68.3846574  55.3571458
  53.1373504  69.5681976  57.3504125  52.5216966  70.4661055  57.4036201
  52.5030399  68.7047198  57.1500190  53.6544645  69.4260946  58.2993586
  55.7568662  71.0769901  54.1230585  54.7926092  71.6827196  53.7091899
  56.5483082  70.2782266  53.3866337  57.3671347  69.9725419  53.8927755
  56.3662695  69.8111382  52.0370189  55.9881448  70.5959091  51.3818430
  57.7547497  69.3873466  51.5432491  57.9308508  68.4723683  52.1088483
  57.6327636  69.1436880  50.4878583  58.9630733  70.3417567  51.7163084
  59.0821065  70.6001029  52.7685390  60.2712047  69.6099919  51.2010788
  60.1530979  69.3517289  50.1487243  61.1287652  70.2725738  51.3180225
  60.4326422  68.7017154  51.7816580  58.8473272  71.6693805  51.0155325
  57.9766120  72.2054398  51.3931500  59.7451521  72.2586812  51.2019096
  58.7363061  71.5064888  49.9435066  55.4197652  68.6055843  51.9900882
  55.5074684  67.6741092  52.8594577  54.5755535  68.5050876  50.9323813
  54.5728161  69.2602879  50.2617365  53.5946398  67.4208313  50.7660820
  53.7850125  66.4891448  51.2988273  52.1189645  67.8751820  51.0213896
  51.9745115  68.8201983  50.4977697  51.0697217  66.8602865  50.5441333
  51.2132554  65.9150919  51.0676847  50.0710935  67.2433578  50.7541304
  51.1790823  66.7010856  49.4713824  51.7676596  68.4136408  52.3609104
  52.3960233  69.2884390  52.5282065  50.7226355  68.7204835  52.3176471
  51.9669281  67.3860106  53.5491551  53.0118778  67.0790462  53.5933440
  51.6877716  67.8595461  54.4903963  51.3384913  66.5110892  53.3827831
  53.8949907  66.9326690  49.3768927  53.6843895  67.6950977  48.4591767
  54.4640697  65.7803031  49.2336070  54.4020341  65.1704664  50.0363212
  55.2521496  65.3125384  48.0428172  55.1458133  66.0869855  47.2831966
  56.7433062  65.0846902  48.3363173  56.7658452  64.4543879  49.2253119
  57.6184546  64.4339505  47.2134482  57.5967788  65.0639616  46.3242256
  58.6459671  64.3360669  47.5637874  57.2228943  63.4480364  46.9693077
  57.3186469  66.4849969  48.5902331  57.3912786  66.9750813  47.6193352
  56.5948313  67.0138202  49.2103432  58.7132103  66.5050234  49.2878532
  59.4377085  65.9767510  48.6680705  59.0367981  67.5368462  49.4247171
  58.6412616  66.0154875  50.2590781  54.6314292  64.0573261  47.4996640
  54.4487931  63.0897434  48.1804787  54.3415145  64.1327797  46.2337978
  54.4219329  65.0332599  45.7835003  53.8381770  62.9901406  45.4350480
  52.8418509  62.7120388  45.7786945  53.7583446  63.3607068  43.9513495
  53.1818192  64.2589338  43.7302025  54.8002348  63.5208890  43.6740292
  53.2032557  62.2031832  43.1669610  52.2652122  61.5706317  43.6304122
  53.6220354  62.0202826  42.0381616  54.6207439  61.6938458  45.5386761
  55.7453907  61.6526047  45.0891456  53.9991242  60.5671302  45.8791567
  53.0501710  60.6611167  46.2119535  54.6067026  59.2732416  45.9195532
  55.5294991  59.3100346  46.4985109  53.6421569  58.2597669  46.5883922
  54.2578667  57.4083018  46.8782333  53.2627323  58.7542480  47.4826100
  52.4177759  57.7525480  45.7019695  51.9027734  58.6680646  45.4109327
  52.6762144  57.1823186  44.8096971  51.4561421  56.8978119  46.5770888
  51.7513018  56.5319551  47.7502702  50.3689420  56.4522974  45.9499574
  49.6956916  55.8899871  46.4505994  50.2226973  56.6787956  44.9766063
  55.1234255  58.6858070  44.6022192  55.9180507  57.7833466  44.6137983
  54.5424676  59.1237132  43.4986672  53.7908017  59.7893399  43.6083889
  54.7935396  58.5684476  42.1571721  55.2622106  57.5860261  42.2145703
  53.4836748  58.4281113  41.4901570  53.1344875  57.5284430  41.9968762
  52.7471652  59.2223075  41.6122476  53.5292314  58.1010796  40.0040669
  54.0678360  56.9015307  39.4487423  53.6115625  56.8508175  38.1758273
  53.8119099  55.9634177  37.5754262  52.9377185  58.0134947  37.8731724
  52.5642699  58.2814929  36.9738321  52.8521971  58.7760790  39.0303039
  52.3111010  59.7222419  39.0207144  55.8534090  59.2883642  41.3060834
  56.5351869  58.6654441  40.5547623  55.9120744  60.6247382  41.3074258
  55.1817098  61.0680229  41.8460958  56.8892084  61.4777924  40.6291641
  57.6011290  60.9254135  40.0158569  56.1846769  62.4780465  39.7620937
  56.9338449  63.1359845  39.3216790  55.3825093  61.8042956  38.6503689
  54.6327800  61.1465063  39.0900493  54.8882206  62.5649682  38.0460884
  56.0533102  61.2199574  38.0205472  55.3769329  63.2987737  40.5875962
  54.9187660  63.9453175  40.0456880  57.8868644  62.3504298  41.4992747
  58.6766115  63.1053412  40.9652668  57.7444330  62.3337115  42.8199225
  57.0973023  61.6230321  43.1301741  58.2829095  63.2477208  43.8037849
  57.7580015  63.1752976  44.7563213  59.7670901  62.8273059  44.0201137
  60.2840325  62.4275450  43.1477256  60.2558163  63.7470399  44.3415730
  59.9584622  61.8255300  45.1318456  60.5184091  62.2347593  46.3409481
  61.0109524  63.2055657  46.3960464  60.4547883  61.4227713  47.4673485
  60.8156088  61.7913994  48.4275686  59.9042705  60.0757203  47.3633015
  59.7893001  59.4336822  48.2366106  59.5173873  59.6114248  46.0933168
  59.2861862  58.5574869  45.9388463  59.4298226  60.5129941  45.0222257
  58.9512849  60.2086229  44.0913875  58.1438386  64.8001263  43.5320581
  58.9834262  65.5301546  43.9956628  57.0762705  65.2475047  42.9163635
  56.4668128  64.5688532  42.4826667  56.7108197  66.6374605  42.8436826
  57.5503444  67.2478592  42.5109501  55.5732728  66.7695111  41.8221736
  55.9809696  66.4031835  40.8800023  54.7902910  66.0935798  42.1659124
  54.9926488  68.1492636  41.6167472  54.0718443  68.2050873  41.0361410
  54.8001520  68.4856706  42.6355084  56.0690005  69.0580378  40.9671755
  57.0392283  69.5384701  41.6680648  56.0291333  69.1604257  39.7121168
  56.2186707  67.0965558  44.2227427  55.4773163  66.3649740  44.9600506
  56.5577023  68.3540767  44.4977838  57.1770832  68.8415365  43.8662383
  56.0991248  69.0630448  45.7241137  56.0167149  68.3360250  46.5320432
  57.0582151  70.1547003  46.1513058  57.1302120  70.9063381  45.3652039
  56.5318209  70.8191299  47.4576745  56.4599910  70.0681514  48.2444227
  57.2195264  71.6056036  47.7685135  55.5469772  71.2493527  47.2757600
  58.5025884  69.6131275  46.4462867  58.9070969  69.1473526  45.5476607
  59.1463990  70.4393318  46.7479389  58.4581461  68.8762871  47.2482792
  54.6986986  69.6298054  45.3758110  54.6267119  70.7413623  44.8463687
  53.6994277  68.9701415  45.8431505  53.9076196  68.0987892  46.3095202
  52.3166803  69.3371071  45.6660067  52.1723403  69.7280861  44.6588321
  51.4100591  68.1570374  45.8566827  51.4475022  67.8965900  46.9144466
  50.4279460  68.5652342  45.6180845  51.6625242  66.8906579  45.0049448
  52.6911199  66.5554406  45.1380650  50.6890509  65.7707494  45.4674487
  49.6601856  66.1050791  45.3341873  50.8586511  64.8729086  44.8731270
  50.8646537  65.5477589  46.5198456  51.3441917  67.2291262  43.5551935
  51.9888695  68.0421799  43.2213766  51.5139856  66.3518210  42.9310085
  50.3014768  67.5360592  43.4737279  51.7696160  70.4809395  46.5249184
  51.0749079  71.2728965  45.9122115  52.1477143  70.5858481  47.7790324
  52.5700474  69.7837745  48.2244669  51.9598959  71.8108548  48.5779015
  51.9640353  72.6861314  47.9283071  50.5542827  71.7501418  49.3468382
  49.8444512  71.5423953  48.5461635  50.5221034  70.9430242  50.0787027
  50.0655793  72.9785202  50.0433462  49.0873229  73.8509495  49.6283780
  48.9722381  74.7584324  50.5438726  48.2752851  75.5748883  50.3547816
  49.7792004  74.5028302  51.6079113  49.8884781  75.0172068  52.4702193
  50.4475820  73.3742056  51.2896704  51.1545589  72.9415115  51.9975268
  53.0677509  72.0591371  49.6343286  53.4258352  71.0993826  50.3270197
  53.4548471  73.3111219  49.8599314  53.1881894  73.9709207  49.1432316
  54.4481648  73.7437323  50.8851753  54.6104459  72.7959459  51.3984636
  55.7492572  74.1609770  50.2100817  55.6051377  75.1130867  49.6993795
  56.5314142  74.2672112  50.9617764  56.0430924  73.4014746  49.4855707
  53.9192333  74.7169253  51.9929874  53.8446995  75.9111323  51.6885529
  53.5358783  74.2415858  53.1522649  53.3489197  73.2524122  53.2340058
  53.2544817  75.0940478  54.2980443  52.6279069  75.9363149  54.0046343
  52.5302459  74.2977456  55.3240166  51.6037570  73.9161522  54.8949433
  53.1136418  73.4682711  55.7236681  52.1494314  75.1342999  56.4699495
  51.1285916  76.1141863  56.5423833  51.1438375  76.5736007  57.8186070
  50.4678572  77.3711950  58.1268163  52.0997095  75.8714309  58.5269208
  52.3009514  75.9665693  59.5120858  52.7505508  75.0015288  57.6610404
  53.5767452  74.3893574  58.0226343  54.5357778  75.7357886  54.8153984
  55.5752972  75.0061993  54.8782067  54.5093784  77.0158603  55.1969131
  53.6350434  77.5158138  55.1215190  55.6947838  77.7451088  55.7130861
  56.5832711  77.1211637  55.6162245  55.9159883  79.0393505  54.9203813
  55.0382350  79.6734457  55.0451676  56.7908143  79.5466159  55.3271506
  56.1370421  78.7571507  53.4195657  56.7832363  77.8807432  53.3701309
  55.2145600  78.5590059  52.8737932  56.8426511  79.9112083  52.7665452
  57.4807616  80.8028952  53.3682639  56.6931591  80.0204509  51.4749155
  57.1436742  80.7766621  50.9796558  56.1276324  79.3482860  50.9764426
  55.3556457  78.0391137  57.2470941  54.3385420  78.6793019  57.5316343
  56.1012118  77.5779134  58.2297637  56.5865944  76.6947364  58.1626712
  56.1649724  78.3131631  59.5005821  55.1746288  78.5401068  59.8953167
  56.8737375  77.3857737  60.4720068  57.8617026  77.0784616  60.1291024
  56.9699715  77.9407321  61.4052058  56.1116363  76.1121165  60.8000742
  55.1164744  76.1073147  61.7749566  55.0236921  76.8987397  62.5186890
  54.2188390  75.0391221  61.7772268  53.3216562  75.1455789  62.3870060
  54.4273702  73.8797774  61.0484254  53.7638319  73.0189728  61.1310833
  55.5313000  73.8338840  60.1844192  55.7396323  72.9179074  59.6315315
  56.3709029  74.9617724  60.0268891  57.1988109  74.9302254  59.3186003
  56.8366973  79.6860041  59.4185386  57.3557973  80.1263103  58.4232122
  56.7142095  80.4188411  60.5474108  56.0788442  80.1099689  61.2692198
  57.3247508  81.7914006  60.6722066  57.0461990  82.3731113  59.7935026
  56.8713970  82.5383791  61.9114949  57.1152054  81.8876053  62.7512271
  57.4639480  83.4509871  61.9757591  55.3570936  82.8988216  61.9571525
  54.7934924  81.9660985  61.9351964  54.9703946  83.6985539  63.2021991
  55.5332880  84.6316925  63.2246099  53.9032594  83.9190986  63.1760623
  55.1986569  83.1156263  64.0944951  54.9877806  83.7292486  60.7002290
  55.1959624  83.1448787  59.8039748  53.9280825  83.9827271  60.7300590
  55.5793991  84.6445400  60.6821124  58.8595406  81.8197696  60.5084858
  59.5462015  80.8146120  60.5183313  59.4986608  82.9445827  60.2631477
  58.9325897  83.7640290  60.0953066  60.9376553  83.0951817  60.2729352
  61.4071543  82.3821818  59.5952177  61.2780053  84.5167994  59.8023386
  60.8683655  85.1645535  60.5773928  62.3667746  84.5591276  59.8321653
  60.7802084  84.9947137  58.4131705  61.4716701  85.7887342  58.1311900
  60.8654883  84.1707839  57.7046727  59.3628460  85.5412464  58.3543586
  58.6527986  85.5867818  59.3242494  58.9311927  85.9081588  57.1869552
  57.9964647  86.2785497  57.0910613  59.5319730  85.8216311  56.3796899
  61.4991882  82.9494694  61.6693512  61.1995897  83.6323028  62.6522049
  62.3311261  81.9171394  61.7304342  62.3158701  81.3325586  60.9069467
  63.0139657  81.4333148  62.8951959  63.6307377  80.5846768  62.5993835
  63.9149561  82.4857379  63.5679999  63.2093929  83.2055179  63.9829656
  64.4864217  82.0302393  64.3767323  64.8867497  83.2303151  62.6387159
  65.0835707  82.8799646  61.4875590  65.5880282  84.2261863  63.1191190
  66.2301123  84.7235819  62.5187646  65.4836281  84.4923468  64.0878088
  62.0969215  80.6681032  63.8493542  62.4650039  80.4944814  64.9890545
  61.0081109  80.1728986  63.2706202  60.8109997  80.5089228  62.3387757
  60.0166593  79.2939654  63.9220624  60.2002782  79.3166303  64.9962456
  58.5717995  79.6948877  63.6674203  58.4038033  80.6715771  64.1212421
  58.4220624  79.7648419  62.5900228  57.5618073  78.6597112  64.2683722
  57.6326483  77.7915696  63.6130765  57.7504977  78.3538813  65.2974316
  56.1241045  79.2785325  64.1623733  55.5176527  79.3608749  65.2415215
  55.5670210  79.5505791  63.0788611  60.4276602  77.9001690  63.4309424
  60.1548015  77.5015611  62.3043055  61.0777474  77.0809056  64.2292439
  61.1647532  77.3115014  65.2087105  61.6100215  75.8143136  63.7723425
  61.9470508  75.9653671  62.7468215  62.7845846  75.2217327  64.5987344
  62.4534587  74.9423039  65.5989215  62.9907428  74.3213359  64.0200424
  64.0287108  76.0459702  64.6979338  64.0759206  77.4067028  65.0091881
  63.1543219  77.9773359  65.1237882  65.3376513  78.0490391  65.1770829
  65.3665853  79.1336521  65.2813873  66.5204868  77.3293422  65.0807164
  67.7335818  77.9351680  65.4109643  67.6330542  78.8478872  65.6910315
  66.4473340  75.9502608  64.7754017  67.3739592  75.3850992  64.6751086
  65.2262408  75.3158066  64.6041205  65.1921669  74.2464481  64.3957662
  60.5599211  74.7183617  63.8701159  60.0720312  74.4225341  64.9968836
  60.3267275  73.9400083  62.8313826  60.6478589  74.2716771  61.9330676
  59.6181307  72.6443448  62.8874242  58.7152305  72.5880738  63.4954570
  59.2328436  72.4722080  61.4304243  60.1276944  72.5171287  60.8096794
  58.7451631  71.5068958  61.2946292  58.5484207  73.2687297  61.1385033
  60.5443328  71.5517760  63.4256723  61.6383292  71.3270160  62.9657813
  60.1438709  70.8716253  64.5534890  59.2861762  71.1519584  65.0072207
  60.9627790  69.8309462  65.1926849  61.9744735  69.8624262  64.7882318
  61.0355571  70.0478681  66.7307243  60.1092125  70.3653185  67.2094832
  61.2516383  69.0158625  67.0070819  62.1917556  70.9570129  67.1952421
  63.0962022  70.4252064  66.8998456  62.2528599  72.3791621  66.6819305
  61.3488962  72.9117727  66.9773531  63.1238025  72.8810306  67.1034609
  62.3299583  72.3705637  65.5946944  61.8572814  71.2554855  68.6494422
  61.8149992  70.3227736  69.2119013  62.6259103  71.9009636  69.0744938
  60.8910127  71.7568160  68.7050436  60.5406827  68.3760708  64.9007768
  61.4728377  67.5469247  64.7182642  59.2168545  68.1071292  64.8780758
  58.6432643  68.9281845  64.7478381  58.5471978  66.7673728  64.8880144
  59.2637312  65.9973543  64.6020939  58.0085430  66.4404034  66.2795445
  57.4105760  65.5407788  66.1339068  58.8961924  66.1955604  66.8628373
  57.2662826  67.3787371  66.9494461  57.0020726  67.0278924  67.8030860
  57.2733006  66.7536116  64.0409574  56.7375627  67.8192753  63.7184007
  56.8121950  65.5612575  63.7094783  57.0478497  64.7989996  64.3287756
  55.9720084  65.2662975  62.5129124  55.2990511  66.0920026  62.2817439
  56.9171983  65.0751946  61.3523175  57.5384285  65.9706619  61.3699415
  57.5415336  64.1971726  61.5177955  56.2238584  64.9600661  59.9859350
  55.4957115  64.1520703  60.0569690  55.5227339  66.2368160  59.5496643
  56.2503685  67.0452121  59.4779535  55.0559791  66.0814528  58.5769860
  54.7585327  66.5003334  60.2808657  57.2931984  64.5293609  59.0218816
  57.7046203  63.5711481  59.3391508  56.8647490  64.4279648  58.0247601
  58.0869377  65.2761282  59.0014974  55.1508718  63.9662624  62.7577149
  55.8026446  62.8518530  62.9403403  53.7867386  63.9347088  62.7173666
  53.3063180  64.8229288  62.6983784  52.9702849  62.6916180  62.8216472
  53.3736340  61.7050331  62.5934827  52.3493834  62.6601629  64.2796204
  52.1035244  63.6891794  64.5418755  51.1016797  61.7866680  64.4197240
  51.3468814  60.7573427  64.1580628  50.7449252  61.8242378  65.4490029
  50.3227912  62.1550421  63.7520902  53.2932953  62.4550087  65.5048727
  54.0251668  63.2620199  65.5395014  52.7047597  62.4593353  66.4223185
  53.8103347  61.5001424  65.4099974  51.9521895  62.6121284  61.7055861
  51.3857866  63.6701169  61.3651201  51.6214139  61.4064426  61.2767141
  52.1822349  60.6211009  61.5747367  50.5926980  61.1801177  60.2276947
  49.9168962  62.0336383  60.2814874  51.0523166  61.0257131  58.8216641
  51.5679901  61.9186096  58.4682300  51.7047576  60.1602360  58.7060351
  49.8342100  60.8251465  58.0392074  50.0628827  60.7176769  57.1130547
  49.6997754  60.0093901  60.7146528  50.2134682  58.8809871  60.8371774
  48.3809279  60.2123113  60.9620679  47.9385513  61.0686458  60.6602506
  47.5957799  59.2730025  61.8142478  47.6567816  58.2523452  61.4365751
  48.2076119  59.3115981  63.2404231  47.8218150  58.4845735  63.8364854
  49.2939845  59.2426277  63.1844075  47.8477320  60.8181958  64.1793862
  48.5152891  60.4629218  65.2734823  46.0763660  59.5311291  61.7706792
  45.6421610  60.4183964  61.0136979  45.2597702  58.7901536  62.5680327
  45.6391303  57.9076915  62.8801959  43.8056046  59.0790573  62.8398820
  43.5930547  60.1380982  62.6937513  42.9166273  58.2427550  61.8371303
  41.8819221  58.5618344  61.9623208  43.2476741  58.4740877  60.8247108
  43.0196019  56.6968360  62.0799956  44.0611478  56.4128373  61.9295706
  42.7390565  56.5112867  63.1168021  42.0974048  55.8411612  61.1240002
  42.4459772  54.8179040  61.2637893  41.1003721  55.9464326  61.5517186
  42.0462361  56.1688681  59.6004334  41.5633325  57.1403013  59.4944982
  43.0759006  56.2353011  59.2490407  41.3211304  55.1731368  58.8034133
  40.3668788  55.1117343  59.1285800  41.3286760  55.4492394  57.8319143
  41.7686911  54.2729999  58.9010975  43.5118137  58.9246454  64.3152128
  43.9525574  57.9177561  64.9233122  42.8762649  59.8937889  64.9406243
  42.5914179  60.6714051  64.3624594  42.6858849  60.0030673  66.4200322
  43.1799551  59.1896802  66.9514409  43.3300518  61.3326652  66.8480549
  42.8298054  62.1515618  66.3310818  43.1494224  61.4159622  67.9197520
  44.8430371  61.4030361  66.5762490  45.0286579  61.1812010  65.5253280
  45.3781730  62.8170385  66.9069828  45.1933153  63.0394194  67.9579220
  46.4497181  62.8555813  66.7110075  44.8689184  63.5534179  66.2852872
  45.6763468  60.4529130  67.4325006  45.3649528  59.4254634  67.2441378
  46.7306039  60.5647293  67.1792411  45.5293426  60.6891588  68.4863871
  41.1839083  59.8186926  66.9256499  40.2592113  60.4254129  66.3993979
  41.0875143  58.8993107  67.9046004  41.8296444  58.2695404  68.1742884
  39.8439297  58.8189598  68.6028540  39.9840190  58.0090905  69.3188051
  39.7682925  59.7662098  69.1367977  38.5826722  58.5860444  67.8491818
  38.5814057  57.6857390  66.9583016  37.4754603  59.2457050  68.2535316
  37.4511919  59.7489829  69.1288726  36.2028736  59.1819826  67.4228502
  35.9046281  58.1511369  67.2317847  35.1164410  59.8579759  68.2155690
  34.2193805  59.7558573  67.6048698  35.0117436  59.2552496  69.1177106
  35.3065003  61.3369696  68.6054320  36.2172123  61.3556238  69.2040609
  35.4809821  61.8564107  67.6631799  34.1460362  62.0543428  69.3930461
  33.9838144  61.5233466  70.3310365  34.4522273  63.0788836  69.6043815
  32.8333665  62.0672390  68.5744859  32.8006742  62.9770153  67.9750370
  32.8197779  61.1984396  67.9163809  31.6342211  62.0242294  69.4880829
  31.6463928  62.8294193  70.0976900  30.7891463  62.0333905  68.9350326
  31.6640987  61.1810768  70.0433308  36.2074394  59.7689480  66.0311154
  35.3716963  59.4394896  65.2511202  37.1001059  60.7492340  65.7722800
  37.7498976  60.9969384  66.5047502  37.1720352  61.4755417  64.5092383
  36.1677356  61.7348234  64.1741940  37.9571611  62.7298802  64.6744443
  37.6139415  63.1871779  65.6024414  38.9855478  62.3897556  64.7962475
  37.8911137  63.7608464  63.5423249  38.5151394  64.8819614  63.7235375
  37.2335682  63.3952768  62.4926788  37.8531073  60.6191423  63.3586654
  38.9566037  60.1757528  63.6186604  37.2567168  60.4044236  62.1696994
  35.8547663  60.5104897  62.0871054  35.5883628  61.5671825  62.1101244
  35.4207096  60.0079796  62.9514997  35.4775869  59.8460730  60.7860984
  35.5489463  60.5503694  59.9572598  34.4649155  59.4459439  60.8360439
  36.4970769  58.7269367  60.6527005  36.6520145  58.3948033  59.6261622
  36.2330919  57.8717196  61.2748060  37.7916668  59.3956960  61.1925550
  38.4203561  58.7258714  61.7792261  38.5874555  59.9293391  60.0057617
  39.1669201  59.1240640  59.2437789  38.6896545  61.2323450  59.8390999
  37.9451746  61.8088037  60.2045371  39.7544842  61.8788152  59.0711860
  39.6896222  61.6378873  58.0101272  39.5622479  63.3904690  59.2430872
  39.6348815  63.5490360  60.3190426  40.3418380  63.9614320  58.7387652
  38.1929401  63.8982674  58.7630267  38.0796709  64.2651025  57.6076466
  37.1660892  64.0430097  59.5651482  36.2872092  64.3806171  59.1995104
  37.2586771  63.8162348  60.5449958  41.1852751  61.3989883  59.4632440
  41.5016099  61.1484705  60.6623008  41.9981506  61.3081400  58.4811004
  41.6176164  61.3776335  57.5481140  43.4585120  61.1111278  58.6309697
  43.7761627  60.7257752  59.5998354  44.0788259  60.2092221  57.5040954
  43.5583604  60.4958923  56.5902923  45.5606301  60.2874142  57.2808752
  46.0818093  60.0004170  58.1941683  45.8432348  59.6111626  56.4740806
  45.8347525  61.3075439  57.0120016  43.6722771  58.8573136  57.6529027
  44.0629937  58.3269606  56.9545714  44.1049494  62.5273054  58.5642715
  43.8895534  63.2849384  57.6466585  44.9789451  62.8187810  59.5120287
  45.3245441  61.9994319  59.9909105  45.5068460  64.1408299  59.9139891
  45.1622058  64.9115908  59.2246053  45.0173263  64.4761074  61.2912459
  45.1408079  63.6329140  61.9708609  45.6833529  65.2849137  61.5918137
  43.6122101  64.9489110  61.3406655  43.1831710  66.0967866  60.6572410
  43.9003979  66.6831384  60.0828922  41.7934013  66.5039108  60.7125515
  41.4369679  67.3105248  60.0719027  40.8909297  65.7650567  61.4652974
  39.6507313  66.2526244  61.7728761  39.4939161  67.1303591  61.4170805
  41.3426182  64.5813475  62.0297052  40.5813759  63.9731760  62.5183134
  42.6469218  64.1570827  62.0035625  42.9257115  63.2220107  62.4893780
  47.0511536  64.1918677  59.9771968  47.6477336  63.2141790  60.5099810
  47.7081383  65.3076264  59.5300472  47.2265630  65.8253748  58.8088530
  49.0779226  65.6800127  59.8486151  49.6588485  64.7856855  60.0740107
  49.7302787  66.4020420  58.6686595  48.9656799  67.1093457  58.3473975
  50.6534862  66.9394091  58.8855109  50.0287097  65.4755129  57.4400253
  51.0954869  64.5400151  57.4661228  51.6593549  64.3746853  58.3841744
  51.4198589  63.8338156  56.3154052  52.2475869  63.1248113  56.3321377
  50.6723767  64.0335928  55.1102399  50.9400403  63.5059849  54.1947695
  49.5677468  64.9340285  55.1167434  48.9165759  65.0200092  54.2468676
  49.3259569  65.7015455  56.2385929  48.5817592  66.4972276  56.2045379
  49.1549427  66.4091877  61.2015145  48.2031571  67.2067656  61.4373102
  50.1506660  66.1459600  62.0761644  50.7818706  65.3690578  61.9416170
  50.3538068  67.0310357  63.2772958  49.7725247  67.9519656  63.2314870
  49.8735895  66.1714578  64.4936051  50.4739827  65.2660339  64.5821262
  50.0490956  67.0360008  65.7727411  49.4485961  67.9414451  65.6851527
  49.7232776  66.4674031  66.6437406  51.0987027  67.3064846  65.8879041
  48.3749168  65.7568121  64.2657561  47.8325511  66.6587069  63.9819852
  48.3607736  65.0490400  63.4369267  47.7128855  65.1293727  65.4771307
  47.7262352  65.8367734  66.3062904  46.6814064  64.8725799  65.2358680
  48.2544595  64.2271071  65.7612334  51.8565976  67.3752558  63.3885718
  52.6379139  66.4423304  63.2649112  52.2682481  68.5749596  63.6823125
  51.5394886  69.1956106  64.0044944  53.6555230  69.0520746  63.7201243
  54.2124431  68.1452115  63.4844581  53.8857144  70.0715863  62.6025077
  53.3519002  70.9776150  62.8893069  55.3397026  70.4057806  62.3339537
  55.8741019  69.5002628  62.0466282  55.4022091  71.1355452  61.5267133
  55.7897840  70.8221793  63.2351421  53.5210795  69.4160804  61.2031684
  52.4746331  69.1110484  61.2059085  53.6851553  70.1425410  60.4072830
  54.1527611  68.5439850  61.0342635  53.8389536  69.8465206  64.9976413
  53.1067528  70.7910592  65.2301126  54.8625543  69.4615482  65.7344613
  55.2773597  68.5593906  65.5496711  55.4346548  70.2874183  66.8206950
  54.5988680  70.8531989  67.2323406  55.7979031  69.5815797  67.5676501
  56.5501603  71.2455120  66.4652042  57.3412880  71.0143910  65.5901287
  56.7212786  72.3303906  67.2158698  56.2457822  72.4509753  68.0987412
  57.5640907  73.4245741  66.7254574  58.4185143  73.0680752  66.1501591
  56.7762111  74.4604401  65.8597575  57.5136525  75.1845663  65.5134604
  56.0291125  73.9126053  64.6887828  55.2911181  73.1886975  65.0343569
  55.5235682  74.7252803  64.1671666  56.7264894  73.4233440  64.0087905
  55.8816754  75.2157501  66.6573172  55.4110579  75.8431295  66.1036796
  58.2300756  74.1193239  67.9025602  58.0659637  73.6142278  69.0378998
  59.0370167  75.1658302  67.6683218  59.1802420  75.4352134  66.7055038
  59.6685779  75.9506453  68.6983692  58.9906301  76.0626256  69.5445054
  60.9300854  75.2730627  69.1772480  61.6226830  75.1620727  68.3429281
  61.3945017  75.8775424  69.9563641  60.6850430  74.2897337  69.5786427
  60.0892279  77.2745826  68.2237142  60.3309939  77.5344872  67.0541263
  60.3749035  78.1667017  69.1674949  59.8949762  78.1156369  70.0547161
  61.3021546  79.3030987  68.9328520  61.9003371  79.2042974  68.0270291
  60.3220982  80.4832224  68.7509223  59.4746320  80.2811442  69.4059526
  60.8462143  81.3730007  69.0997731  59.8230354  80.7126101  67.3332952
  60.6837016  80.9445951  66.7059696  59.3588054  79.7897631  66.9855222
  58.6292276  82.0547430  67.2197786  58.8629606  82.8772454  65.6666075
  58.7074191  82.1689994  64.8527934  58.1484123  83.6954742  65.5770359
  59.8769524  83.2736424  65.6137737  62.3475325  79.4913599  70.0338669
  62.0216245  79.2233716  71.1916321  63.4707339  80.1220836  69.7263200
  63.6103222  80.3877846  68.7619459  64.5646020  80.3381249  70.6691959
  64.3222519  79.9084147  71.6411603  65.8942148  79.7197766  70.1725471
  66.2614332  80.3241147  69.3430742  66.9921766  79.6693351  71.3161994
  66.6258383  79.0647469  72.1458802  67.9077934  79.2281678  70.9223494
  67.1984694  80.6803810  71.6673846  65.7281908  78.2929332  69.6207963
  65.0362723  78.3066865  68.7786790  66.6957737  77.9161559  69.2892516
  65.3347524  77.6438153  70.4030705  64.7266328  81.8353035  71.0184053
  65.5443494  82.5987068  70.4827859  63.9120746  82.2689454  71.9992414
  63.1381102  81.6689118  72.2463003  63.9854612  83.5308877  72.5898759
  64.1072009  84.2948922  71.8220375  62.6924369  83.8248694  73.3768530
  62.5968850  83.0370985  74.1241054  62.8415954  84.7822960  73.8760384
  61.4221189  83.8833349  72.5350384  60.2443993  84.0631924  73.2691998
  60.2766075  84.1240621  74.3570219  59.0035149  84.1663945  72.5894262
  58.1145525  84.4751235  73.1394572  58.9287425  83.9375743  71.1911167
  57.7332562  83.8523652  70.5124579  56.9692647  83.9634532  71.0830507
  60.1176447  83.7252004  70.4927273  60.0685196  83.5204099  69.4232657
  61.3812710  83.7721124  71.1525370  62.3018791  83.7206960  70.5712133
  65.2869022  83.7040708  73.4525543  65.6018238  82.9105395  74.3998486
  66.0561423  84.8519560  73.2806294  65.9673798  85.7560528  72.1257458
  64.9694082  86.1907897  72.0695621  66.1764811  85.2076855  71.2072313
  67.0892528  86.8392563  72.4556220  66.6414299  87.7173306  72.9209598
  67.6070807  87.1362816  71.5436288  68.0333693  86.1284187  73.4075516
  68.4637137  86.8299410  74.1222328  68.8327394  85.6555418  72.8370303
  67.2391301  85.0884747  74.1313730  67.8150198  84.1632656  74.1522900
  66.8935552  85.5062095  75.5634081  67.7506576  85.6120799  76.3934949
  65.6234568  85.7717926  75.8521515  64.9307558  85.6021625  75.1369660
  65.1751314  86.2937624  77.1403971  65.9051579  86.9895754  77.5539243
  63.8073453  87.0688202  76.9129451  63.1362676  86.3422038  76.4549249
  63.4465563  87.3171186  77.9110830  63.8492892  88.3665599  76.0351557
  64.2704573  88.0466571  75.0820657  62.8502314  88.7710763  75.8728314
  64.7592210  89.4661921  76.6620320  66.0542250  89.3350332  76.5781273
  64.1586498  90.3621442  77.2748900  64.9478776  85.1367340  78.1763465
  64.6256595  85.4255530  79.3629918  65.0187256  83.8579513  77.7589338
  65.1791488  83.7942495  76.7637926  64.8544856  82.6350239  78.5043911
  64.9008546  82.8120587  79.5789179  63.4655408  82.0835190  78.1579236
  63.3683170  82.1043079  77.0724677  63.4289581  81.0511574  78.5057615
  62.3278148  82.8672304  78.7819124  62.3495102  83.8888823  78.4026268
  61.4035412  82.3828483  78.4669657  62.3961580  82.8893030  80.3033969
  62.0498444  83.9667915  80.8747036  62.7445680  81.8949817  80.9265139
  65.9762452  81.5819568  78.1981674  66.1784252  81.2798947  77.0010593
  66.6472424  81.0693056  79.2071671  66.5329693  81.4876011  80.1193457
  67.6546890  79.9504819  79.0519320  68.3148591  80.1089216  78.1991886
  68.5070348  79.8844323  80.3263327  67.8608148  79.7169893  81.1879954
  69.2215875  79.0654363  80.2441120  69.0449746  80.8238900  80.4533725
  66.8649494  78.6375175  78.7285655  67.0764418  77.9790314  77.7000880
  65.8620380  78.3310678  79.5015903  65.8154696  78.6815837  80.4476714
  64.9263789  77.3169309  79.1045784  65.4292589  76.3880217  78.8356201
  64.0246096  77.0528578  80.3167712  64.7070020  76.8586885  81.1442603
  63.4991062  77.9915141  80.4924714  62.9983035  75.8989785  80.2132507
  62.3961200  75.9056669  79.3047183  63.6969316  75.0629959  80.1793212
  62.0681213  75.7468341  81.4501347  62.3165035  76.3633523  82.4860964
  61.0120584  75.1572494  81.2446232  64.1948905  77.5750684  77.7591302
  64.0591270  78.7648533  77.4372498  63.9556855  76.5636820  76.8916439
  64.5046572  75.2040472  76.8901513  64.1107904  74.7073669  77.7768745
  65.5863315  75.3036875  76.9804364  64.0857731  74.5011012  75.5819189
  63.2218940  73.8548073  75.7372127  64.9060959  73.9164600  75.1655457
  63.7406078  75.6907318  74.6692027  62.9221289  75.3998974  74.0107146
  64.5682876  76.0733541  74.0720043  63.2698955  76.7503120  75.6355059
  63.5485533  77.6930422  75.1646474  61.7547380  76.7764805  75.9904889
  61.0438868  75.7865199  75.9614796  61.3263922  77.9832002  76.3229064
  61.8969935  78.8043998  76.1809747  60.0281594  78.1412471  77.0236187
  59.7833727  77.2285289  77.5668719  60.1081237  79.2788614  78.0059218
  60.5758863  80.1200740  77.4943959  59.0877189  79.5442648  78.2823909
  60.9071407  78.9409928  79.2680164  60.7785905  77.8813499  79.4887714
  61.9607049  79.1470569  79.0792253  60.4246175  79.7832382  80.4782296
  60.6294739  80.8346114  80.2763700  59.3508545  79.6393836  80.5983895
  61.1510581  79.3563047  81.7780222  60.6805842  78.4321292  82.1136624
  62.1887169  79.1583922  81.5093327  61.1043568  80.3973768  82.9126027
  60.1429392  80.5805890  83.1620208  61.5988737  80.0403675  83.7176476
  61.5406403  81.2536742  82.6019411  58.8900804  78.3137549  76.0261082
  57.7269872  78.4547964  76.5365547  59.0314597  78.2078597  74.7242967
  59.9549763  78.0161841  74.3630807  57.9583841  78.5413667  73.7635804
  56.9825118  78.3614069  74.2145648  58.0522100  80.0348522  73.3669156
  57.3828893  80.2049258  72.5235983  57.7241737  80.6332176  74.2168868
  59.5397305  80.4578744  72.9601075  60.0081721  79.6891206  72.3455501
  59.3750663  81.3522879  72.3592645  60.4673945  80.8017097  74.0870104
  60.1308448  81.2289579  75.1778959  61.7371577  80.4984144  73.8617941
  62.4329000  80.6950300  74.5670503  62.0036241  80.0719642  72.9858732
  57.8955026  77.5782572  72.5750608  58.9122843  77.4054061  71.8887733
  56.6876866  77.1021091  72.3731710  55.9253926  77.3872682  72.9712442
  56.3975531  76.1303808  71.2626465  56.9842292  76.3931734  70.3823906
  56.6549959  75.1205131  71.5820047  54.8707172  76.1760118  70.8920174
  54.0821710  76.7943169  71.6232080  54.4845462  75.3787146  69.8789946
  55.2032346  75.1063743  69.2236954  53.0924983  75.0207600  69.5746064
  52.5916935  74.7505677  70.5042783  52.3449436  76.1186318  68.9393737
  51.3219291  75.7921305  68.7524579  52.3347540  76.9779095  69.6099243
  53.0065611  76.5141829  67.6108811  54.0724606  76.6719542  67.7754024
  52.8660644  75.7103201  66.8882697  52.4004639  77.7552003  67.0898638
  51.3370131  77.5670539  66.9423091  52.5304441  78.5293509  67.8461014
  53.0055739  78.2586133  65.7548348  53.9523555  78.6034685  65.8239647
  52.3757527  78.3624127  64.5874472  51.1646654  77.9629982  64.4079683
  50.6534701  77.5499915  65.1749135  50.7317873  78.0646490  63.5011148
  53.0158170  78.7865403  63.5573233  53.9905471  79.0377507  63.6403571
  52.5412050  78.8667261  62.6693974  53.0116506  73.7043970  68.7724897
  53.9100036  73.4728210  67.9552288  52.0384878  72.8499666  69.1245975
  51.6848365  72.9228973  70.0678425  51.4785429  71.8095974  68.2483980
  52.3634191  71.3883208  67.7713033  50.6798638  70.6430146  69.0246016
  49.7488029  71.0445839  69.4245618  50.3735974  69.5248302  68.0723628
  51.3042560  69.1224170  67.6723142  49.8338756  68.7369903  68.5978239
  49.7598360  69.9015408  67.2541420  51.5319494  69.9272952  70.1642317
  52.1297832  69.1257929  69.7303080  52.1900143  70.6519472  70.6437415
  50.5569830  69.3325310  71.2222440  49.8988613  68.6073999  70.7435368
  51.1294065  68.8396268  72.0080405  49.9590904  70.1335545  71.6569688
  50.4863093  72.4169499  67.1993005  49.6760775  73.1515759  67.6861611
  50.6551107  72.1891831  65.9074556  51.5671494  71.8571766  65.6280697
  49.6393289  72.4649258  64.8368771  48.6444029  72.8048328  65.1244264
  50.2474904  73.4952128  63.8260664  50.9197344  72.9618628  63.1539615
  49.1219318  74.2185610  62.9811147  48.4495207  74.7525458  63.6525493
  49.5826627  74.9255883  62.2912306  48.5572015  73.4765114  62.4167179
  51.2582871  74.5144960  64.2809476  52.1333321  74.0044896  64.6838022
  51.5566895  75.1336585  63.4349609  50.8175434  75.1441940  65.0538165
  49.1740328  71.1410369  64.1273874  49.9755800  70.2216138  64.0499589
  48.0304755  71.1915589  63.4673683  47.7007860  72.1129174  63.2173629
  47.2516176  70.0479137  63.0485627  47.8916110  69.1691829  62.9689404
  46.0925141  69.7286423  64.0217090  45.4527730  70.6028000  64.1428658
  45.2894054  68.5963769  63.4405477  45.9284055  67.7216585  63.3195210
  44.4649651  68.3534654  64.1109152  44.8923302  68.8927448  62.4696723
  46.4104125  69.3244206  65.4965857  46.9542364  70.1323240  65.9861261
  45.4792082  69.1376473  66.0314445  47.0199554  68.4208063  65.5028819
  46.6472312  70.4294062  61.6934902  46.0813334  71.5250634  61.5577992
  46.9165252  69.6267634  60.5952141  47.4676385  68.8087265  60.8124445
  46.5472573  69.8562138  59.2227784  45.8040612  70.6517217  59.1686869
  47.8246217  70.2907258  58.3633730  48.3665963  69.3805278  58.1066583
  47.3997227  70.7271535  57.4594418  48.8482075  71.2721945  58.8763276
  48.8811946  72.5659402  58.4543504  48.2276460  72.9132505  57.6541318
  49.7831133  73.4655018  59.0724778  49.8194866  74.5084253  58.7576948
  50.6221519  73.0158827  60.0816572  51.2441325  73.7419814  60.6051271
  50.6796969  71.6864687  60.4262218  51.4237010  71.3058474  61.1259972
  49.7527605  70.8179182  59.8543914  49.7221360  69.7730729  60.1633580
  45.8948427  68.6676324  58.5296758  45.9620073  67.5389488  59.0080453
  45.1885352  68.8511230  57.4053832  45.0912549  69.8116210  57.1086015
  44.4565308  67.7505348  56.5895098  44.9252677  66.7763962  56.7289334
  42.9993389  67.6781248  57.1115055  42.9787931  67.2183567  58.0995796
  42.5726010  68.6795055  57.1683511  42.1622164  66.8112013  56.1163977
  42.0344200  67.3872896  55.1999419  42.6715046  65.8748748  55.8883179
  40.8215280  66.4989410  56.6711318  40.4340963  66.7910781  57.7821915
  39.9565709  65.8083788  55.9317522  39.0419001  65.5912245  56.3009712
  40.2188848  65.5047086  55.0048880  44.6299565  68.1823379  55.0961975
  44.8675680  69.3773705  54.8175436  44.5762624  67.2535956  54.1687975
  44.4207173  66.3032656  54.4733923  44.8780057  67.4844935  52.7802979
  45.0409410  68.5377646  52.5518873  46.1962046  66.7210329  52.5495310
  47.0090106  66.8540627  53.2634979  45.8620030  65.6837212  52.5693732
  46.6752718  67.0602206  51.1860016  47.4490590  68.1931032  50.8668753
  47.7670583  68.8902775  51.6420681  47.8136545  68.4203726  49.5169299
  48.2625971  69.3577935  49.1886093  47.3482647  67.4694734  48.5479164
  47.7127296  67.6855010  47.2121696  48.2505895  68.4716287  47.0925473
  46.7563789  66.2519034  48.9064624  46.5079152  65.4811280  48.1768930
  46.4860528  66.0456850  50.2560534  46.1202578  65.0770894  50.5968124
  43.7414019  67.1539674  51.8185041  43.0254556  66.1327643  51.9813514
  43.4890448  68.0151412  50.8651954  44.0932676  68.8217374  50.7987364
  42.3520292  67.9058575  49.9134824  42.3404132  66.9303433  49.4273381
  41.0025650  68.0782192  50.7405610  40.8658709  67.1502410  51.2957819
  41.1767574  68.8966517  51.4390775  39.8745015  68.3396748  50.0014726
  39.1200075  68.4257986  50.5887726  42.5226556  69.0175074  48.7886841
  43.2562995  69.9645965  48.8632624  41.7663291  68.8126131  47.7089927
  41.2935257  67.9210435  47.6682504  41.7690554  69.6578913  46.5016194
  41.6369284  69.0339017  45.6177197  40.6536339  70.6642708  46.5502114
  40.9068538  71.4399907  47.2728715  40.6532129  71.0895609  45.5466039
  39.2642215  70.1053780  46.8678118  38.3681861  70.9520055  47.0699911
  39.0898664  68.8197901  46.8357499  43.1284880  70.2598134  46.0927299
  43.1986959  71.5015310  45.9035889  44.2222840  69.5005403  46.1350706
  44.0946985  68.5617047  46.4849406  45.6396306  69.9337020  45.7005713
  46.2746977  69.0484673  45.6666815  45.5752294  70.3723586  44.7048141
  46.2546309  70.9461778  46.6468911  47.1863618  71.6651530  46.2630771
  45.7057146  71.0367974  47.8870802  44.9778033  70.3631925  48.0781325
  46.0258048  72.0303618  48.9233297  46.9662807  72.5174093  48.6656688
  44.9159599  73.1267229  49.0619508  43.9688616  72.6314363  49.2759489
  45.1801462  73.7794810  49.8939439  44.7803214  73.9506359  47.7972301
  44.9420794  73.2774344  46.9553661  43.7587284  74.3295515  47.7676879
  45.7760683  75.1396857  47.7077320  45.4951654  75.9252357  48.4092331
  46.7901034  74.8044046  47.9254906  45.7167306  75.6746716  46.3093279
  46.5704186  76.3406970  46.1839187  45.8182579  74.8238955  45.6355538
  44.4688141  76.4074445  45.9941419  44.3747644  77.1960833  46.6180835
  44.5030492  76.7355792  45.0395448  43.6776784  75.7903468  46.1098737
  46.2481419  71.3439904  50.3077485  45.4881320  70.3907943  50.6927837
  47.1824203  71.8735229  51.1262040  47.9884670  72.2784966  50.6719086
  47.1856889  71.7745970  52.5865029  46.6454933  70.8766889  52.8865847
  48.5932435  71.6992624  53.1380288  49.1186324  71.2030514  52.3220384
  49.0664447  72.6594620  53.3434488  48.6578138  70.7642396  54.4745613
  47.9284559  71.2144348  55.1479574  48.3937332  69.2644112  54.3681128
  49.1230357  68.8134116  53.6951967  48.4799729  68.8088633  55.3545911
  47.3893692  69.0985612  53.9784371  49.9532474  71.0324573  55.1715613
  50.0060699  72.0852809  55.4488189  50.0177301  70.4172470  56.0690353
  50.7815978  70.7906413  54.5056336  46.3585882  72.8854562  53.2620696
  46.5967488  74.0539099  52.9558973  45.5637618  72.6515333  54.3223408
  45.5942305  71.7118170  54.6912638  44.6869789  73.6351857  54.9856150
  45.0855909  74.6322599  54.7983966  43.2383213  73.5864375  54.4909750
  42.9301973  72.5417627  54.5335578  42.6481684  74.1679288  55.1992740
  43.0078515  74.1432048  53.0333057  43.4250983  75.1477686  52.9636104
  43.5431241  73.4800603  52.3537288  41.5659679  74.1928245  52.6185835
  40.6995442  73.6903621  53.3276777  41.2006189  74.7843661  51.5306186
  40.2240857  74.8039682  51.2735190  41.8930865  75.2246988  50.9418088
  44.7601696  73.2167132  56.4732981  44.3558837  72.0667387  56.7413009
  45.2697032  74.0360898  57.3540781  45.8076875  74.7917401  56.9544972
  45.1789845  73.9408382  58.8431846  45.7022767  73.0605046  59.2163834
  45.7346184  75.2010410  59.5792856  45.2663627  76.0346665  59.0559260
  45.5358930  75.3683445  61.0806126  46.0043147  74.5352745  61.6047072
  45.9912314  76.3037328  61.4059044  44.4697623  75.3858822  61.3067951
  47.0564278  75.1921552  59.2807190  47.4838546  75.9435019  59.6983130
  43.7809723  73.7135735  59.4441220  42.8201982  74.2453853  58.9351375
  43.8020162  73.0331778  60.5999904  44.7073213  72.7916189  60.9770465
  42.5868660  72.5969834  61.3451043  41.7067539  73.0127819  60.8545807
  42.4074548  71.0272868  61.4613249  43.3131956  70.6663005  61.9485843
  41.1634237  70.5087616  62.2325449  40.2572227  70.8689823  61.7455729
  41.1651696  69.4187658  62.2351104  41.1933910  70.8740433  63.2590792
  42.3565737  70.5901527  59.9614056  43.2847083  70.8770951  59.4671057
  42.2328982  69.5088476  59.9015457  41.5165844  71.0792669  59.4681651
  42.6313359  73.1591248  62.7551902  41.5675066  73.6049401  63.1933204
  43.7278492  73.0183096  63.4192088  44.4641527  72.4755014  62.9910549
  43.9096362  73.4669443  64.8105537  43.5386616  74.4901415  64.8700888
  43.0110634  72.5561666  65.7110430  43.3756631  71.5298157  65.6689617
  43.0481039  72.9124320  66.7405104  41.9825118  72.5908243  65.3519056
  45.3565418  73.5344684  65.2434167  46.2824657  73.0276118  64.6014483
  45.6562693  74.2911172  66.2912135  44.8594686  74.8527248  66.5554196
  46.9168473  74.5778282  66.8964688  47.5413222  73.6937928  66.7675825
  47.6592493  75.7802735  66.3452025  48.6966972  75.7383364  66.6769289
  47.6249907  75.7486797  65.2561992  47.0139274  77.0894256  66.8415224
  46.0710470  76.9370186  66.3163085  46.8138759  77.3046920  67.8911599
  47.7846521  78.3013377  66.1950446  49.0064970  78.3324307  66.4155674
  47.2100325  79.3167905  65.7925126  46.7385791  74.5243176  68.4574000
  45.5949603  74.6340333  68.9012473  47.8127974  74.3756532  69.2230371
  48.6651904  74.0764463  68.7713727  47.8059929  74.4948763  70.6627070
  47.0501441  75.1989059  71.0107503  47.4599623  73.0966508  71.2007909
  46.4643625  72.8374858  70.8406329  48.1871163  72.3934741  70.7947249
  47.4830040  73.0278326  72.7310295  48.5137765  72.9291164  73.0714175
  47.0521938  73.9422042  73.1389868  46.6923219  71.8559948  73.1976246
  45.6667453  71.9546091  72.8418624  47.1317380  70.9455238  72.7901254
  46.6970137  71.7832531  74.7492381  46.2646436  70.8392534  75.0809326
  47.7168645  71.8670052  75.1247235  45.8765157  72.9201817  75.2759129
  44.9313524  72.8425231  74.9284434  45.8676853  72.8896479  76.2854126
  46.2772362  73.7950203  74.9690259  49.1147630  75.0783479  71.1246005
  50.1712058  74.4220122  71.0362482  49.0327751  76.2990977  71.6807686
  48.1579881  76.8038250  71.6906367  50.1714854  76.9068697  72.2896456
  50.9752289  77.0573461  71.5689151  49.7211725  78.2906858  72.8258873
  49.1142088  78.7011888  72.0189290  49.0811124  78.0489102  73.6743963
  50.7117324  79.2695054  73.2313603  51.2773815  78.7578742  74.0100615
  51.3778201  79.5242203  72.4070141  50.1093178  80.5242405  73.7934506
  49.0314999  80.4916440  74.3929980  50.6406121  81.6459877  73.5897678
  50.7138132  76.0855859  73.4632786  49.9007937  75.7642247  74.3042794
  52.0344882  75.8858360  73.6335004  52.6665818  76.1449237  72.8895712
  52.5965513  75.3191188  74.8504046  51.9080024  75.3193374  75.6953895
  52.9957640  73.8604905  74.5396976  53.7528500  73.5318328  75.2516697
  51.7291612  72.9311100  74.6542545  50.9717613  73.2588867  73.9422090
  52.0121899  71.9016473  74.4347053  51.3258069  72.9887602  75.6652359
  53.6270824  73.6826575  73.2009301  54.5333468  74.2855140  73.1430443
  53.8798974  72.6325464  73.0544686  52.9302487  73.9997078  72.4250417
  53.8456566  76.0232609  75.3960223  54.6120149  76.6816853  74.6786345
  54.1524653  75.8812983  76.6915053  53.4392185  75.4196129  77.2376051
  55.3052535  76.4105886  77.3793723  55.6764690  77.3131024  76.8938138
  54.8878658  76.7485165  78.7330507  53.9281185  77.2624812  78.6799033
  54.7736428  75.8243646  79.2996162  55.9346725  77.6705754  79.4445556
  56.8883943  77.1537878  79.5515427  56.0817043  78.5897614  78.8774746
  55.3803325  78.0095334  80.8300463  54.2999430  78.1532234  80.8155368
  55.6356141  77.2515152  81.5705456  56.0688434  79.3357924  81.1959686
  57.1404064  79.2300299  81.0266535  55.6754789  80.1217044  80.5512161
  55.8268851  79.6912049  82.6080660  56.1916957  78.9632920  83.2056912
  56.2893792  80.5638199  82.8195899  54.8340339  79.7896734  82.7650675
  56.5304399  75.4852093  77.3381707  57.1788517  75.1481251  78.3634225
  56.9457106  75.0949094  76.1564070  56.3463445  75.3861126  75.3974207
  58.1618035  74.2980397  75.8303553  59.0239867  74.8730177  76.1682008
  58.1001792  73.3693308  76.3976309  58.3345196  73.9671779  74.3573334
  57.3496974  73.7655914  73.7077766  59.5275889  73.7497058  73.8098897
  60.2693926  74.1812646  74.3424154  59.8601741  73.1474320  72.5209478
  59.3560345  73.7577326  71.7716310  61.3519934  73.3195279  72.3594914
  61.8708249  72.7073448  73.0971538  61.6477668  73.0087855  71.3574647
  61.6155345  74.3668273  72.5071713  59.3319932  71.6891341  72.2866272
  59.5805214  70.7699199  73.1164748  58.5562460  71.4222258  71.1921674
  58.3293308  72.1623543  70.5434620  57.9122094  70.1104493  71.0079958
  57.7641690  69.6168109  71.9684667  56.5214806  70.3092961  70.3301702
  56.6991341  70.5501537  69.2820642  55.5851701  69.0332562  70.4275441
  55.4066770  68.7920444  71.4754268  54.6347032  69.2410219  69.9360703
  56.0696008  68.1883083  69.9381653  55.6932465  71.4789194  70.9413979
  56.2456230  72.4121511  70.8315759  54.7384841  71.5591158  70.4216894
  55.5153920  71.2849050  71.9991442  58.7859847  69.1079112  70.2767784
  58.7734567  68.9628424  69.0640958  59.7262530  68.5098831  71.0396545
  59.7044558  68.6339752  72.0417649  60.7624829  67.6396464  70.4680674
  61.3562834  68.1718206  69.7249047  61.6870076  67.1987365  71.6100107
  60.9407987  66.6648850  72.1984613  62.4892875  66.5142844  71.3343800
  62.2898001  68.4071471  72.4796394  63.2773425  69.3322592  71.9906509
  63.4923613  69.4312267  70.9266623  63.9795410  70.1282047  72.9339546
  64.6563919  70.9127040  72.5955235  63.5819629  70.0758604  74.2813776
  64.4209660  70.6050767  75.1839255  65.2172461  70.9674002  74.7886290
  62.5134873  69.2835348  74.7386873  62.0985987  69.3741601  75.7425573
  61.9739397  68.3342648  73.8302871  61.3116952  67.5481392  74.1929699
  60.1866665  66.3414335  69.8285992  60.8626445  65.9234137  68.8618153
  59.1213673  65.6510666  70.3558186  58.5968684  66.0785344  71.1056662
  58.7796678  64.2662422  69.9612253  59.0077571  64.1091782  68.9069932
  59.6161831  63.2506363  70.8110164  60.6658802  63.5440629  70.7993493
  59.2514999  63.2483304  71.8381974  59.4794307  61.9178821  70.2454308
  59.9920413  61.2951840  70.7660817  57.3071930  64.0682094  70.0679544
  56.6972115  64.6063146  70.9991441  56.7560582  63.2373807  69.1736396
  57.3722430  62.7072364  68.5741709  55.2588965  63.0742895  68.9907351
  54.7739932  63.0802425  69.9669177  54.6763355  64.1947119  68.1540091
  55.1746095  64.0945977  67.1897480  53.6243955  63.9295675  68.0480814
  54.7906876  65.6375661  68.6379538  54.6199915  65.5477652  69.7107536
  55.8394764  65.8720294  68.4558250  53.7446678  66.9921022  67.9714798
  53.9570530  66.4866049  66.2623757  53.5801079  65.4720100  66.1335013
  53.4048745  67.1642440  65.6112190  55.0153392  66.5161482  66.0030327
  54.8629578  61.7564752  68.3268376  55.6450160  61.2653030  67.5721497
  53.6608478  61.1872530  68.5526225  52.9842498  61.7024675  69.0974789
  53.3603680  59.8733988  68.1968514  53.2673951  59.6960035  67.1254103
  54.3415492  58.7603985  68.8190154  55.3280381  58.8710442  68.3687971
  54.4530286  58.9180807  70.3324811  53.4669336  58.8070931  70.7834793
  55.1216655  58.1543277  70.7296040  54.8502415  59.9056341  70.5671341
  54.0998809  57.2813103  68.4202921  54.1966986  57.1752658  67.3397908
  54.8352611  56.6464304  68.9145018  53.0975823  56.9811815  68.7259406
  51.8974845  59.6575521  68.5325449  51.4435450  60.2126285  69.5180474
  51.1266779  58.8795978  67.7672363  51.5068160  58.7784001  66.8369926
  49.7880893  58.2867114  68.0524735  49.1964317  58.9778126  68.6528231
  49.0157260  58.0013411  66.7022781  48.8957873  58.9583302  66.1944534
  49.6509087  57.3494555  66.1025381  47.6174635  57.3342696  66.8913248
  47.6402849  57.4261438  67.9772066  46.7204650  57.8182868  66.5050345
  47.6044480  55.8826473  66.5127890  47.3821210  54.9982447  67.4034767
  48.1321040  55.5575436  65.4042441  49.9464209  57.0495556  68.9675366
  50.5194852  56.0668752  68.5216952  49.4046147  57.1248903  70.1668133
  48.8734188  57.9745173  70.2935586  49.4597368  56.1665193  71.2771477
  50.1591272  55.3543821  71.0786901  49.9591658  56.9590592  72.5063394
  50.9744684  57.2269565  72.2139511  49.4091844  57.8608603  72.7753657
  50.0788346  56.1114267  73.7970669  50.9276019  54.9894734  73.7307198
  51.4199049  54.7960590  72.7776572  51.1507969  54.1445815  74.8128597
  51.8170981  53.2846380  74.7447380  50.5044393  54.4190527  75.9896709
  50.7219744  53.8561726  76.8973847  49.5248822  55.4700543  76.0134284
  48.9524949  55.6405154  76.9252485  49.3075372  56.2460918  74.9200698
  48.5098403  56.9888594  74.9287875  48.0597776  55.5876827  71.5635069
  47.1991267  56.2985437  72.0919383  47.7488923  54.4694122  70.9265389
  48.4969200  54.0595014  70.3856811  46.3980451  53.8953303  70.7977795
  46.2965125  53.3025250  69.8887294  46.1951279  52.9640689  72.0222839
  45.7984356  53.5190329  72.8724306  45.4463367  52.2540238  71.6712175
  47.4614752  52.1661265  72.4914122  47.9359100  51.2340257  71.9158214
  48.1342845  52.6032187  73.5623310  48.9522427  52.1029668  73.8798086
  47.8210804  53.4313865  74.0482756  45.2052675  54.8600470  70.5575789
  44.2855754  54.9707881  71.3767271  45.2345658  55.5832050  69.4353267
  45.9239152  55.2997966  68.7537282  44.3749364  56.7209443  69.1189652
  44.5784544  56.8904587  68.0616363  43.3735605  56.3060011  69.2337169
  44.4476769  58.0488101  69.8558825  43.5742071  58.9119267  69.6331149
  45.4274420  58.2796908  70.6632471  46.0053571  57.4903182  70.9142539
  45.7293430  59.5870889  71.2702815  45.0106297  60.3228033  70.9093456
  45.6529255  59.5373406  72.7962515  46.2593736  58.7004570  73.1425834
  46.0605319  60.4683154  73.1902604  44.2025119  59.3608360  73.2919535
  43.5869073  60.1243658  72.8163970  43.8575555  58.3735092  72.9848819
  44.0870311  59.4936165  74.8572843  44.4296958  58.5530721  75.2886265
  44.7549287  60.2983424  75.1645765  42.6559576  59.7955048  75.3526043
  42.6463985  59.6790908  76.4363279  42.4254639  60.8296752  75.0967458
  41.6129435  58.8760453  74.7348909  41.8260984  57.9177437  74.9722155
  40.6990408  59.1159800  75.0917006  41.6213428  58.9840773  73.7307208
  47.1100687  60.1052090  70.8731316  48.0780980  59.3918871  70.8798459
  47.2181757  61.3958001  70.4711807  46.4016745  61.9391614  70.2299677
  48.5226198  62.0097892  70.3169963  49.1181475  61.3818851  69.6542879
  48.4693440  63.4774211  69.7131391  48.0254090  63.2542545  68.7429753
  47.7574652  64.0400680  70.3170903  49.7373736  64.3086837  69.5140077
  50.3643216  64.2008736  70.3991145  50.5296599  63.8451202  68.2582668
  49.9034771  63.9530804  67.3726379  51.4248006  64.4569440  68.1464832
  50.8166875  62.8000299  68.3744644  49.4745608  65.8032545  69.4494598
  49.0108662  66.1316560  70.3796422  50.4167310  66.3325492  69.3071089
  48.8072124  66.0196428  68.6152410  49.2160225  62.0302714  71.6678846
  48.7090615  62.5910242  72.6144319  50.4247526  61.5111346  71.7268889
  50.6055401  60.7815519  71.0522599  51.4191498  61.7708642  72.7335840
  50.9977011  62.2827825  73.5986966  51.9494082  60.3813357  73.1880138
  51.1254492  59.7361480  73.4928478  52.3655654  60.0187346  72.2481023
  53.0402124  60.3651094  74.2710765  53.4766662  61.3577404  74.3819478
  52.4066272  59.9559868  75.5541488  51.9703254  58.9631886  75.4441883
  53.1598364  59.9360776  76.3417911  51.6250391  60.6686384  75.8174887
  53.9662223  59.2348358  73.8788225  54.3834626  59.4323274  72.8913980
  54.7748636  59.1580677  74.6056700  53.4084512  58.2986269  73.8563899
  52.4604443  62.8335978  72.1155798  52.8560417  62.7488157  70.9419885
  52.8948611  63.7898991  72.9912526  52.3255684  63.8187831  73.8250217
  53.9954708  64.7600541  72.8633637  54.5897720  64.4308237  72.0110065
  53.4521850  66.1672942  72.5690482  52.8623590  66.5143929  73.4174159
  54.2844537  66.8510019  72.4017976  52.8238881  66.1359409  71.6789025
  54.9124373  64.8584302  74.0928940  54.4685604  64.8452846  75.2361163
  56.2384955  64.9984385  73.9831062  56.6044041  64.4246858  73.2367698
  57.1884366  65.6658976  74.8749914  56.7592164  65.8189406  75.8651666
  58.3776303  64.7859981  75.0041280  58.9428725  65.1593816  75.8580514
  57.9975359  63.7893391  75.2284030  59.2380429  64.7231489  73.8490790
  59.9733103  64.1328775  74.0295267  57.5056046  67.1080949  74.5845755
  57.5896432  67.5773043  73.4974167  57.7433555  67.9040224  75.6926224
  58.0220430  67.3217497  76.4694049  57.7088508  69.3458584  75.8885903
  58.0599928  69.9209830  75.0318346  56.2587661  69.8120056  76.2729211
  55.9641044  69.2811978  77.1781934  56.1734585  71.3122850  76.5144130
  56.4675487  71.8438016  75.6093706  55.1501734  71.5809995  76.7766742
  56.8414723  71.5880402  77.3303883  55.2340174  69.3569861  75.2654235
  55.5843634  69.7347257  74.3048657  55.2879111  68.2683244  75.2686698
  53.7893765  69.7950262  75.4875373  53.7346104  70.8836435  75.4839535
  53.1619010  69.3975551  74.6897964  53.4381588  69.4172437  76.4477593
  58.6494160  69.7167302  77.0982915  58.2859540  69.8436057  78.2422609
  59.8741387  70.0213456  76.7213846  60.2003481  69.8356263  75.7837305
  60.8726899  70.4287498  77.7486934  61.8340671  70.5221109  77.2435827
  60.5621813  71.7960743  78.5109323  59.5398746  71.7136338  78.8799741
  61.2502965  71.8392665  79.3551669  60.6917645  73.1155450  77.6956659
  60.6322058  73.0849885  76.5282829  60.8634063  74.2169839  78.3192942
  60.9487965  75.0794289  77.8006450  60.9129142  74.2201984  79.3280754
  61.1926766  69.2807833  78.7107871  61.8929367  68.3497139  78.3076835
  60.6977259  69.4171885  79.9541995  60.3121272  70.2873362  80.2922173
  60.8013622  68.2644091  80.9119010  61.6047648  67.5972449  80.5995948
  61.1006569  68.7605249  82.3143121  61.9660987  69.4174353  82.2272585
  60.2327370  69.3429270  82.6235414  61.3729652  67.7256082  83.3108223
  61.5493696  68.1374445  84.1598643  59.5124152  67.3794731  80.9001589
  59.5599658  66.2499716  81.4371425  58.3756209  67.9500205  80.4083923
  58.4754354  68.9142121  80.1247184  57.0614962  67.3580002  80.3676083
  56.8019938  66.7421475  81.2287025  55.9924105  68.5132505  80.2326371
  56.2545550  69.1766728  79.4084700  54.6789418  67.8868815  79.9626726
  54.4158893  67.2236259  80.7866842  53.9193156  68.6623952  79.8644607
  54.7328976  67.3126545  79.0377658  56.0965442  69.2843747  81.4220797
  55.4637805  70.0057053  81.3922047  56.9540991  66.2821359  79.2550541
  57.2474103  66.5194013  78.0813971  56.2461003  65.2154252  79.5623828
  56.0441818  65.0655112  80.5405720  55.7504956  64.1800224  78.5532297
  55.9073865  64.5172418  77.5286481  56.5203924  62.8235307  78.7595165
  56.5790569  62.5820328  79.8208065  55.7484288  61.7227943  78.0280956
  55.6897446  61.9633774  76.9665982  56.2631970  60.7706099  78.1563884
  54.7417891  61.6493677  78.4396618  57.9314849  62.8684040  78.2560023
  58.4824383  63.6452661  78.7861322  58.4095551  61.9038225  78.4266800
  57.9300635  63.0888054  77.1885183  54.1753999  64.0933731  78.8651019
  53.7628096  63.7636316  79.9764159  53.3554801  64.5333817  77.8615890
  53.8090642  64.8112235  77.0030061  51.8494338  64.6945472  77.9647749
  51.4514403  64.1890221  78.8446298  51.5661783  66.2237959  78.0973705
  52.2870888  66.5536356  78.8454300  51.8473967  66.6216006  77.1222973
  50.1524795  66.7402387  78.4784736  49.4498066  66.4502886  77.6972690
  49.8541263  66.2840368  79.4223842  50.1511326  68.2623497  78.6254775
  50.8410429  68.6990456  77.9033836  49.1466775  68.6452365  78.4450143
  50.5814325  68.6694723  80.0120179  50.7299340  67.8827963  80.6277999
  50.7249737  69.8737546  80.4943996  50.3615850  70.9772568  79.8496924
  49.9475465  70.9085644  78.9310230  50.5010677  71.8796975  80.2812535
  51.2926175  70.0892443  81.6334253  51.6397990  69.3115501  82.1763404
  51.3869231  71.0345360  81.9763958  51.1712094  64.0727020  76.7676695
  51.7156573  63.7545204  75.7146235  49.9345683  63.7076418  77.0374487
  49.6383154  64.1208260  77.9101527  49.0065336  62.8077501  76.3434605
  49.4665218  62.5006426  75.4042082  48.6502508  61.5418138  77.1562069
  49.6336053  61.0889342  77.2827505  48.3036104  61.9299814  78.1139471
  47.6541969  60.4756401  76.6412346  46.6825097  60.9135585  76.4128657
  48.2815229  59.9214895  75.3525386  49.2531001  59.4829625  75.5802018
  47.6289485  59.1578175  74.9293927  48.4081322  60.7300572  74.6326158
  47.4176765  59.3882228  77.6908014  47.0084351  59.8383499  78.5952386
  46.7136488  58.6531216  77.3008367  48.3621724  58.8972516  77.9252663
  47.7350194  63.6200283  76.0004345  47.4249013  64.5239116  76.8243755
  47.0813440  63.4276432  74.8253845  47.4289353  62.7306730  74.1823353
  45.8897583  64.2333339  74.4206897  45.4564548  64.7731648  75.2626694
  46.3941366  65.2423884  73.4054948  46.7759376  64.6453471  72.5773227
  45.5542983  65.8457234  73.0608812  47.5259534  66.1804588  73.9362155
  47.1720965  67.3698970  74.6698995  46.1157021  67.5274495  74.8874022
  48.1309450  68.3126356  75.1037019  47.8317092  69.1741361  75.7006748
  49.4875165  68.0995498  74.8090048  50.3683741  69.0707186  75.2465697
  49.9334998  69.7901624  75.7101262  49.8386161  66.9549590  74.0447412
  50.8722182  66.8429114  73.7173081  48.8808822  65.9735626  73.7076773
  49.1994375  65.0324889  73.2593439  44.7728643  63.3687376  73.8405234
  45.0141601  62.7807553  72.7830636  43.5450774  63.4193388  74.4003286
  43.3401457  63.4444517  75.3890003  42.4242790  63.3141122  73.4604285
  42.4893996  62.3907138  72.8849340  41.0790409  63.3029535  74.2792973
  41.2047638  62.6310151  75.1282918  40.8943693  64.3143581  74.6413153
  39.8912822  62.8394507  73.4341627  39.8297684  63.3977463  72.5000199
  40.1436196  61.8008756  73.2201841  38.4934846  62.9005174  74.1787349
  37.5216977  62.4455330  73.5222075  38.4189112  63.2678099  75.3435851
  42.3516860  64.3647756  72.3582118  42.4336843  65.5614248  72.6394587
  42.1983720  63.9230818  71.0719293  42.4021737  62.9670563  70.8178046
  41.7544711  64.8457434  70.0160915  42.0711413  65.8534917  70.2849082
  42.3264454  64.5041074  68.6277975  43.3749757  64.8006618  68.6006141
  42.2524129  63.4222219  68.5176018  41.6833336  65.1004029  67.4228615
  40.8504922  64.5611148  66.5226784  40.5256802  63.5382190  66.7131544
  40.5840405  65.4478118  65.5287383  40.1010723  65.1684877  64.6868242
  41.0696494  66.7023295  65.7883824  40.9455575  67.9146462  65.1070898
  40.3489799  67.9459145  64.1953792  41.6122138  69.0351978  65.6547616
  41.5237967  70.0244527  65.2056992  42.4149431  68.8751072  66.8135401
  42.9080680  69.7296935  67.2767998  42.6035274  67.5749136  67.4151435
  43.4146261  67.4816174  68.1373037  41.8279816  66.4762583  66.9831117
  40.2372641  64.8393057  69.9123821  39.6327511  63.7765697  69.9889992
  39.5781323  65.9998171  69.6501236  40.1513247  66.7936997  69.4025345
  38.1227770  66.1888121  69.7291859  37.6461358  65.2087171  69.7472448
  37.8098762  66.9314343  71.1002732  36.7236892  66.8770907  71.1733813
  38.4634956  66.4405743  72.4803432  39.5497357  66.4950810  72.4081554
  38.1212948  67.0811651  73.2931416  38.1642623  65.4114323  72.6789049
  38.3057767  68.2591244  70.9833992  38.1329135  68.7380641  71.7972391
  37.5031916  67.0030538  68.5632114  38.1729156  67.6348817  67.7399253
  36.1423367  67.0672744  68.5911168  35.6730900  66.6434712  69.3787067
  35.3164824  67.6237449  67.5007283  35.8876545  67.5454733  66.5756688
  34.0287167  66.8165727  67.3489991  33.2541166  67.3868294  66.8362591
  34.4237860  65.5868855  66.4849443  35.1980707  65.0158430  66.9972853
  33.5493088  64.9548710  66.3301981  34.8014894  65.9261739  65.5204112
  33.4918163  66.3185999  68.5785299  32.6879043  65.8251641  68.4000730
  34.9623975  69.1014475  67.5962269  34.4132297  69.7977771  66.7040555
  35.4387484  69.7389028  68.6271985  35.6338581  69.1651909  69.4352122
  35.6647328  71.1835282  68.7297339  34.7833577  71.7326987  68.3985408
  35.9410690  71.5385918  70.1756212  36.9972473  71.3045290  70.3090424
  35.8010738  72.6188504  70.2148989  35.1336571  70.8830812  71.2830028
  35.1086999  69.8130564  71.0767869  35.7237681  71.0658346  72.1810392
  33.7563759  71.3766876  71.4901483  33.1027216  70.9703331  72.4723825
  33.2879165  72.2137666  70.7143845  36.8276687  71.6999465  67.8424271
  36.9891326  72.9287840  67.7873213  37.6337547  70.8159588  67.2567086
  37.3738269  69.8432120  67.3360852  38.9480759  71.1429379  66.6743680
  39.4140745  70.2431717  66.2726652  38.7739149  72.1748627  65.5151091
  38.1982499  73.0254484  65.8800925  39.7576207  72.5146896  65.1911637
  38.0084446  71.5034828  64.2802353  38.5683024  70.6310367  63.9433407
  37.0135014  71.1945304  64.6007640  37.8816645  72.5346368  63.0965744
  37.1672734  73.2931209  63.4166466  38.8636700  72.9908806  62.9716491
  37.4111375  71.9155025  61.7233683  37.4332175  72.7011344  60.9681229
  38.1099372  71.1261766  61.4463436  35.9987081  71.3364042  61.8148803
  35.3509642  72.0677422  62.0711464  35.7342517  70.9509226  60.9195777
  35.9781319  70.6081085  62.5143524  39.9998523  71.5604632  67.7963850
  40.6375052  72.6003820  67.7049651  40.0806818  70.6658597  68.8102475
  39.5586154  69.8041618  68.7393769  40.9044435  70.8859771  70.0099462
  41.6909681  71.6069195  69.7869655  40.0579228  71.4275025  71.1571811
  39.3734271  72.1529525  70.7175366  39.4901575  70.5818502  71.5452722
  40.8333140  72.0852400  72.2962662  40.2140082  72.2633983  73.1753685
  41.6101360  71.3606749  72.5405040  41.4551400  73.3442706  71.8734892
  40.7230502  74.3463197  71.5844008  42.7370240  73.4030755  71.9169093
  41.5850964  69.5701461  70.5377733  40.9633771  68.5548382  70.6916466
  42.8800961  69.6311573  70.8092792  43.4372697  70.3530108  70.3750160
  43.5859908  68.5885925  71.6532858  43.1881965  67.5896263  71.4746090
  45.0789481  68.6105034  71.2315082  45.4364743  69.5849762  71.5641897
  45.5259297  67.8303312  71.8476567  45.4897605  68.3861290  69.7130046
  44.7197576  68.7779593  69.0484255  46.8059104  69.1408634  69.4723174
  47.5765692  68.7492464  70.1362601  47.1175490  69.0076090  68.4363515
  46.6588275  70.2020261  69.6733170  45.6738054  66.8278805  69.5437175
  44.7366458  66.3231829  69.7784762  45.9584104  66.6046979  68.5154711
  46.4536540  66.4779995  70.2201186  43.4103451  68.7421222  73.1313833
  44.1247538  69.5583979  73.7446664  42.5341803  68.0545472  73.8458096
  41.8853505  67.5318719  73.2749070  42.3835036  67.9897827  75.3224433
  42.3709124  68.9845259  75.7678941  41.0390237  67.3105242  75.6031901
  40.3349335  67.5660701  74.8113236  41.1804879  66.2300308  75.6281293
  40.4861299  67.7831312  76.9485827  41.1824475  67.5063992  77.7402026
  40.3712418  68.8668823  76.9289274  39.1028759  67.1194769  77.2187902
  38.7506083  67.4226443  78.2047395  38.3944910  67.4550928  76.4613919
  39.1795921  65.6191050  77.1751927  38.5381528  65.1833402  76.5280728
  39.9011561  64.8415558  77.9712603  40.4813152  65.2052313  79.0292592
  40.4155221  66.1662631  79.3328857  41.0092555  64.5338987  79.5684171
  40.1400321  63.6393701  77.5830788  39.7799474  63.3174246  76.6960668
  40.6866334  63.0226275  78.1669917  43.5575034  67.1963863  76.0346256
  43.7732855  66.0271167  75.6573622  44.2514814  67.7549785  76.9906503
  44.1269811  68.7520218  77.0931381  45.2160490  67.0700666  77.8880766
  46.0682301  66.6564284  77.3488271  45.7216555  68.2513968  78.7979112
  44.8616310  68.7304608  79.2658383  46.6453713  67.7411365  79.8576119
  47.5059280  67.2623156  79.3904156  46.9840699  68.5723189  80.4760924
  46.1203175  67.0163438  80.4797812  46.4021211  69.1386429  78.0660977
  46.7052225  69.8536323  78.6304734  44.6083703  65.9064501  78.7036004
  43.5754646  66.0090776  79.3890742  45.1858888  64.7413147  78.4750638
  46.0330619  64.7212567  77.9255232  44.6271629  63.4421214  78.9653636
  43.5648999  63.5901983  79.1597082  44.7890872  62.2624698  77.9852449
  44.2504930  62.5481835  77.0817056  45.8551793  62.1988109  77.7673112
  44.2791580  60.8834289  78.4760190  44.6166167  60.1537081  77.7399958
  44.7431719  60.6689435  79.4387164  42.6510431  60.7960160  78.6238259
  42.0362493  59.7348560  78.5960935  42.0994548  61.9029888  78.7396428
  45.3643770  63.1139771  80.3081170  44.7731782  62.5867335  81.2390178
  46.7426870  63.2793364  80.3743891  47.1592431  63.9182257  79.7122708
  47.6090940  62.6553980  81.3762363  47.2144512  62.7989959  82.3820871
  47.6584150  61.1483972  81.0785235  46.6696430  60.7370425  80.8755053
  48.3257978  60.9150282  80.2489217  48.2974696  60.2377901  82.5089742
  48.2169027  59.0320259  81.9535105  49.0488044  63.1923852  81.2347304
  49.5571302  63.4218586  80.1154789  49.7480156  63.2565297  82.3450052
  49.4147101  62.8706526  83.2168455  50.9651458  64.0570454  82.3644644
  51.4170304  64.0745384  81.3727016  50.6361952  65.5075783  82.7827990
  49.8557265  65.9732693  82.1810517  50.2804319  65.3838172  83.8056459
  51.8637079  66.4342049  82.7981089  52.0876093  67.0272396  81.7347764
  52.5512794  66.7039316  83.8899042  53.3498373  67.3203619  83.8407243
  52.2763667  66.2929226  84.7705832  52.1283833  63.4264800  83.2154714
  51.8701304  62.9846396  84.3310078  53.2509612  63.3739821  82.6502387
  53.2967250  63.5698577  81.6604722  54.5010753  63.0174338  83.3522052
  54.2795106  62.8178777  84.4006257  55.1398730  61.8021819  82.7590288
  54.5216208  60.9101116  82.8593976  55.2333246  62.0620938  81.7046035
  56.5420075  61.4201009  83.2420184  57.7537188  61.7662181  82.6283894
  58.6955115  61.0701881  83.2972054  59.7305112  61.1524224  82.9653740
  58.1514856  60.3765970  84.2906541  58.6347269  59.7899173  84.9557741
  56.8044299  60.5883803  84.2683216  56.1648595  60.1079989  85.0087841
  55.3924094  64.2700089  83.2044277  55.4235645  64.9117725  82.1459288
  56.3048840  64.4674736  84.1390965  56.3682201  63.7783301  84.8747385
  57.1038611  65.6983565  84.2647301  57.1693110  66.2318479  83.3164672
  56.3846828  66.5958917  85.2846899  55.4216246  66.8650727  84.8509159
  56.2242206  65.9933929  86.1787520  57.1353609  67.8449877  85.6509404
  57.5085910  68.7939935  84.6375632  57.2714297  68.6068917  83.5902586
  58.1755632  69.9551113  85.0011391  58.4986989  70.6375745  84.2150544
  58.6078396  70.1593767  86.3452640  59.2474976  71.2951472  86.6454172
  59.3519507  71.8778148  85.8896476  58.1941024  69.2809772  87.3720551
  58.4040258  69.4809931  88.4227817  57.4789263  68.0985882  86.9973919
  57.1888818  67.3732203  87.7575338  58.5809501  65.4579877  84.5533992
  59.4589871  66.2528629  84.2234105  58.9640208  64.3213621  85.1448762
  58.3523153  63.5194643  85.0912502  60.2557420  64.1652650  85.8157756
  60.6293922  65.1009115  86.2317688  59.9708099  63.1819531  86.9832423
  59.1213495  63.4610257  87.6066480  59.7437797  62.2566500  86.4537411
  61.1695608  62.9463399  87.8765528  61.7102358  63.9702988  88.3436297
  61.5106216  61.7609504  88.2514120  62.3158893  61.6353989  88.8479692
  60.9709374  60.9634364  87.9467594  61.3612943  63.5125424  84.8799523
  61.6718937  62.3114433  84.8816368  62.0796826  64.4232572  84.2101717
  61.8403189  65.3680314  84.4751358  63.0700091  64.2342932  83.2019812
  63.5288837  63.2473918  83.2616378  62.3044876  64.3596335  81.7978418
  61.7198373  65.2678961  81.6517519  63.0864521  64.3057423  81.0403939
  61.3720685  63.1407769  81.6317657  61.7205783  61.9483041  81.6542921
  60.1006008  63.4260439  81.5884432  59.4231918  62.6845958  81.4813382
  59.7990131  64.3871405  81.6621924  64.1531180  65.2692626  83.3551293
  63.9152411  66.2851656  83.9710756  65.3486307  65.0716002  82.8340979
  65.6147353  64.0995817  82.7672569  66.3565512  66.0863310  82.5442933
  66.2684660  66.8777007  83.2886550  67.8366735  65.5626346  82.5102036
  67.9735995  64.8267495  81.7178497  68.7045500  66.7641994  82.2350538
  68.5685062  67.5003816  83.0272839  69.7499739  66.4576390  82.2002638
  68.4235656  67.2045858  81.2783895  68.1562549  64.8822443  83.8553187
  67.7392644  65.4905293  84.6579450  67.6875028  63.8982317  83.8648219
  69.6720026  64.7295177  84.0630166  70.1414186  65.7132193  84.0540960
  69.8610290  64.2459839  85.0214336  70.0896575  64.1209232  83.2609710
  65.8318744  66.7676914  81.3182116  65.5788600  67.9566534  81.2573016
  65.6726161  66.0201842  80.2545764  65.9603196  65.0531700  80.3015830
  65.1897014  66.5343479  78.9839726  64.3299223  67.1840966  79.1473913
  66.2693829  67.3284172  78.3040412  66.6936984  67.9935274  79.0561609
  67.0283828  66.6165824  77.9795257  65.8015724  68.1428859  77.1169645
  65.1577669  67.4839806  76.5343334  65.2082444  68.9600598  77.5271973
  67.0865465  68.8230702  76.0404135  68.2213410  69.3959721  77.3004416
  68.5426066  68.5524575  77.9114821  69.0903712  69.8527842  76.8269334
  67.7230956  70.1320597  77.9313361  64.6570778  65.4002588  78.0645281
  65.4045855  64.6528189  77.4882053  63.3244976  65.2469614  77.9215989
  62.8401298  65.9457823  78.4667012  62.5751372  64.2254956  77.3411855
  63.0907765  63.3179782  77.6552354  61.1516340  64.1991024  77.9041510
  60.6196294  65.0972821  77.5905518  60.6288458  63.3186746  77.5304671
  61.1915233  64.1625341  78.9928066  62.6887243  64.2309532  75.7745738
  61.7038887  64.4395902  75.0301979  63.8653548  63.9409090  75.2091007
  64.6406791  63.6485321  75.7865843  64.1368223  64.3159606  73.8220525
  63.5706438  65.2071537  73.5512832  65.6175598  64.6153787  73.6650964
  65.9740765  65.0733494  74.5877328  66.0257686  63.6084143  73.5785610
  66.0701793  65.4479548  72.4796945  65.6331351  65.0464715  71.5654164
  65.6207739  66.8771645  72.6664972  66.0578171  67.2795066  73.5803971
  65.9458989  67.4750503  71.8150707  64.5336955  66.9102212  72.7390788
  67.6377972  65.5183032  72.4299432  68.0443044  64.5115791  72.3332069
  67.9481144  66.1186156  71.5747067  68.0108783  65.9736249  73.3473263
  63.5272267  63.4274945  72.7263393  62.9640161  63.8997881  71.7297618
  63.6264170  62.1016176  72.9702751  63.9986894  61.8017698  73.8599964
  63.1192222  61.1072186  72.0784180  62.7085251  61.5807447  71.1866780
  64.2334625  60.1666177  71.6584760  64.4556961  59.5741534  72.5459993
  63.8118368  59.5213964  70.8877483  65.4805419  60.7872935  71.1545180
  65.4388547  61.8890848  70.2406859  64.4927561  62.1142483  69.7484478
  66.5777234  62.6736429  69.9707087  66.4455629  63.6485921  69.5015503
  67.8278155  62.3373025  70.5833128  68.9023729  63.0833246  70.2630760
  68.7005561  63.7823241  69.6367619  67.9425760  61.0544829  71.2368699
  68.9116471  60.6380045  71.5117285  66.7686067  60.3417227  71.5167468
  66.8221301  59.3879661  72.0417074  62.1126197  60.1938280  72.8183653
  62.4983985  59.6206342  73.8475171  60.9068539  60.0042488  72.1900870
  60.7367008  60.6888460  71.4672635  59.8365902  59.0576370  72.5163489
  60.0883304  58.5190074  73.4299157  58.5040991  59.7964961  72.7324360
  58.2796260  60.1806446  71.7373777  57.7454061  59.0686381  73.0200255
  58.5085830  60.9990246  73.7768506  59.1944413  61.7908935  73.4757809
  57.0764820  61.5357728  73.7705843  56.3900443  60.7445461  74.0720181
  56.9974550  62.3698074  74.4678947  56.8198363  61.8760488  72.7673667
  58.9936791  60.6113434  75.2032570  60.0147928  60.2337057  75.1501909
  58.9646152  61.4892946  75.8485928  58.3419918  59.8390172  75.6118092
  59.7427158  57.9419888  71.4722882  59.8405598  58.1602757  70.2475783
  59.4427303  56.7368423  71.9008261  59.6367335  56.4898383  72.8607485
  58.8835441  55.6844866  70.9969725  58.4159679  56.1565586  70.1329009
  60.0044429  54.7271294  70.4950860  60.5085601  54.4107480  71.4082497
  59.4596211  53.8838634  70.0706196  61.0365985  55.2210426  69.4911430
  61.5376752  56.0947827  69.9077978  61.7668851  54.4292912  69.3240707
  60.3621109  55.6059354  68.1281170  60.0479578  54.7215406  67.5738132
  59.5058221  56.2636147  68.2775390  61.4606291  56.3597111  67.3226444
  61.0092816  56.7480156  66.4096243  61.8213848  57.1895419  67.9303740
  62.5996041  55.4703218  66.9726349  62.2656041  54.7015476  66.4091370
  63.2886042  55.9945661  66.4524936  63.0182417  55.1107420  67.8185332
  57.8202848  54.9604053  71.7486672  57.8036056  54.9500004  72.9550368
  56.8794877  54.2673604  71.0525440  56.8322052  54.4079617  70.0534970
  55.8141676  53.4859186  71.6976717  56.0807820  53.0562323  72.6632729
  54.5451367  54.3521397  71.8755920  53.9400591  53.7854920  72.5833289
  54.6636466  55.8524908  72.3660807  55.2682429  56.4199135  71.6585538
  53.6691735  56.2941970  72.4294696  55.1352470  55.8779658  73.3484476
  53.7507700  54.3504626  70.6517731  52.9678199  54.8914967  70.7777554
  55.5035417  52.0940830  71.0539876  55.8988056  51.8368548  69.8842931
  54.7850199  51.2567268  71.7933994  54.5322974  51.5474894  72.7270416
  54.4655644  49.9335292  71.3910384  54.1154024  49.9641301  70.3592684
  55.6242226  48.9901908  71.4750186  56.4867352  49.4118594  70.9589111
  55.8802076  48.8057176  72.5183505  55.2322740  47.6969340  70.8198963
  54.4235631  47.3047779  71.4365818  54.8383342  47.9851641  69.8453005
  56.3475509  46.5748758  70.6308356  57.2448003  47.0628867  70.2501941
  56.5552224  46.1480125  71.6120388  55.9264170  45.4625139  69.6703180
  55.5610750  45.9126115  68.7472590  56.7927217  44.8382391  69.4514657
  54.8704544  44.6405679  70.2631787  54.0674646  45.2187649  70.4656517
  54.6063176  43.9127024  69.6146853  55.2089258  44.2230627  71.1182959
  53.2560914  49.4806236  72.2049528  53.3815536  49.3733564  73.4212985
  52.0796256  49.2292276  71.5478612  51.9627881  49.1839548  70.5456643
  50.8926440  49.0084906  72.4031143  50.0584818  48.9147455  71.7077838
  51.0701422  48.0487155  72.8883210  50.5381729  50.0465564  73.4683930
  50.6356319  51.2571437  73.3120434  50.2579355  49.5382693  74.6707079
  49.8715654  48.6050969  74.6732912  50.1929129  50.3360152  75.9339029
  49.7773741  51.3315829  75.7781088  49.2569252  49.5559552  76.8390848
  49.7951573  48.6102399  76.9025500  49.3310293  50.0802351  77.7918383
  47.7380058  49.2757256  76.5095680  47.0452881  48.4634137  77.1890388
  47.1886795  49.8142304  75.5431450  51.5161155  50.9040297  76.5908932
  51.4900513  51.3634949  77.7423993  52.7025842  50.7375451  75.9450132
  52.6595382  50.0190195  75.2365167  54.0179339  51.1670385  76.4177422
  53.8714099  51.8478651  77.2562558  54.9229413  50.0070228  76.8774620
  55.5230990  50.2283402  77.7600313  54.1764079  49.2527477  77.1261725
  55.8725854  49.3647199  75.8484449  57.2268540  49.8075440  75.6849840
  57.6289357  50.6856516  76.1903128  58.0534719  49.0467613  74.8203480
  59.0319273  49.4637452  74.5819153  57.6625540  47.8019151  74.2731485
  58.3151566  47.1699233  73.6708229  56.3550851  47.3963621  74.5448669
  56.0773442  46.3993282  74.2029845  55.4017561  48.2069645  75.2283253
  54.3525527  47.9124290  75.2511506  54.7105787  52.3101649  75.6229774
  54.4684351  52.5592656  74.4524979  55.5597011  53.0826984  76.4127452
  55.7218481  52.7369452  77.3477652  56.2302827  54.3472338  76.0013955
  56.3080717  54.4388671  74.9180436  55.4932288  55.6337752  76.5922194
  55.3325307  55.4713658  77.6580053  56.3195744  56.9352520  76.3852294
  56.4802919  57.0985889  75.3195880  55.7758117  57.7819863  76.8041135
  57.2825028  56.8384838  76.8867311  54.1274681  55.8892716  76.1125891
  54.1770977  56.5959141  75.2841604  53.7010439  54.9492028  75.7625428
  53.2549152  56.4610198  77.2123802  53.6804815  57.4013989  77.5626376
  52.2515164  56.6386843  76.8254366  53.2044296  55.7546879  78.0410215
  57.6655295  54.2828680  76.5372106  57.8458708  54.1214112  77.7074938
  58.5973860  54.3351061  75.5618355  58.3546925  54.2816273  74.5828875
  60.0580976  54.4035809  75.9340233  60.2242974  54.1126321  76.9712434
  60.7834230  53.4149885  75.0286619  60.2417728  52.4752473  75.1363686
  60.7049810  53.7629785  73.9986863  62.2778176  53.1946936  75.3877552
  62.7143561  54.1092245  75.7892128  62.3325590  52.0941011  76.4506984
  61.8965875  51.1790609  76.0497882  63.3697991  51.9095851  76.7303191
  61.7703165  52.4090039  77.3298002  63.1606418  52.8237940  74.2438235
  63.1364498  53.6147319  73.4942027  64.1823580  52.6928735  74.6002744
  62.8090717  51.8923928  73.7999886  60.5918178  55.8055820  75.8046365
  60.2459750  56.5067017  74.9016477  61.3737208  56.2419116  76.7631276
  61.6087995  55.5491406  77.4594793  61.8519823  57.6133260  76.9583419
  61.5904764  58.2451947  76.1095453  61.2276389  58.2407959  78.2656761
  61.5123793  57.6440105  79.1322033  61.7659735  59.7018032  78.4385673
  61.4812068  60.2993571  77.5725776  61.3393747  60.1425122  79.3396164
  62.8524340  59.6815183  78.5239710  59.6831811  58.2264083  78.1640140
  59.3353042  57.1992319  78.0545037  59.2550016  58.6600820  79.0677225
  59.3700897  58.8097632  77.2981205  63.3570784  57.7097287  76.9976647
  63.9323775  57.3747540  77.9894040  64.0269945  58.2183110  75.8912894
  63.4300158  58.3844932  75.0937311  65.4486318  58.5251908  75.7674466
  66.0575181  57.8088977  76.3190631  65.7609732  58.5386596  74.7232432
  65.6576352  59.9468304  76.3787179  65.4131468  60.9162280  75.7047077
  65.8252233  59.9968717  77.7154939  65.5207554  59.1744225  78.2164690
  66.2590300  61.1742849  78.4984567  65.6926438  62.0678579  78.2360959
  65.9848997  60.8340058  79.9728765  65.0930214  60.2083168  80.0070185
  66.8395399  60.2680496  80.3435294  65.7719841  62.0813367  80.8565204
  65.2153137  61.8994386  81.9986277  66.1266020  63.2019617  80.4728426
  67.6925871  61.6242441  78.1930506  68.6360525  60.8600474  78.5422519
  67.9339945  62.7409884  77.4455070  67.1246485  63.3267401  77.2973403
  69.1624961  63.1051826  76.8046510  69.3191301  62.4508207  75.9471107
  69.1604981  64.5961429  76.3052370  68.3079031  64.6279063  75.6268771
  68.9615617  65.2318646  77.1680129  70.4011929  65.0963259  75.5829908
  71.2178128  65.0656810  76.3043045  70.7819740  64.3099343  74.3632425
  69.9659727  64.3405047  73.6412271  71.6777340  64.7417784  73.9168956
  70.9792359  63.2754127  74.6442285  70.3093698  66.5527020  75.1462216
  70.1657233  67.1866114  76.0212210  71.2302210  66.8389190  74.6380739
  69.4663639  66.6762184  74.4663806  70.4505293  62.9126556  77.5980954
  71.4891418  62.5032985  77.0621087  70.4240128  63.2261048  78.9204938
  69.5576451  63.6053560  79.2750002  71.6187421  63.1560656  79.8600652
  72.4930905  62.7359064  79.3629936  71.9468927  64.6190982  80.2944819
  71.6442966  65.2962010  79.4956912  71.3828479  64.8492753  81.1983469
  73.3789530  64.7837335  80.5575950  73.7496927  63.8341069  80.9434217
  73.8614500  65.0014131  79.6047496  73.7834691  66.1402801  81.7742585
  73.2408489  65.3263664  83.2799752  73.8090544  64.4070421  83.4216949
  73.4038145  65.9883706  84.1304417  72.1798093  65.0888974  83.2031328
  71.3958210  62.2229009  81.0258310  72.0584657  62.3565834  82.0112324
  70.4486467  61.3157514  80.8704781  69.9766839  61.2565980  79.9794947
  69.9808075  60.4319040  81.9795084  70.8349027  60.0991307  82.5693240
  69.0134266  61.1834381  82.8996174  69.1860293  62.2516368  82.7682435
  67.9971763  60.9393683  82.5901576  69.2004752  60.8137234  84.3752572
  68.3606773  61.2147882  84.9426966  69.2112464  59.7272476  84.4621846
  70.5006917  61.3790982  84.9265562  71.3193021  60.8665863  84.4212766
  70.5271371  62.4396582  84.6763313  70.6853791  61.2274435  86.4355162
  70.0225050  61.8334753  86.8974933  71.4783527  60.5140144  87.1625745
  72.2960559  59.6967666  86.5940267  72.3105646  59.6205784  85.5870089
  72.9187164  59.1361375  87.1580201  71.5059322  60.5713295  88.4756500
  70.8832798  61.1990671  88.9638605  72.1496460  59.9873617  88.9901527
  69.3273089  59.1212580  81.5042867  68.5788076  58.4276804  82.1831599
  69.7555539  58.6780512  80.2980786  70.1867814  59.4052663  79.7455385
  69.5270558  57.3412071  79.6593904  69.8840950  57.3443708  78.6295301
  70.3265715  56.2343535  80.4702601  70.4002557  56.4803234  81.5295848
  69.8805607  55.2462046  80.3574063  71.6203237  56.2365187  79.8943838
  72.1688023  55.5848891  80.3372718  67.9857249  57.0227441  79.4580021
  67.2752301  57.8830785  78.9446447  67.6199913  55.7995644  79.6364240
  68.2715097  55.1965781  80.1181195  66.3863119  55.2345919  79.1722608
  66.0015202  55.9127678  78.4106100  66.6500788  53.8880594  78.5324020
  66.7256890  53.1058443  79.2877309  65.4627944  53.6007393  77.6211129
  65.3868097  54.3823387  76.8651832  65.6037639  52.6363871  77.1330014
  64.5474379  53.5777062  78.2124618  67.9053020  53.7955699  77.5709170
  68.8092285  54.0420985  78.1279112  67.9873100  52.7829355  77.1760173
  67.7844364  54.4979380  76.7461920  65.4345112  55.1097375  80.3626594
  65.8077525  54.6438081  81.4626783  64.2330402  55.6215970  80.2249953
  64.0918544  56.2809104  79.4730168  63.1199158  55.3333233  81.1021100
  63.4129443  54.7202452  81.9543827  62.6536221  56.6783366  81.6119898
  63.4056966  56.9397386  82.3564038  62.7527500  57.3371092  80.7492660
  61.2903613  56.8359037  82.2048126  60.5577446  56.3621031  81.5514471
  61.2423779  56.1946891  83.5543226  61.9744505  56.6683050  84.2084300
  60.2455575  56.3143013  83.9787550  61.4720892  55.1332468  83.4611921
  60.9564282  58.3237581  82.3324802  60.9785870  58.7875564  81.3463262
  59.9623347  58.4377564  82.7647805  61.6901566  58.8073032  82.9774032
  62.0043935  54.5698951  80.3640067  61.6853242  54.8113087  79.2060307
  61.3836568  53.5174660  81.0007992  61.6939655  53.2834428  81.9330229
  60.2664176  52.7396625  80.4165250  60.2159741  52.9333718  79.3450627
  60.4525787  51.2247366  80.6351125  61.3046530  50.8470714  80.0699243
  60.6667777  51.1587782  81.7018216  59.2228331  50.3923989  80.3134145
  58.4005013  50.8279822  80.8809869  58.8443239  50.3232435  78.8502586
  59.6660420  49.8873092  78.2820690  57.9542941  49.7049258  78.7335064
  58.6395440  51.3276013  78.4795417  59.5824591  48.9393248  80.6715917
  59.8319654  48.8767589  81.7308045  58.7318404  48.2913168  80.4603227
  60.4386119  48.6194066  80.0776610  59.0102853  53.1989064  81.1688990
  58.9859618  53.1774790  82.4383088  57.9665054  53.6849752  80.4910902
  58.0886561  53.7478970  79.4904807  56.7099576  54.1136899  81.0549071
  56.6783197  54.1728490  82.1428402  56.6936406  55.5508458  80.4807865
  57.7521351  55.7774764  80.3530083  56.2116489  55.5063934  79.5041555
  56.0338795  56.6492403  81.3273359  55.1192651  56.2193458  81.7357132
  56.9000163  57.2016819  82.4775577  57.8146604  57.6321866  82.0698926
  56.3446798  57.9709896  83.0140908  57.1537491  56.3928789  83.1628005
  55.5958230  57.8293302  80.5200247  54.8704890  57.5093842  79.7719441
  55.1377798  58.5693345  81.1762954  56.4594484  58.2706578  80.0225510
  55.4995645  53.2706001  80.6090887  55.4813293  52.6336072  79.5472010
  54.4097210  53.2807414  81.3864614  54.4710144  53.7631114  82.2717081
  53.1178583  52.6957369  80.9995732  53.0436699  52.4558482  79.9388901
  52.9156028  51.4320104  81.7942165  52.9780338  51.6576861  82.8587694
  51.9346269  51.0136308  81.5689499  53.6875959  50.7090334  81.5307204
  51.9925001  53.6409724  81.3701197  52.0842300  54.2942571  82.3593774
  50.8584644  53.6564861  80.6300709  50.9900867  53.3189740  79.6872769
  49.5574660  54.2176438  80.9900030  49.6260622  54.9536710  81.7910385
  49.0779187  54.9128815  79.7341934  49.8529547  55.6236351  79.4474049
  48.9365343  54.1873979  78.9330791  47.7762468  55.6555454  79.9796352
  47.7208545  56.7287702  80.8957673  48.6075291  57.0647092  81.4334035
  46.4500638  57.3861700  81.1137067  46.4026107  58.2951177  81.7134267
  45.3009200  56.9125191  80.4676724  44.0564316  57.4882905  80.7988460
  44.1269446  58.1774353  81.4634565  45.4182866  55.8568302  79.6317753
  44.4752909  55.5118600  79.2076821  46.6023086  55.2192696  79.2981701
  46.6027535  54.4279519  78.5485594  48.6720026  53.1515720  81.5708787
  48.4734283  52.1385999  80.8609760  48.1411230  53.4168578  82.7637351
  48.4047419  54.3265383  83.1145711  47.3405659  52.5706282  83.6012922
  47.0990767  51.6673591  83.0410359  48.0434544  52.1597135  84.9291863
  48.2165815  53.0759951  85.4935925  47.3456624  51.5241364  85.4743727
  49.4195019  51.3898672  84.7348853  49.2305471  50.3795610  84.3720102
  50.0435818  51.9223558  84.0171930  50.1537288  51.3194012  86.1109098
  51.1411876  50.8976086  85.9235195  50.2586345  52.3437199  86.4684926
  49.4287255  50.4751034  87.1771914  48.3632760  50.7015628  87.1367670
  49.5841759  49.4199825  86.9521260  49.9318655  50.7640082  88.4988328
  49.7875280  51.7415667  88.7077487  49.4410877  50.1987776  89.1768826
  50.9190309  50.5538295  88.5366272  46.0050713  53.3071310  83.8688713
  45.8614144  53.9737988  84.9313546  45.0162680  53.1343895  82.9398344
  45.1190527  52.3257271  81.6738370  45.1666248  51.2789619  81.9740367
  46.0569671  52.6091934  81.1962781  43.9289886  52.6243214  80.8163863
  43.5709515  51.7159917  80.3317774  44.1825585  53.3645935  80.0575708
  42.8729930  53.1909268  81.8166066  42.2544094  52.3899060  82.2213521
  42.2337358  53.9534787  81.3716747  43.7144445  53.8012794  82.9217401
  43.8785789  54.8614605  82.7289340  42.9618169  53.6344292  84.2443975
  42.3587570  54.5512283  84.6632963  43.0500155  52.4499739  84.9112188
  43.5240452  51.6827166  84.4565636  42.3790828  52.1935798  86.1783799
  41.3181802  52.4279350  86.0908432  42.5173920  50.7881358  86.5485686
  43.5758175  50.6067878  86.7355116  41.9556319  50.6410729  87.4710100
  42.0149248  49.8149804  85.4870784  40.9860324  50.1139919  85.2868951
  42.6270484  50.0090468  84.6063145  42.0595165  47.9701023  85.8790776
  41.2743691  47.2739276  84.3792982  41.8609825  47.5460235  83.5018316
  41.2290497  46.1880902  84.4629868  40.2648597  47.6725157  84.2787017
  42.7865150  53.0918701  87.3107189  41.9421616  53.8824806  87.8255339
  44.1073663  53.1086207  87.6084105  44.6147729  52.2588093  87.4072676
  44.7730552  54.1374920  88.3474531  44.3202546  54.3009757  89.3253815
  46.1841403  53.6436103  88.5462130  46.2047103  52.5633019  88.4026512
  46.8328125  54.1197408  87.8109416  46.6618020  53.9693193  89.9100008
  46.5005729  55.0454602  89.8465452  46.0393740  53.5553566  90.7032961
  48.1554055  53.6879748  90.2246943  48.5490404  53.7896887  91.4319105
  49.0077301  53.5731075  89.3588385  44.6428936  55.5404916  87.8153890
  44.6979172  56.4657914  88.5956959  44.3300421  55.7002199  86.5123653
  44.2428478  54.8476772  85.9778866  44.1074604  57.0012179  85.8120628
  43.7455111  56.8119343  84.8014869  43.3675316  57.5856185  86.3589454
  45.4209722  57.8035377  85.7322783  45.3589988  59.0283562  85.8946320
  46.5766728  57.1784776  85.4390170  46.5923604  56.1873129  85.2455076
  47.8812930  57.9141758  85.4843065  47.7633348  58.8332890  84.9103587
  48.3694826  58.2799350  86.9117350  49.4054481  58.5705253  86.7372871
  47.8181720  59.1281226  87.3176100  48.3464412  57.1609369  87.9238938
  48.0945744  57.4093392  89.1251059  48.6980753  55.9770303  87.5679842
  48.6840936  55.2252357  88.2423055  48.9867048  55.8041176  86.6156739
  48.8995324  56.9947476  84.7166900  48.7962574  55.8016090  84.6474831
  49.8918404  57.6775642  84.1195758  49.6783697  58.6209944  83.8289404
  51.2641260  57.1291389  83.8167228  51.1470513  56.3379241  83.0762015
  52.2655143  58.1602945  83.2785705  52.3428948  59.0285165  83.9330184
  53.2293753  57.6533608  83.2328514  51.9852035  58.6954387  81.8726247
  51.6656709  57.7581073  80.9078073  51.7340599  56.6837538  81.0786503
  51.2324601  58.2503544  79.6490431  50.8675848  57.5205646  78.9262890
  51.2594595  59.6031586  79.3195497  50.9658319  59.9513080  78.3292594
  51.6558486  60.4816101  80.2469070  51.7315336  61.5273552  79.9489319
  51.9781584  60.0911880  81.5986533  52.1999229  60.8516558  82.3473916
  51.9418464  56.4667659  85.0513576  51.5420117  56.6977766  86.2244796
  52.9474794  55.6291193  84.8936385  53.2374163  55.5477038  83.9295807
  53.6898749  54.8360926  85.9293569  53.6504257  55.3542744  86.8874961
  53.0697829  53.4595282  86.0961187  52.0354390  53.6033862  86.4084276
  53.0900138  52.9724032  85.1212340  53.7928159  52.5833882  87.1179709
  53.6424777  51.5312792  86.8759671  54.8458846  52.8368659  86.9959276
  53.3509090  52.8509910  88.6385810  53.8599192  53.7588910  89.3251952
  52.4140037  52.1305451  89.0625953  55.1066682  54.7699799  85.2905519
  55.3566945  54.3265186  84.1353247  56.0462749  54.9677005  86.2283493
  55.9101524  55.5037353  87.0734745  57.4553784  54.5411428  85.8669579
  57.6320310  54.6233915  84.7945176  58.4153381  55.4800709  86.5928514
  58.2408772  55.3420497  87.6599094  59.4238769  55.1495964  86.3443836
  58.2630744  56.9544762  86.2402302  58.2035122  57.1780968  85.1750790
  57.3060179  57.1774670  86.7118415  59.3363545  57.7929986  86.8673856
  59.4886277  58.9653621  86.4730878  59.9831331  57.4601759  87.8693744
  57.6615140  53.0384797  86.0717741  57.7728585  52.6249425  87.2057950
  57.7493765  52.2683868  84.9361865  57.6338319  52.6327295  84.0013051
  58.0297947  50.8491244  85.0937649  57.5443054  50.3879332  85.9538242
  57.6283368  50.0895868  83.8065259  58.2168048  50.5229501  82.9978220
  57.8481815  48.5480567  83.8396959  57.2596300  48.1138958  84.6479113
  57.5347367  48.1152968  82.8896580  58.9042539  48.3346045  84.0047669
  56.1539671  50.4028599  83.3882630  56.1037998  51.4322081  83.0332611
  55.8694338  49.7267467  82.5820302  55.1784260  50.2197633  84.5869824
  55.4620648  50.8959283  85.3934870  54.1613032  50.4444756  84.2659455
  55.2277006  49.1904668  84.9422578  59.5393345  50.6194537  85.3523260
  59.8458259  49.7804312  86.1773195  60.4481122  51.3349992  84.6525984
  60.1565565  52.0081973  83.9584090  61.8332918  51.0622148  84.7843220
  61.9553408  50.9169488  85.8576817  62.2586299  49.7683609  84.0603223
  62.1506219  49.9014377  82.9838815  63.2992099  49.5449804  84.2956831
  61.6270585  48.9430380  84.3890456  62.7892119  52.2549162  84.3405550
  62.4999091  53.0160013  83.4441520  64.0120524  52.2906536  84.8336625
  64.2743003  51.5381656  85.4542163  64.9488374  53.4128427  84.6629355
  64.9134833  53.7380515  83.6231815  64.6155461  54.6319085  85.5783094
  63.6610214  55.0306325  85.2347968  64.5031930  54.2430170  86.5903570
  65.6810570  55.7634557  85.5737964  65.4715853  56.3950165  86.4371349
  66.6504103  55.2820600  85.7030804  65.7024804  56.5926290  84.3510267
  66.7459949  56.8284704  84.1423275  65.2999157  55.9818917  83.5429171
  64.9511716  57.8296045  84.4165144  64.2850225  57.9017239  85.1722548
  65.0035011  58.8166129  83.5156342  65.7228613  58.7884824  82.4788978
  66.3044742  57.9839062  82.2931997  65.7134018  59.5706848  81.8400163
  64.3219731  59.9433393  83.7936562  63.7999562  60.0145153  84.6553594
  64.3356235  60.7126091  83.1393348  66.3613178  52.9606000  84.8167818
  66.8507543  52.5475567  85.8659310  67.0640563  53.0083793  83.7153351
  66.6419836  52.9045716  82.8036455  68.5521915  53.1605746  83.7958590
  68.8974718  52.7235888  84.7328350  69.2869297  52.4680585  82.6283388
  69.0121335  51.4144859  82.6790450  68.8968687  52.9008172  81.7071047
  70.8002294  52.5977320  82.6471738  71.3773752  53.2005559  83.5733358
  71.4590123  52.0964363  81.7113486  68.8406617  54.6748285  83.8257761
  68.2804622  55.3614468  82.9776501  69.5284894  55.1913293  84.8075786
  69.9307356  54.5796199  85.5033579  69.7600384  56.6438474  84.9347257
  68.9278753  57.2462160  84.5703690  69.8885823  56.8513553  86.4751211
  70.4538807  55.9625423  86.7553861  70.4570500  57.7421368  86.7424276
  68.6626571  56.8596802  87.3185427  68.1359681  58.0969457  87.7476276
  68.6077618  59.0073182  87.3778539  67.0393376  58.1793659  88.6230141
  66.6271913  59.1277529  88.9676853  66.4654422  56.9546549  89.0594598
  65.6591233  56.9599923  89.7928909  66.9543631  55.6953867  88.5272466
  66.3687327  54.7903156  88.6884411  68.1621075  55.6323396  87.8140093
  68.6598744  54.6735707  87.6687845  71.0138540  57.1950258  84.2559342
  71.2612440  58.3632495  84.3594213  71.9798604  56.3493849  83.7741676
  71.7320975  55.3715069  83.8238416  73.3137607  56.6897484  83.4160044
  73.8810565  57.0482693  84.2749208  73.9778789  55.3978691  82.8901490
  73.8157581  54.7201562  83.7283144  73.4247492  55.0398349  82.0218408
  75.4638280  55.4066720  82.5513176  75.9611699  55.6741287  81.4465443
  76.2578710  54.9927747  83.5076542  77.2562717  54.9704752  83.3566623
  75.8679145  54.6979217  84.3914508  73.4650085  57.9009491  82.5390188
  72.8628726  57.9780832  81.4578256  74.3642077  58.8436041  82.8716334
  75.1373798  58.9739965  84.1309653  75.8127702  58.1202468  84.1862794
  74.4252654  58.9272440  84.9548623  75.9017024  60.3453573  84.0770550
  76.8826341  60.2637060  83.6088615  76.0054623  60.8083256  85.0583783
  74.9432806  61.1236992  83.2139371  75.4084868  62.0070561  82.7764868
  74.0242899  61.4125504  83.7239575  74.6194130  60.0577775  82.0696545
  73.6857819  60.3528517  81.5907364  75.7089814  59.8193448  80.9799663
  76.9126406  60.1147974  81.1770736  75.3053803  59.2745222  79.7941119
  74.4690509  58.7082604  79.7940218  76.0667089  59.3957563  78.5390892
  77.1162842  59.6267204  78.7211508  75.9771914  58.0140402  77.8440371
  76.3293231  58.3239492  76.8601372  76.6360004  57.2401821  78.2380097
  74.5850547  57.4369142  77.6999513  73.6732215  58.1834667  77.2929824
  74.3783227  56.3032675  78.2162419  73.4647470  55.8784747  78.1453176
  75.1275424  55.8267832  78.6976289  75.4118595  60.6186300  77.7676022
  74.9241305  61.5183757  78.3732333  75.5090557  60.6392923  76.4179678
  76.2152728  60.0803387  75.9608818  74.7669921  61.5612111  75.6322049
  73.9072959  61.9635697  76.1680492  75.7471271  62.7205944  75.3276483
  76.6110436  62.3347030  74.7865056  75.2332537  63.4586437  74.7117609
  76.2879873  63.4639628  76.5358964  77.3470947  63.0721505  77.2479073
  77.8753545  62.1738623  76.9283457  77.5372949  63.9533910  78.2892488
  78.3704908  63.8703227  78.8540353  76.6736198  64.9934008  78.3122715
  76.5554793  66.1915012  78.9562405  77.2903920  66.3660268  79.7420794
  75.5217105  67.1310181  78.5952874  75.4052326  68.0593756  79.1544701
  74.6659944  66.8719313  77.5403724  73.8640846  67.5330581  77.2118125
  74.8562916  65.6329616  76.8282262  74.2101491  65.5542953  75.9539195
  75.8288545  64.6792467  77.1448367  74.1091479  60.8714208  74.4630478
  74.7725519  60.6390959  73.4306185  72.7892957  60.6743455  74.4958755
  72.3767496  61.0052385  75.3563491  71.9449215  59.9643773  73.5584864
  72.4041955  59.0386205  73.2118729  70.6776851  59.6207521  74.3248594
  70.9121346  59.4591920  75.3770148  69.9569425  60.4334294  74.2343845
  70.0724635  58.3240168  73.7251675  70.0576907  58.5014849  72.6498128
  70.8041356  57.5494760  73.9550468  68.4020979  57.7612683  74.2699693
  68.9212643  57.2321721  75.9216555  69.3360082  58.0827540  76.4625780
  68.0614486  56.8407267  76.4653358  69.6793610  56.4540238  75.8329095
  71.7100521  60.6788887  72.2699012  71.0675979  61.7488308  72.1983651
  71.9336578  59.9462059  71.1370104  72.4365654  59.0776834  71.2503766
  71.6116899  60.3957241  69.7662763  71.4178308  61.4682790  69.7542816
  72.8193642  60.0977338  68.8289884  72.6553855  60.5684077  67.8596194
  73.7335720  60.4912413  69.2733712  72.9397972  58.7286734  68.6624149
  73.6834019  58.5407663  68.0850563  70.2606959  59.7671127  69.2855801
  69.6490777  60.4044577  68.4389583  69.8793411  58.5400264  69.7493837
  70.4663572  58.0681633  70.4223300  68.6852778  57.8437641  69.2592482
  67.9111221  58.6032452  69.1498378  69.1100738  57.3163622  67.7778760
  69.8782452  56.5487237  67.8713847  68.2374913  56.8973107  67.2767813
  69.4991611  58.1496148  67.1927262  68.0865334  56.6784281  70.0805356
  68.8306713  56.0289677  70.7649669  66.8194940  56.3541357  70.0077715
  66.2295070  56.9472540  69.4418868  66.1993428  55.2189056  70.7098684
  66.8563815  54.3724380  70.9095977  65.6139912  55.7266772  72.0650560
  66.1871737  56.6302215  72.2728269  64.0889071  56.0348147  72.2027352
  63.5150508  55.1315632  71.9955480  63.8765041  56.3751133  73.2162353
  63.8093983  56.8131025  71.4926333  65.9982408  54.7712917  73.1796550
  67.0843453  54.7167559  73.2538502  65.5876229  55.1295468  74.1236602
  65.5991544  53.7803425  72.9632051  65.0651856  54.4832628  69.9610546
  64.3575628  55.0596282  69.0778049  64.8984142  53.1815276  70.3267385
  65.5804512  52.8372903  70.9873636  64.0292561  52.2174356  69.6659897
  63.0309764  52.6456119  69.5754255  64.5399853  51.8403863  68.2437410
  64.8689063  52.7981319  67.8404626  65.4093461  51.2172822  68.4536296
  63.6044392  51.1066043  67.1765074  64.1239301  50.8129191  66.2643785
  63.1714977  50.2241591  67.6476245  62.4868067  52.1025660  66.8308792
  61.4849863  52.0966466  67.5794424  62.6728114  52.8808660  65.8819085
  63.5448616  50.9721793  70.4485748  64.0656179  50.5164530  71.4440749
  62.4218941  50.3884437  70.0317068  61.9844460  50.6827484  69.1702410
  61.8205313  49.2553016  70.7736614  62.3513744  49.1262573  71.7168753
  60.3440146  49.6686366  71.0607182  59.9061692  49.9959511  70.1177140
  59.4799879  48.5111033  71.6626238  59.9169806  48.1835510  72.6059411
  58.4649518  48.8678008  71.8374653  59.4553306  47.6745207  70.9643254
  60.3358194  50.8122748  72.1419182  60.6237394  50.3603409  73.0911066
  61.0886636  51.5422426  71.8444754  59.0147190  51.4939902  72.2955405
  58.2614091  50.7646911  72.5934448  59.0915353  52.2685850  73.0585617
  58.7263321  51.9465910  71.3468122  61.7901043  47.9455907  69.9099452
  61.0098689  47.7786715  68.9417986  62.7614948  47.0347611  70.1200639
  63.5174160  47.2417243  70.7571264  62.8335039  45.8140074  69.3416675
  62.8089357  46.0192980  68.2714566  64.2067668  45.1292971  69.6909896
  64.0883825  44.8942867  70.7487487  64.3614231  44.2078158  69.1296931
  65.4591286  46.0810477  69.4986524  65.3264413  46.9919590  70.0823780
  66.6906924  45.3567696  69.9725407  66.8243088  44.4459211  69.3889310
  67.5619322  45.9995346  69.8464648  66.5788954  45.0996471  71.0258640
  65.5749069  46.6027624  68.0712088  64.6787965  47.1688113  67.8168977
  66.4481290  47.2500697  67.9901055  65.6807088  45.7630302  67.3843647
  61.6563520  44.8434117  69.4586432  61.1233179  44.1649448  68.4620092
  61.0765640  44.6369591  70.6143392  61.6149108  45.1846566  71.2703190
  59.9658589  43.9236564  71.0957957  59.0841120  44.1073972  70.4819056
  60.3135086  42.3964910  71.0288282  59.5062384  41.7171400  71.3025000
  60.5111381  42.3132570  69.9601306  61.5583110  42.0340126  71.7997195
  61.4301116  41.6824474  72.9786316  62.6121913  41.9132041  71.1665287
  59.6017478  44.2351800  72.6033000  59.9800812  45.2874818  73.1628801
  58.7431141  43.4224369  73.2379414  58.4349895  42.6265164  72.6978775
  58.1288351  43.6541546  74.5389584  57.7295925  44.6650252  74.6216944
  56.9485918  42.6400784  74.6623287  57.5337081  41.8026511  74.2822580
  56.5839982  42.4038626  75.6620154  55.7716939  42.8920573  73.7424547
  55.8371756  43.8635086  72.9723492  54.6524623  42.3615692  73.9210712
  59.0947851  43.6182694  75.7101061  58.8555987  44.3441881  76.6957947
  60.2904711  43.0622622  75.5128754  60.4850058  42.7804006  74.5627124
  61.3319162  42.8300357  76.5420809  60.9915032  43.1395527  77.5302192
  61.5998083  41.3867122  76.5689338  61.6197931  41.1085896  75.5152034
  62.4780181  40.9780299  77.0687602  60.3509359  40.8317060  77.2122018
  59.9409156  41.2550949  78.3051310  59.8347174  39.8166387  76.7442202
  62.6548698  43.5936162  76.2240861  63.5939155  43.5678309  77.0690082
  62.7690209  44.1584697  74.9820648  61.9705359  44.2149463  74.3661659
  64.0535072  44.6050766  74.4837425  64.7180361  44.7607431  75.3336063
  64.7235072  43.5841201  73.5056235  63.8607486  43.4149573  72.8613171
  65.5887542  43.8393111  72.8938023  65.0281013  42.2852800  74.2699441
  66.0347678  42.0628419  74.8830190  64.2601288  41.2999385  73.9713651
  64.3891201  40.4073212  74.4260027  63.5309145  41.4224462  73.2833686
  63.8666522  45.9626542  73.8285659  63.1577072  46.0592371  72.8167237
  64.6905105  46.9297842  74.2595916  65.3490387  46.6288386  74.9637732
  64.7511191  48.3080023  73.8040365  64.1304060  48.4540901  72.9200270
  64.2156124  49.2164607  74.9412457  65.0343253  49.4744960  75.6129794
  63.7688257  50.1289773  74.5465369  63.1426683  48.5385226  75.7984061
  61.8619192  48.1838467  75.2742365  61.5609036  48.5695045  74.3001946
  60.9836930  47.3387834  76.0066406  60.1277756  46.9000871  75.4937550
  61.2010981  47.0679818  77.3550810  60.4816083  46.5074387  77.9519276
  62.3964621  47.5428786  77.9485783  62.5595129  47.3546997  79.0097584
  63.3893365  48.2627478  77.1805056  64.3144010  48.5893036  77.6556024
  66.2311300  48.7196071  73.5064404  67.0237885  48.5750634  74.4054385
  66.5148277  49.2924270  72.3145436  65.6860116  49.4155083  71.7506162
  67.7671808  49.7859135  71.8040242  68.6416749  49.3372485  72.2752555
  67.7139997  49.3213102  70.2869832  67.6948480  48.2400574  70.4234556
  66.8116103  49.6369555  69.7633788  68.9420977  49.7088978  69.4639224
  68.9884914  50.7955683  69.3925394  70.2386661  49.1795022  70.1252466
  70.1932071  48.0927883  70.1965575  71.0990447  49.4677945  69.5213120
  70.3375468  49.6048139  71.1239622  68.7695006  49.3266491  68.0184532
  67.8995644  49.8392582  67.6079139  69.6585270  49.6145064  67.4573190
  68.6252353  48.2489605  67.9418131  67.9844161  51.2897489  71.7899636
  67.1705192  52.0639963  71.2994753  69.1524458  51.7033132  72.2454856
  69.7760584  51.0279416  72.6639111  69.6006722  53.1377527  72.1708578
  68.9112326  53.6954219  71.5369988  69.5987872  53.5657101  73.1733289
  70.9943817  53.2428380  71.5935782  71.7596429  52.2505450  71.5312259
  71.3402189  54.5017631  71.3667889  70.6858379  55.2554107  71.5213855
  72.6729882  54.8331622  70.8977052  73.3842540  54.1616329  71.3785884
  72.7158706  54.5871080  69.3680894  72.0153849  55.2587205  68.8717464
  73.7234875  54.7752587  68.9974037  72.4389402  53.5540536  69.1578341
  73.1254577  56.3060377  71.1308983  72.2512273  57.1663744  71.4039973
  74.4357864  56.5721061  71.2069800  75.0939706  55.9094475  70.8225630
  74.9588686  57.7490133  71.8892272  74.2818375  58.5992977  71.8071020
  75.0916917  57.3611628  73.3942385  75.3919855  58.2704119  73.9149966
  74.0933136  57.0693311  73.7200841  76.0725673  56.2488420  73.7131064
  75.8861762  55.8545720  74.7120610  75.7880650  55.5038048  72.9700875
  77.5802178  56.5802684  73.5614571  78.0637205  57.4518351  74.3399259
  78.3437760  55.9316189  72.7784030  76.2892462  58.3594476  71.4075068
  76.7974438  57.9399597  70.3773072  76.7777130  59.4802992  71.9847658
  76.2268519  59.7595333  72.7839401  77.7566530  60.4286941  71.4511689
  77.5203462  60.6239613  70.4051626  77.7619164  61.7938079  72.2278029
  76.7422632  62.1292762  72.4171904  78.2549855  61.5784720  73.1757551
  78.5490752  62.9556770  71.5017098  78.1729865  63.3813948  70.4357485
  79.5811370  63.4492872  72.1897966  80.1366111  64.1950172  71.7955440
  79.8017395  63.0747370  73.1014695  79.1739044  59.8717784  71.1374996
  79.9648953  60.5090580  70.4172601  79.4874697  58.7208297  71.7099539
  78.7950685  58.3395421  72.3386825  80.7893801  58.0443089  71.6136531
  81.4645570  58.7378179  71.1123742  81.3514170  57.7343863  73.0092260
  80.6908365  57.0339225  73.5201898  82.3432487  57.2928445  72.9122153
  81.4195512  58.6561585  73.5869742  80.6995746  56.7891944  70.6927494
  81.7228947  56.1526824  70.6068290  79.5460187  56.5641505  70.0087003
  78.7332749  57.0340889  70.3811311  79.3507721  55.5864560  68.8822110
  78.4242993  55.8672572  68.3813139  80.4528307  55.5121839  67.8523248
  81.2727930  54.8641849  68.1619349  80.0126564  55.1261894  66.9328930
  81.0542211  56.8266547  67.5159352  80.2700976  57.8666330  66.9877822
  79.2126679  57.6922922  66.7889164  80.8437091  59.1347277  66.7135825
  80.2154326  59.9340937  66.3206662  82.1884627  59.3608645  66.9409170
  82.6543009  60.2925275  66.6198272  82.9439750  58.3942258  67.5811043
  83.9460558  58.6427046  67.9306647  82.4296335  57.1007519  67.7822290
  83.0816181  56.3048712  68.1422149  79.0225808  54.1729426  69.4030021
  79.3519867  53.2086501  68.6935369  78.3837875  54.0136300  70.5698425
  78.3043248  54.8065281  71.1904048  77.9002601  52.7033380  71.0440178
  78.3390015  51.8837173  70.4749598  78.3335113  52.5740148  72.4939240
  77.8377770  53.3821267  73.0317918  77.9550991  51.6157157  72.8496867
  79.8298114  52.6438547  72.7804695  80.4988564  51.6159322  72.8132593
  80.3253713  53.7902522  72.9837577  81.3122747  53.8833503  73.1772889
  79.7316267  54.6066638  72.9515065  76.3636334  52.5057298  70.8245471
  75.5582970  53.3671216  71.1112290  75.9461528  51.3648254  70.2492488
  76.6026131  50.9591816  69.5976260  74.6614996  50.6716237  70.4716146
  73.8267661  51.3708717  70.4229162  74.4837027  49.5940589  69.3326978
  75.2538729  48.8576197  69.5620323  73.5101282  49.2062338  69.6324383
  74.4791859  49.8775840  67.8169772  75.3895078  50.3721211  67.4780849
  74.4046807  48.4594820  67.2043913  73.4943276  47.9644565  67.5424829
  74.3952792  48.5329338  66.1169092  75.2718501  47.8801643  67.5214222
  73.2781151  50.6663954  67.2331815  73.2217559  51.6465115  67.7067801
  73.4117386  50.7898912  66.1584746  72.3555724  50.1179260  67.4234322
  74.6375890  49.9816796  71.8282613  75.5289374  49.1244905  72.0233483
  73.4899013  50.0141145  72.5333081  72.9027837  50.7444019  72.1563829
  73.0459353  49.3228484  73.7398193  73.5080839  48.3372573  73.7957478
  73.4476670  50.1250487  74.9873113  73.0864105  49.6596226  75.9043563
  74.5350478  50.1935150  75.0191764  72.9234272  51.5472912  74.9871882
  71.6600241  51.6964812  75.6736020  71.2458582  50.8096017  76.1531969
  70.9575418  52.9380410  75.7400696  69.9703387  53.0309536  76.1927262
  71.5884565  54.0679025  75.1921458  71.0932841  55.0364441  75.2616538
  72.8659563  53.9599539  74.5482340  73.3280272  54.8551515  74.1320468
  73.5307009  52.7026628  74.4488212  74.5023600  52.6371104  73.9592486
  71.6246062  48.9518950  73.7684230  70.7224822  49.6597808  73.3820603
  71.3164019  47.7951516  74.4371994  72.0490996  47.3139919  74.9389352
  69.9661331  47.2855023  74.5394771  69.2226673  48.0147890  74.2177652
  69.7518658  45.9662943  73.7337397  70.3658265  45.1994844  74.2061316
  68.3023853  45.4945112  73.6794346  67.6878454  46.2606581  73.2067183
  68.2412541  44.5725370  73.1012244  67.9407582  45.3127159  74.6915007
  70.2076454  45.8398957  72.3267471  71.2862076  45.9899175  72.2787983
  69.9626319  44.8457880  71.9528247  69.7092629  46.5910359  71.7139632
  69.7710894  46.9144919  75.9928282  70.5403652  46.1460605  76.5313177
  68.7289694  47.4857031  76.5811501  68.1834570  48.0928847  75.9863006
  68.3787111  47.3984583  77.9627899  69.1166313  46.7881394  78.4834470
  68.3344850  48.8213255  78.6390480  68.1777685  48.7643636  79.7162177
  69.2305291  49.4068579  78.4332403  66.9351251  49.7868452  77.9743039
  67.1590193  50.8762945  78.7035979  67.0439061  46.6295660  78.0154597
  66.4035830  46.3596032  76.9860305  66.7021902  46.0641772  79.2020012
  67.2576454  46.1826249  80.0371892  65.5459049  45.1884952  79.2628969
  64.8442295  45.3978640  78.4554840  66.0675753  43.7282791  79.1033409
  66.3179474  43.6312082  78.0469365  66.9803135  43.6874575  79.6977672
  65.1617437  42.6101214  79.5048896  65.4398616  42.5695930  80.5580319
  64.1211321  42.9221517  79.4161950  65.3015338  41.2396375  78.9202858
  65.6478505  40.2666652  79.5662028  65.2037008  41.1615664  77.6616863
  65.2889782  40.2640928  77.2063071  65.0407706  41.9970736  77.1181030
  64.7558681  45.4086083  80.5698712  65.3987576  45.5990250  81.5976161
  63.4368748  45.2999298  80.5739541  62.9222270  45.2593697  79.7058574
  62.6981015  45.3381854  81.7999539  63.1615525  46.0500483  82.4830084
  61.2449612  45.7692509  81.5536073  60.7480211  45.7921551  82.5234657
  61.2749109  46.7762198  81.1374143  60.4803734  44.8589957  80.6166980
  60.9952483  44.8567949  79.6559692  60.4949959  43.8540093  81.0384688
  59.0599970  45.2980124  80.4211777  58.5637696  45.5784867  81.3502587
  58.9541119  46.1044333  79.6955241  58.4199163  44.0264514  79.8660289
  59.1125231  43.6228176  79.1274654  58.3315956  43.3295886  80.6995042
  57.1063677  44.2178349  79.2492075  57.1880659  44.8631999  78.4765957
  56.7603966  43.3309115  78.9119080  56.4643204  44.5914444  79.9335248
  62.8954739  43.8932898  82.3742605  62.7795766  42.9591050  81.6572105
  63.1673947  43.8034918  83.6394499  63.2289974  44.6383365  84.2045507
  63.5195622  42.5377173  84.2451595  62.9389164  41.7262506  83.8064438
  64.9694731  42.2750782  83.9981511  64.9696496  42.5276615  82.9378205
  65.6162779  42.9680075  84.5362891  65.4848173  40.8541837  84.1811077
  64.6793097  39.8870232  84.2247780  66.6940336  40.7228556  84.4844851
  63.0829701  42.5927784  85.7482552  63.7913226  43.2339302  86.5182065
  61.9700088  41.8831717  86.0635875  61.3931215  41.5827491  85.2908995
  61.3927586  41.8544498  87.4186234  61.9478873  42.5014422  88.0978376
  59.9728032  42.3618709  87.3209327  59.9935415  43.3977402  86.9823413
  59.4326804  41.7537282  86.5953089  59.3173661  42.2883836  88.5828994
  58.4188966  42.6152768  88.4963367  61.7328937  40.5878210  88.2013089
  61.0914153  40.2087856  89.1776770  62.7152539  39.8348150  87.7357078
  63.1261556  40.2290792  86.9015525  63.2055332  38.5824852  88.2024736
  62.4156475  37.8381267  88.3030230  64.2004124  38.0982761  87.1546650
  65.0023326  38.8289691  87.0492528  64.6198929  37.1415801  87.4659031
  63.6916514  37.9774376  86.1982867  63.8321855  38.7344831  89.5985611
  63.5303764  37.8922257  90.4990675  64.5932632  39.7875770  89.8471894
  64.8418881  40.2506221  88.9847079  65.2426819  40.2304155  91.0872468
  65.9771578  39.4523753  91.2953282  66.0213556  41.5758693  90.6792632
  65.2993512  42.3669259  90.4766823  66.6738209  41.8809637  91.4973749
  66.6197466  41.3935121  89.7866416  64.3896536  40.3156866  92.3582946
  63.1637357  40.2861964  92.3628271  65.1500661  40.4394098  93.4702436
  66.1558566  40.4651834  93.3818103  64.5456214  40.4659979  94.8724838
  63.4700524  40.3052586  94.7989086  65.1485726  39.3655377  95.7723901
  64.7057477  39.4201553  96.7668866  64.8592413  38.0407830  95.1753933
  65.3021778  37.9852415  94.1809980  65.2818227  37.2578091  95.8050566
  63.7805586  37.9032925  95.1002887  66.5462910  39.5558603  95.8559293
  66.9291207  38.8751219  96.4141738  64.6003145  41.7611960  95.7532452
  64.3122268  41.8416001  96.9316839  64.8852166  42.8465672  95.1038084
  65.2489708  42.6847455  94.1755864  64.8019547  44.2675106  95.6012663
  64.2556840  44.3601906  96.5399345  66.1958099  44.7812320  95.8053179
  66.0747138  45.8309376  96.0728137  67.0565220  44.0990789  96.8315907
  67.1784608  43.0493672  96.5645025  68.0337216  44.5807989  96.8651424
  66.5824189  44.1716988  97.8103926  66.9239141  44.7382700  94.5430962
  67.8156843  45.0676441  94.6767336  63.9749024  45.0899173  94.5653528
  64.2046054  44.9954101  93.3423909  63.0819961  45.9576864  95.0046022
  62.8349020  45.9062866  95.9825603  62.3593456  46.9258128  94.1477057
  61.7149445  46.4071423  93.4378977  61.4898665  47.8117780  95.0397874
  62.2771520  48.3130306  95.6028384  60.9270782  48.5493888  94.4676863
  60.5209403  47.0708145  96.0378807  59.4181013  46.7973386  95.5668202
  60.7764963  46.9236728  97.2499110  63.2833679  47.7601515  93.2613025
  62.9996536  47.9086588  92.0641802  64.3481483  48.2519950  93.8172933
  64.2809173  48.1903720  94.8231670  65.4820705  48.9781918  93.2401931
  65.1539313  49.9278292  92.8175673  66.5031722  49.2610543  94.3439074
  66.0260203  49.9848691  95.0046020  66.6309746  48.3164207  94.8725227
  67.9439304  49.8196267  93.8869352  68.5997794  50.0035135  94.7379044
  68.3073385  48.9569351  93.3285474  67.9340772  51.0430108  92.9805048
  69.0497710  51.3530077  92.4095134  66.8523623  51.6100132  92.6937812
  66.0314572  48.2761167  92.0184658  66.1407939  48.8959825  90.9294034
  66.5283753  47.0430068  92.1451249  66.5806478  46.6347865  93.0674714
  67.0064976  46.2802056  91.0407335  67.7431856  46.8691395  90.4943392
  67.6835359  44.9259206  91.5030074  68.3695474  45.1451799  92.3211840
  66.9021380  44.2525553  91.8552808  68.4607128  44.2530925  90.3442820
  67.7305945  43.5648885  89.9183673  68.7033338  45.0233798  89.6122358
  69.6994152  43.5027897  90.7056503  70.7507791  43.6989440  90.0335080
  69.5502049  42.6994319  91.6182168  65.9188535  45.9259434  90.0782041
  66.1205380  46.0773580  88.8457322  64.7353679  45.4828503  90.6167199
  64.6040371  45.3883863  91.6136794  63.5961558  45.1385539  89.7176683
  63.8450986  44.2727357  89.1040842  62.3449666  44.7946949  90.5795056
  62.4130689  45.4806573  91.4238496  61.5051788  45.0809347  89.9463206
  62.1234612  43.3159225  91.1156712  62.3782583  42.5944592  90.3393530
  62.7451686  43.1392035  91.9933685  60.6493821  43.1574515  91.4948582
  60.0321394  43.6101151  90.7188388  60.4144232  42.0958851  91.5721266
  60.3393025  43.8047557  92.7824738  59.7598871  44.6319222  92.7956172
  60.7172846  43.2636296  93.9613216  61.3513708  42.1777505  94.1927138
  61.6412802  41.5919463  93.4227229  61.5593220  41.9109595  95.1443853
  60.4794274  44.0148934  95.0142772  60.0453909  44.9194100  94.8978202
  60.7319060  43.6838265  95.9344663  63.2477882  46.3203613  88.8061940
  62.9039679  46.0159077  87.6725990  63.4389960  47.5700836  89.2154040
  63.3852644  47.6187450  90.2227988  63.3181543  48.7706716  88.4790761
  62.7490134  48.6006658  87.5651419  62.5790156  49.8150898  89.3308963
  62.0467970  50.4546643  88.6267747  61.8592106  49.2583003  89.9308679
  63.4503578  50.6818559  90.2513986  62.9122644  51.3099124  90.9613995
  64.0120294  49.9208955  90.7932162  64.4386694  51.5586883  89.4723368
  64.0939063  52.4623795  88.7700309  65.6917595  51.4035759  89.7398200
  66.3813332  51.9581437  89.2529483  65.9768426  50.7283630  90.4347420
  64.4393051  49.3349058  87.5621952  64.1652005  50.2069308  86.7620801
  65.6700802  48.8384261  87.5566575  66.0029172  48.4004683  88.4037182
  66.6045271  49.0359629  86.4766089  66.7616798  50.0852313  86.2267327
  67.9009118  48.4704226  87.0386027  68.1574548  48.4610185  88.0979405
  67.8038619  47.4457931  86.6796937  69.0255893  49.0439026  86.3476865
  69.1868457  50.3855793  86.0607634  70.3565196  50.4869772  85.4261041
  70.7837175  51.4577542  85.1747221  70.8158080  49.2241672  85.2042236
  71.7040287  48.9978380  84.7800314  69.9315962  48.3412655  85.6240522
  70.0430155  47.2898986  85.3588832  66.1710433  48.4948250  85.0807011
  65.4159008  47.4876875  85.0152880  66.6950207  49.1045923  84.0180235
  67.1602920  49.9946981  84.1244824  66.6319390  48.5275789  82.7191016
  65.8193304  47.8046442  82.6474651  66.3633807  49.6838105  81.7009204
  67.0398547  50.5281414  81.8335384  66.5734213  49.1967104  80.7487038
  64.9186411  50.1826426  81.7098739  64.6245722  50.4413517  82.7270729
  64.8152792  51.4175454  80.8217042  65.1087679  51.1594942  79.8041715
  63.7875980  51.7808252  80.8218150  65.4754718  52.1964360  81.2032480
  63.9796662  49.1958197  81.0318941  64.0161365  48.2404509  81.5553821
  62.9619362  49.5852346  81.0580292  64.2873166  49.0538381  79.9958963
  68.0110084  47.9026419  82.5484261  69.0077942  48.5780953  82.2055475
  68.1266786  46.5802350  82.6529942  67.2596220  46.0668136  82.7216284
  69.4152147  45.8069611  82.6623768  70.1094862  46.3209986  83.3270961
  69.2715889  44.3241214  83.1394135  68.6264503  43.8069126  82.4292090
  70.2633205  43.8720722  83.1245828  68.6896617  44.2090838  84.5200177
  67.8999595  44.9550426  84.4304812  68.2470802  43.2359093  84.7325149
  69.5901166  44.5938688  85.6752894  70.7388831  45.0508652  85.5760938
  69.2772601  44.2881005  86.8952425  69.8908256  44.5534865  87.6523482
  68.4213563  43.7858693  87.0831090  70.0596952  45.7117707  81.2404170
  69.3675239  45.3708553  80.2608224  71.3412722  46.0511551  80.9835421
  71.7352638  46.8042549  81.5291708  72.0348268  45.6449773  79.7550029
  71.4643215  46.0131571  78.9023209  73.4428573  46.1741223  79.6571420
  73.8111184  46.0246443  78.6421842  73.4414105  47.2390859  79.8894140
  74.3648981  45.4290197  80.6559712  73.8628169  44.7743513  81.3683086
  74.9641424  44.8286775  79.9714313  75.2853502  46.4136876  81.4199699
  74.8621563  47.3696279  82.0443465  76.4754717  46.1082403  81.5330531
  71.8547152  44.1815439  79.3293779  72.0780962  43.3040664  80.1648538
  71.4919024  43.9708682  78.0370190  71.0053130  44.7527365  77.6222755
  71.4769162  42.7030242  77.3367461  72.1671101  41.9249409  77.6628105
  70.0637088  42.1106000  77.2762785  70.1313897  41.0877890  76.9056355
  69.3670004  42.1099965  78.7291054  69.2985445  43.1325830  79.1002273
  68.3665979  41.6840167  78.6527078  69.9638696  41.5129809  79.4186134
  69.2236614  42.6536384  76.2007606  69.6927734  42.4549500  75.2371430
  68.2424193  42.1799918  76.2311323  69.1114963  43.7295458  76.3347126
  72.2266891  42.5623638  76.0294859  72.6336198  41.3933950  75.7588767
  72.3491793  43.6313386  75.2597887  71.8319661  44.4912917  75.3741155
  73.3141134  43.5423718  74.1622126  74.0031371  42.7210865  74.3592808
  72.7789849  43.3517260  73.2319486  74.1221910  44.8540881  74.0185190
  73.5281459  45.9439859  73.9937945  75.4854209  44.8323241  73.9614280
  75.9406605  43.9345330  73.8788001  76.3286164  46.0529987  73.9419082
  75.7195818  46.9519611  73.8468162  77.0843861  46.1132070  75.2690439
  77.8009944  45.2978067  75.3675030  77.6203083  47.0566910  75.1654797
  76.1955277  46.1651959  76.5166504  75.5962941  45.2571575  76.5836292
  77.0871913  46.2759173  77.7450171  77.6864357  47.1840161  77.6789746
  76.4684189  46.3139472  78.6415522  77.7462434  45.4092003  77.7955387
  75.3792537  47.4528327  76.5574206  74.7427833  47.5082713  75.6742834
  74.7583667  47.4618225  77.4532553  76.0523899  48.3099878  76.5739025
  77.3702933  45.9581631  72.8329260  77.9782167  44.8955993  72.6791197
  77.6795393  47.0266550  72.1230205  77.3208983  47.9071474  72.4639150
  78.3920389  47.0208292  70.9023127  79.3361890  46.4949165  71.0440718
  77.5971987  46.3171542  69.7675261  77.2476041  45.3401159  70.1011113
  76.7400943  46.9584569  69.5620929  78.2889494  46.1007705  68.4665445
  79.0006114  44.9553106  68.3503219  79.0399952  44.3293648  69.2418042
  79.6527328  44.5597060  67.1999203  80.2501036  43.6495331  67.1466836
  79.5235695  45.3820947  66.0687127  79.9067381  45.0867482  65.0919568
  78.8691266  46.6340932  66.2265710  78.8890309  47.3656361  65.4187660
  78.1965039  46.9283932  67.4243336  77.5969143  47.8351652  67.5040622
  78.8065981  48.4042925  70.4302205  78.0538632  49.3517767  70.1443641
  80.1066783  48.5428528  70.2572106  80.7183531  47.7995494  70.5629117
  80.7154421  49.7854998  69.7547156  80.0938492  50.6475794  69.9966664
  82.0973662  49.9633918  70.4374793  82.3300848  49.5063219  71.3992633
  82.5663289  49.3879282  69.6393467  82.7588013  51.3288229  70.4344118
  84.0646645  51.6750530  70.8702867  84.0901357  52.9933320  70.9305249
  85.0539375  53.4693778  71.1109843  82.8371896  53.5324876  70.7451196
  82.5340439  54.4914424  70.8379006  82.0610791  52.5248328  70.4073885
  81.0158594  52.7028599  70.1545577  80.8067882  49.8631006  68.2107907
  81.7338177  49.3633093  67.5123081  79.7463072  50.4727249  67.6248792
  79.0582044  50.8085831  68.2835240  79.4644577  50.5934812  66.2319830
  79.4632793  49.6353173  65.7123487  78.0806562  51.1574349  66.1971331
  77.5386276  50.3808241  66.7367440  78.0062561  52.0979199  66.7430751
  77.4679497  51.3294849  64.7903923  78.1045402  52.0246709  64.2430626
  77.3436974  49.9903460  63.9849152  76.7068315  49.2947759  64.5314342
  76.9050537  50.1928144  63.0078282  78.3326911  49.5510077  63.8546321
  76.1529490  52.0842394  64.9004822  76.3320779  53.0648841  65.3413316
  75.7193271  52.2063726  63.9079315  75.4632299  51.5233996  65.5312319
  80.5247635  51.4127935  65.4952328  80.7728437  51.1947112  64.3061599
  81.0950247  52.4443567  66.1404495  80.8675184  52.6468789  67.1034267
  82.0759626  53.3144720  65.4530530  82.5459937  53.9682537  66.1877226
  82.8363176  52.6900092  64.9840052  81.3988823  54.1814930  64.3690462
  81.9703396  54.5388720  63.3285449  80.1389065  54.5726706  64.6271701
  79.6556730  54.1047087  65.3805600  79.4172500  55.5506383  63.8573778
  80.0579286  56.3849532  63.5718104  78.9299168  54.8548910  62.5911203
  79.8408129  54.5270912  62.0902063  78.3801775  53.9848886  62.9502615
  78.0544880  55.6409232  61.5999126  77.9458548  55.0391993  60.6975667
  77.0688975  55.8606084  62.0103380  78.7669022  56.9503754  61.2564857
  79.9924744  56.9930736  60.9767471  78.0751086  58.0029619  61.3131620
  78.2843960  56.1478178  64.7030536  77.6687261  55.5469476  65.6006484
  77.9148569  57.3669321  64.3882994  78.3903290  57.7764191  63.5968792
  76.9429665  58.1930035  65.1221482  76.9458689  57.9099821  66.1747591
  77.3038394  59.7304637  65.0106677  78.3582944  59.9559868  65.1699260
  77.0346250  59.9631943  63.9803958  76.5343081  60.6649444  65.8726383
  75.2920397  61.2731229  65.3588463  74.8928840  61.0804543  64.3630283
  74.6112815  62.1477407  66.2360732  73.6847229  62.5609902  65.8375576
  75.0219435  62.4846588  67.4783891  74.4490671  63.1833343  68.0881146
  76.2038413  61.9213749  67.9808290  76.6272019  62.2654664  68.9244746
  76.8534889  60.8862835  67.2420592  77.6007744  60.2577283  67.7263964
  75.5029199  57.9403758  64.6327995  74.9930169  58.6828683  63.7469730
  74.9050002  56.9132186  65.2074092  75.4253427  56.2765054  65.7938726
  73.4409699  56.6222901  64.9544412  73.3484092  56.1914024  63.9575121
  72.9316639  55.6198883  65.9626034  73.0715464  56.0480472  66.9551819
  71.4071723  55.2552927  65.7563964  71.2665735  54.8266204  64.7641398
  71.1009471  54.5310377  66.5112350  70.8014503  56.1564967  65.8514427
  73.6889317  54.3064280  65.8171746  74.7517220  54.4783964  65.9874854
  73.3159189  53.5885669  66.5476789  73.5418694  53.9110010  64.8121318
  72.5717877  57.9076303  64.9981182  72.6896517  58.5970908  66.0048492
  71.6370905  58.1594827  64.0851612  71.4930442  57.4336391  63.3977741
  70.7704994  59.3439655  64.0388657  71.0350614  60.0400392  64.8348478
  70.9521146  60.0525102  62.6858603  71.7477353  59.5375984  62.1473876
  70.0065255  59.9050812  62.1641076  71.2635867  61.5271906  62.7109970
  71.2847807  62.2244489  63.7068141  71.5710356  62.0725869  61.5323978
  71.7906437  63.0568527  61.4767836  71.5826976  61.4985778  60.7014476
  69.3074048  59.0233106  64.1059233  68.4934692  59.9241341  64.3233146
  68.9969794  57.7384523  63.8314747  69.7301055  57.0658387  63.6576459
  67.6207659  57.3657729  63.5009243  66.9482519  57.5015535  64.3479118
  66.9699160  57.9946236  62.2476015  66.8908081  59.0750350  62.3682349
  67.8500023  57.6819677  61.0472148  67.9292118  56.6016668  60.9256552
  67.4094614  58.1167013  60.1499797  68.8429621  58.1031456  61.2045096
  65.5155143  57.7232074  61.9338259  64.8938935  58.0746911  62.7573238
  65.2366515  58.2470194  61.0195196  65.3663170  56.6520209  61.7981772
  67.5328403  55.7714833  63.6047126  68.4526313  55.1078787  63.0393043
  66.4022733  55.2277685  64.0089715  65.6715270  55.8110461  64.3909356
  66.1313277  53.7402949  63.8571663  66.9553280  53.2220148  63.3667497
  65.9909466  53.2065357  65.2483658  65.4059903  53.9614769  65.7737125
  65.4671649  52.2513350  65.2850336  67.2611707  53.0296100  66.0265315
  68.2388521  52.2627319  65.4252445  68.0582741  51.9391721  64.4001589
  69.4421281  51.8924944  66.0860796  70.1611880  51.2513947  65.5761339
  69.7036339  52.3421575  67.3722016  70.6226448  52.1078374  67.9094287
  68.6925873  53.1535157  67.9961445  68.8627119  53.5229028  69.0074362
  67.4987018  53.4721666  67.3220190  66.7386206  54.0772921  67.8161844
  64.7738323  53.6149156  63.0963343  63.8924249  54.4456964  63.3193440
  64.5204458  52.4826035  62.4531443  65.1790196  51.7286264  62.5869293
  63.4608070  52.2986010  61.5080603  62.5381852  52.7325684  61.8934699
  63.8085101  52.9838410  60.1901079  63.8907595  54.0555188  60.3713288
  64.7685822  52.5993593  59.8458183  62.6988167  52.8018028  58.8408697
  63.4018885  53.5353481  57.9826740  63.1942614  50.8386315  61.3951160
  64.0280010  50.1290240  60.8567243  62.1011662  50.3172944  61.9644933
  61.5688456  50.8900410  62.6037862  61.6303849  48.9736149  61.6903119
  62.4784400  48.2961095  61.7897515  60.5012440  48.4907285  62.6247622
  59.6525408  49.1579779  62.7750300  60.1713503  47.5981545  62.0931779
  60.9274348  48.0544084  63.9471809  60.8679615  46.7232709  64.4341068
  61.1707369  46.8381257  65.7128692  61.1592524  45.9207418  66.3014047
  61.4440995  48.0988378  66.0601211  61.7486459  48.4099228  66.9714814
  61.2450167  48.9162155  64.9747300  61.3552840  49.9957056  65.0778973
  61.0420169  48.8725399  60.2434782  60.1446982  49.6562569  59.8833936
  61.6294224  47.8827523  59.5418364  62.2519761  47.2088082  59.9641227
  61.3624286  47.7753129  58.1282753  60.3350639  47.4282290  58.0180312
  61.4551091  48.7751076  57.7041052  62.2770429  46.8413530  57.3844006
  63.4129664  46.6931407  57.8296656  61.7743754  46.1876688  56.3435772
  60.7758820  46.2371812  56.1998459  62.5407312  45.2019846  55.5711897
  63.5948375  45.2541794  55.8436502  62.0266490  43.7807332  55.8642645
  62.1229349  43.5498279  56.9251656  60.9833698  43.6814552  55.5645773
  62.8308489  42.8708783  55.1026815  62.5355649  41.9715972  55.2629963
  62.7119505  45.5736548  54.0782791  61.7651321  46.0806810  53.4531700
  63.9196107  45.2904723  53.4806333  64.6748961  45.0329109  54.0997500
  64.1985224  45.3863250  52.0521899  63.5822712  46.1513203  51.5798385
  65.6837203  45.7811206  51.8931779  66.1901330  44.9416407  52.3695380
  66.0165998  45.8660211  50.8587297  66.0137680  47.0504830  52.6319205
  65.8202513  46.8755724  53.6902486  67.4497414  47.4916706  52.4481952
  67.6438945  47.6672329  51.3900926  67.6218403  48.4120359  53.0062369
  68.1191868  46.7139487  52.8157438  65.1442486  48.3142219  52.4597405
  64.1219244  48.0974454  52.7695154  65.5466675  49.1193050  53.0745588
  65.1492822  48.6195545  51.4133917  63.9182700  44.1294892  51.2340968
  63.6990628  44.2830208  50.0505608  63.8381336  43.0048524  51.9274337
  64.0567072  43.0958024  52.9092957  63.5581161  41.6306365  51.3834826
  64.0873932  41.5112273  50.4381221  64.0177676  40.4724932  52.3734547
  63.5849181  40.6593746  53.3562140  63.5515100  39.0838853  51.8585120
  63.9843582  38.8960821  50.8759269  63.8782783  38.3098269  52.5528869
  62.4641054  39.0695360  51.7847082  65.5308273  40.3808064  52.5601542
  65.9046983  41.3199872  52.9679064  65.7639582  39.5681974  53.2482067
  66.0052082  40.1887088  51.5977810  62.0787310  41.6135288  51.0677104
  61.2546235  42.0525957  51.9244321  61.6501239  41.0528907  49.9037551
  62.3598455  40.8062164  49.2288133  60.2274016  40.7336056  49.5835000
  59.5958894  41.6168129  49.4873941  60.3333380  40.0303392  48.1674368
  60.6637628  40.8022036  47.4723513  61.1112050  39.2730701  48.2652451
  59.0951083  39.4019299  47.6542730  59.3657478  39.0848985  46.6471254
  58.9694003  38.5249219  48.2892190  57.5200016  40.3281352  47.5899424
  58.0532424  41.2813019  46.1215704  58.2626990  40.5966200  45.2997203
  57.2610619  41.9697555  45.8273216  58.9540297  41.8460648  46.3618338
  59.5477556  39.7634191  50.5502438  60.1317876  38.7937930  51.0684492
  58.2429414  39.9679760  50.8183806  57.7613890  40.7254327  50.3552758
  57.5538133  39.2723836  51.9251180  58.2760626  38.9759908  52.6857798
  56.5279237  40.1922868  52.5624646  56.3125829  39.7497264  53.5350219
  57.0438764  41.1421971  52.7023336  55.1634822  40.4399303  51.7782910
  54.8353534  41.4548092  52.0029085  55.2793613  40.3262813  50.7004423
  54.0801139  39.4514865  52.2654142  54.2953959  38.3817047  52.7406506
  52.8672487  39.8472589  52.0660171  52.0950063  39.2632211  52.3534941
  52.6965724  40.7389827  51.6235246  57.0400990  37.9314691  51.5576514
  56.4323226  37.8292627  50.5045689  57.4005787  36.9384931  52.3588625
  57.8831592  37.1261269  53.2260470  57.3047123  35.5493010  51.9039120
  56.5892322  35.4827026  51.0843072  58.6467920  35.0429792  51.4171951
  59.1582463  35.8645956  50.9157371  59.2123140  34.7493597  52.3015437
  58.5815720  33.8473195  50.4575268  57.6302612  33.5258649  49.7480230
  59.6084857  33.1744370  50.4086238  59.6518738  32.3681860  49.8018481
  60.4041181  33.4309234  50.9754434  56.6149363  34.6338758  52.9294146
  56.8322333  34.6382066  54.1217137  55.6922416  33.7417118  52.4556985
  55.3642549  33.9193603  51.5171010  55.0584848  32.6664680  53.2203775
  54.8908704  33.0545142  54.2250789  53.6900445  32.1088375  52.6595108
  52.9760863  32.8498214  52.2999197  53.9833607  31.4580137  51.8358033
  53.0252726  31.2491704  53.7947486  53.4715792  31.5304278  54.7485859
  51.5077830  31.4760796  53.8533943  51.0606828  31.1945871  52.8999992
  51.0792490  30.8667008  54.6490807  51.3046561  32.5282584  54.0527927
  53.1104827  29.7428171  53.4599877  54.1559957  29.4501511  53.3633002
  52.6445311  29.1656718  54.2586702  52.5911054  29.5486942  52.5215515
  55.9936076  31.4449131  53.4981166  56.0421063  30.9334307  54.6510617
  56.8111145  31.0568337  52.5429585  56.7944570  31.5203988  51.6457800
  57.7446260  29.9754124  52.7362642  57.1789246  29.0860899  53.0140889
  58.2575154  29.7985072  51.7908815  58.7781463  30.2609376  53.8138885
  59.1511689  31.4008575  54.0597987  59.2458068  29.2240450  54.4722899
  58.7791284  28.3592452  54.2389836  60.3130506  29.1914002  55.4998789
  60.0912638  29.8883481  56.3080703  60.3896994  27.7942200  56.0739491
  60.3642699  27.1466369  55.1975425  61.3789404  27.7495643  56.5294798
  59.3139005  27.3127587  57.1114363  59.5605916  26.3218183  57.4925945
  59.3460806  28.0339713  57.9280856  57.8929732  27.2904777  56.4991208
  57.7501981  26.6470883  55.4486303  56.9388310  27.8478260  57.0812201
  61.7229015  29.6042944  54.9377040  62.2823676  28.8800293  54.0941711
  62.2670460  30.7077300  55.3346281  61.6229578  31.3159415  55.8197348
  63.6298474  31.1945758  55.0839761  63.7459109  31.2267410  54.0006507
  63.8659399  32.5900210  55.6395425  62.9054517  33.1034111  55.5948968
  64.4238155  32.6541074  57.1000532  65.3845769  32.1412896  57.1453875
  64.5541558  33.6954896  57.3943892  63.7218827  32.1702467  57.7792216
  64.8539862  33.1932194  54.8455354  65.0282496  34.0797116  55.1701339
  64.6552638  30.1806583  55.6407577  64.3286986  29.2232786  56.3488920
  65.9371384  30.3123507  55.2905772  66.1422837  31.0324324  54.6127150
  67.0149261  29.4982309  55.7626289  66.6344683  28.7475921  56.4553715
  67.6946796  28.7882710  54.6019204  68.0639890  29.5238625  53.8873472
  68.5286926  28.1929509  54.9735606  66.7779776  27.9590422  53.9780702
  67.2019527  27.5081479  53.2442178  68.0996204  30.2260386  56.5430975
  68.8289532  29.5895799  57.3574163  68.0659249  31.5404414  56.5519715
  67.5554605  32.0181098  55.8230281  68.9410878  32.3373978  57.4290686
  69.9122825  31.8467726  57.3645155  69.1041353  33.7872191  57.0276268
  69.5048903  33.8022589  56.0140838  67.7514139  34.6127037  57.0729370
  67.3502724  34.5985049  58.0863389  67.9436244  35.6429082  56.7732152
  67.0289631  34.1650620  56.3904546  69.9071228  34.5215720  57.8629447
  69.9603228  35.4251110  57.5429645  68.6249327  32.1811526  58.9527469
  67.4352954  32.2489476  59.2538148  69.6031810  32.1958079  59.9328751
  71.0706264  32.1492272  59.7852563  71.4049312  33.0163230  59.2156201
  71.3527471  31.2379472  59.2579274  71.5670311  32.1660604  61.2131411
  71.7239928  33.1880114  61.5582181  72.4963383  31.6043569  61.3078966
  70.4235476  31.4764863  61.9922644  70.3821701  31.5487408  63.0790791
  70.4264866  30.4268853  61.6982767  69.2294753  32.1795844  61.3841941
  68.3778777  31.5000648  61.4178514  68.8777553  33.4802097  62.1321212
  69.0298377  33.7064701  63.3303642  68.2680501  34.4012876  61.3425434
  67.9296223  34.0796930  60.4469191  68.0734375  35.8544754  61.7012522
  68.2371289  36.1618247  62.7341320  68.9391983  36.7264792  60.7883548
  68.5802505  37.7482988  60.9114051  70.4568897  36.6788892  61.0594523
  70.8166721  35.6573961  60.9361314  70.9727915  37.3326446  60.3562109
  70.6552364  37.0129473  62.0778650  68.6162241  36.5140762  59.3865340
  69.1743150  37.0733904  58.8412795  66.5382688  36.2026387  61.5142989
  65.8588763  35.6190018  60.6732395  66.0082961  37.1620909  62.3218993
  66.6989754  37.6591699  62.8659340  64.5795358  37.5103842  62.5124009
  64.0186951  37.4010798  61.5841717  63.9993738  36.5339407  63.5569444
  64.3180902  35.5617658  63.1809193  64.5653538  36.7786204  64.4557762
  62.4933759  36.4863523  63.8944629  61.8758174  36.8290529  63.0642348
  62.2793768  35.4368891  64.0967833  62.1405572  37.3048901  65.1359764
  62.9461230  38.0239119  65.7267635  60.8684156  37.2927508  65.5348429
  60.5931692  37.8204586  66.3508486  60.1857920  36.7559045  65.0191662
  64.4819987  38.9428128  62.9479694  65.2166448  39.4867708  63.7564307
  63.4153915  39.6013191  62.3916892  62.6970737  39.1098474  61.8792690
  63.2980743  41.0375868  62.5314959  62.2697865  41.3251737  62.3123680
  63.5390182  41.3074307  63.5597126  64.2393697  41.7907972  61.5843982
  65.2357877  41.2473999  61.0276786  63.9501892  43.0704220  61.3716783
  63.0827914  43.3327499  61.8176654  64.6616807  44.0991243  60.5343824
  65.7361441  43.9201603  60.5743777  64.2115343  44.0324104  59.0830649
  64.2862726  42.9958107  58.7544700  63.1707615  44.3531398  59.0380674
  65.0036565  44.8622790  58.2269829  64.6842558  44.7883048  57.3247019
  64.3831451  45.4577670  61.2156685  63.2450621  45.9589420  61.2208463
  65.4784117  46.0046759  61.8227219  66.1166227  45.3346430  62.2274960
  65.6536663  47.4960498  62.1871772  64.8602670  48.0393158  61.6738754
  65.6530931  47.9123469  63.6808306  66.6091056  47.6279597  64.1204476
  65.4489463  49.4128649  63.8380301  64.4928592  49.6979556  63.3990293
  65.4536148  49.6717529  64.8968293  66.2540013  49.9446941  63.3309347
  64.5752699  47.1877659  64.4594630  64.7451743  46.1126355  64.4017637
  64.6045191  47.5042686  65.5020896  63.5991688  47.4240791  64.0358080
  66.8174993  48.1282791  61.3746700  67.9560792  47.8566640  61.6637982
  66.4918448  48.8380376  60.2600948  65.5861020  48.6689935  59.8463879
  67.4640738  49.7104180  59.5153919  68.4124624  49.1871792  59.3934107
  66.9389774  50.0434738  58.1884795  66.1376686  50.7706814  58.3195238
  67.7484309  50.4949607  57.6148554  66.3801192  48.7734472  57.4079476
  66.1202998  48.0273785  58.1589311  65.1622861  49.0572402  56.5297892
  65.4214810  49.8029310  55.7782161  64.8479542  48.1379994  56.0355296
  64.3474512  49.4335218  57.1483007  67.5124290  48.2744655  56.5167648
  68.3691534  48.0041534  57.1340606  67.1775874  47.4004613  55.9581066
  67.8010748  49.0616018  55.8202025  67.8003577  50.8401515  60.4221163
  66.8934750  51.4508058  60.9288166  69.0577805  51.2492288  60.5774155
  69.7138382  50.6010873  60.1655902  69.5815388  52.3671054  61.3388583
  68.7632539  52.9754835  61.7240664  70.3690493  51.8705071  62.4708049
  70.6255319  52.6043106  63.2349046  69.6408953  51.1665472  62.8737096
  71.6504879  51.0644483  62.1861113  72.8943851  51.6807853  62.0508362
  72.9683130  52.7621699  61.9357629  74.0551910  50.8968396  62.0638350
  75.0072160  51.3959613  61.8832070  74.0216255  49.5164530  62.2984649
  74.9244347  48.9208723  62.4338125  72.7425590  48.8938115  62.3572915
  72.6881379  47.8075573  62.4293360  71.5591328  49.6578126  62.3237858
  70.5900196  49.1652804  62.4033580  70.3395313  53.3716453  60.4732810
  71.1447702  52.9555473  59.6328812  69.9997642  54.6850227  60.5843121
  69.3715165  54.9885925  61.3145515  70.5228813  55.6824552  59.6674218
  71.0063996  55.2012226  58.8172898  69.7210319  56.3288621  59.3106374
  71.5015615  56.4894167  60.3728126  71.3626117  56.7008890  61.5576558
  72.5040423  56.8692194  59.5872916  72.5368968  56.6567118  58.6004479
  73.6745347  57.4899435  60.2010815  73.4351933  57.9424003  61.1634212
  74.8289606  56.5357899  60.3904140  75.5198823  57.0117716  61.0862365
  74.4352997  55.1416076  60.9285847  73.7447032  54.6647854  60.2330153
  75.3288027  54.5259437  61.0320713  73.9543441  55.2493685  61.9007831
  75.5870707  56.3447494  59.2422335  76.3011364  55.7308075  59.4287429
  74.1773410  58.7736336  59.4826202  73.8208019  59.0431835  58.3078408
  75.0170268  59.5773629  60.2078375  75.1794125  59.4439636  61.1957316
  75.5661282  60.7884529  59.5652905  74.8692995  61.4142555  59.0077064
  76.1705630  61.6228031  60.7069911  76.7905309  60.9437166  61.2922949
  77.0203792  62.8431023  60.2593078  76.4009264  63.5229150  59.6743002
  77.4003817  63.3639411  61.1381852  77.8571467  62.5001702  59.6507689
  75.1083756  62.0815457  61.6978166  74.6174309  61.2114604  62.1337375
  75.5770934  62.6676414  62.4883197  74.3694641  62.6942565  61.1813904
  76.5081349  60.6197949  58.3889131  76.5136089  61.4059034  57.4479856
  77.3880460  59.5637359  58.3453037  77.4181816  58.8808445  59.0888429
  78.4105403  59.4839433  57.2767905  78.6754503  60.4707570  56.8971582
  79.6876911  58.8360997  57.9269785  79.2995862  58.0017198  58.5111738
  80.3988684  58.4632029  57.1899067  80.3962849  59.7666194  58.8415265
  80.5422981  60.9323077  58.4566762  80.9643288  59.4272851  59.9722958
  81.4258358  60.1294398  60.5327331  80.9380824  58.4651164  60.2783076
  77.8485978  58.7661454  56.0738039  78.6013928  58.2517800  55.2263920
  76.5227018  58.5079143  55.8805333  75.9223600  58.8384922  56.6224277
  75.9086874  57.8244631  54.7459560  74.9060495  58.2397666  54.6442728
  76.5018442  58.0899886  53.8708785  75.8123473  56.3445892  54.8337675
  75.1282564  55.8290966  53.9661886  76.4224547  55.7303926  55.8239263
  77.1071364  56.2126286  56.3885135  76.2398759  54.3430478  56.0306884
  76.2369259  53.8110775  55.0793219  77.4184744  53.8009929  56.9023334
  78.3557666  53.8719435  56.3504742  77.4965409  54.3754302  57.8253867
  77.1350304  52.3428733  57.2349650  76.5799927  51.9247337  56.3952073
  78.0985904  51.8403312  57.3192602  76.1954074  52.0840613  58.7555106
  77.3884223  52.1118300  60.0628152  77.8978449  53.0754349  60.0701054
  76.8853229  51.9601676  61.0177970  78.1178038  51.3170094  59.9067251
  74.8332157  54.1077612  56.6030800  74.3282233  54.8693389  57.4090447
  74.2491016  52.9775585  56.1768481  74.7703734  52.3878120  55.5439388
  72.9755820  52.4959617  56.6730631  72.6456268  52.9976636  57.5827465
  71.8908244  52.5722402  55.6384479  72.2596270  51.9793678  54.8014370
  70.4423843  52.0813167  56.0331256  70.0727015  52.6740723  56.8698311
  69.7732383  52.1997966  55.1808892  70.4802203  51.0308130  56.3214131
  71.7820493  53.9926454  55.0288039  71.8347367  54.6677280  55.8829633
  72.6801450  54.1051893  54.4214675  70.5324284  54.3372742  54.1733066
  69.6339105  54.2253996  54.7801422  70.6058109  55.3657698  53.8198790
  70.4793177  53.6628588  53.3186471  73.2195482  51.0323181  56.9023602
  73.5707615  50.3039578  55.9598575  73.0467621  50.6079989  58.1328463
  72.8740984  51.3279422  58.8198458  73.0834712  49.1730708  58.5948233
  73.4670139  48.6039939  57.7479787  73.8090205  49.1471390  59.4078455
  71.7628425  48.5283133  59.0779110  70.7195227  49.0661647  58.8329732
  71.8332553  47.3270946  59.6021291  72.7790774  46.9937820  59.7222231
  70.7472148  46.4582266  59.9885324  69.8095740  47.0034162  60.0966861
  70.5901008  45.4231803  58.8406494  70.4702265  45.9236357  57.8797780
  71.5636071  44.9341708  58.8760775  69.4904172  44.3791868  59.0106574
  69.5305693  43.9410380  60.0079107  68.1571153  45.0870147  58.8214280
  68.1160315  45.5250531  57.8241651  67.3447036  44.3694497  58.9362687
  68.0539863  45.8743990  59.5680811  69.5326248  43.4164789  57.9466734
  70.4989802  42.9122536  57.9503420  68.7397030  42.6821787  58.0887279
  69.3912865  43.9229622  56.9918974  70.9496731  45.7373605  61.2879868
  72.0715767  45.2097897  61.5144606  69.9669008  45.7287091  62.1554185
  69.2176528  46.3803402  61.9707464  69.9005179  44.9181157  63.3833296
  70.8763083  44.4562615  63.5337388  69.5917424  45.8294449  64.5974394
  68.6196601  46.3149292  64.5110671  69.5761138  44.8234996  65.8400350
  70.5480787  44.3379446  65.9273355  69.3640394  45.3778260  66.7542818
  68.8055526  44.0679418  65.6868376  70.6563410  46.9106046  64.8843217
  70.7530962  47.5649087  64.0179346  70.3536368  47.4984134  65.7508957
  71.6148237  46.4327283  65.0869200  68.8402318  43.7902136  63.2278039
  67.7648742  44.1847168  62.8169568  69.1327094  42.5358819  63.4610027
  70.1227003  42.3369505  63.4399383  68.1980929  41.4132892  63.6653769
  67.2001104  41.8490906  63.7123572  68.2319414  40.3650894  62.5034835
  67.3544003  39.7283129  62.6154544  68.2322450  40.9906793  61.1097525
  69.1097996  41.6272745  60.9968632  68.2565043  40.2025545  60.3571769
  67.3306479  41.5892005  60.9793852  69.4559302  39.6725240  62.6543502
  69.5357499  39.0098019  61.9644020  68.4507729  40.6942299  65.0082770
  69.4789524  40.8258595  65.6228455  67.4508405  39.8955446  65.4476594
  66.4988323  40.1750591  65.2588437  67.6761601  38.7324649  66.3184584
  68.2452821  38.9767488  67.2154115  66.2266939  38.2935376  66.7465478
  65.7246672  39.1942767  67.0997298  65.7347367  37.9347938  65.8424566
  66.1625299  37.3107614  67.7305365  65.2436556  37.1107302  67.9235578
  68.5508593  37.6121537  65.7390949  68.6047870  37.5090353  64.5344612
  69.1139939  36.7159177  66.5562237  69.1015335  36.9021525  67.5488267
  69.9139090  35.5642708  66.0657390  69.6479909  35.2893308  65.0450555
  71.4417281  36.0433065  66.0850947  71.5611100  36.8588972  65.3718914
  71.6645152  36.4039420  67.0892899  72.4134823  34.8950385  65.7223986
  72.3116327  34.1294163  66.4915216  72.1493317  34.2694567  64.3358442
  72.2514618  35.0344251  63.5661094  72.8699556  33.4723431  64.1530554
  71.1398210  33.8593139  64.3080687  73.8507711  35.3697997  65.6875326
  74.1293218  35.7588052  66.6669118  74.5033076  34.5357233  65.4294358
  73.9558785  36.1571441  64.9411143  69.5582477  34.3040969  66.8358660
  69.4903350  34.3751137  68.0598883  69.3507340  33.1426844  66.1187851
  69.4090959  33.1529431  65.1105252  69.0688969  31.8704729  66.7844177
  68.0686000  31.8978826  67.2165681  69.1410804  30.7143347  65.7991304
  68.3310474  30.7970227  65.0744867  70.0979604  30.7343132  65.2775159
  69.0187653  29.5201517  66.4947675  69.0634426  28.7850734  65.8789236
  70.1596724  31.6244077  67.9124261  71.3172938  31.5166358  67.6771672
  69.5656097  31.3009053  69.0605348  68.6014076  31.5605944  69.2121109
  70.3232016  30.7253862  70.1931063  71.1216853  31.4040171  70.4930782
  69.4150465  30.5150150  71.3559198  68.9577972  31.4676697  71.6232610
  68.6371554  29.8061335  71.0722430  70.2070930  29.9558299  72.5811848
  70.4841669  28.9413985  72.2943750  71.1036070  30.5725116  72.6449450
  69.5008986  29.9276741  73.9599922  70.0739880  29.6340387  75.0164167
  68.2962187  30.2098299  74.0169430  71.1265150  29.4363876  69.7278597
  72.2784002  29.2403772  70.0983814  70.4775699  28.6344867  68.8601972
  69.4945172  28.8179532  68.7186108  71.0720701  27.3919684  68.2362918
  71.6000162  26.8323713  69.0084466  70.0024939  26.4701239  67.6010922
  69.8776673  26.7810714  66.5638704  70.3899733  25.4517435  67.6304370
  68.7610797  26.5174224  68.2563353  68.1445859  25.9271969  67.8168252
  72.2256843  27.7968755  67.2666664  72.9026519  26.8932552  66.8242308
  72.5308466  29.0371349  66.9373922  71.9962467  29.7866880  67.3526902
  73.7461858  29.4124758  66.0083115  74.3527546  28.5339839  65.7882533
  73.1740767  29.9853445  64.6488478  72.2812355  30.6098301  64.6179997
  74.0262461  30.5518970  64.2734471  72.9441036  28.8540016  63.6743559
  71.8045393  28.6039020  62.9410174  70.9534855  29.2532468  63.1463429
  71.9982499  27.5263150  62.0569324  71.2725921  27.0982841  61.4998776
  73.3273766  27.1102677  62.1127426  74.0681437  26.0685098  61.4316512
  73.5499149  25.5993468  60.5953357  75.3353388  25.7242890  61.8422395
  75.8881735  24.8852870  61.4196886  75.9455065  26.5093948  62.8704891
  76.9599283  26.2804238  63.1970165  75.2910144  27.5644392  63.4776747
  75.8112220  27.9593728  64.3503215  73.9289294  27.9488521  63.1231087
  74.5771750  30.5405162  66.6130063  75.7687832  30.5842308  66.3237591
  74.0594187  31.3195990  67.5720222  73.0962700  31.1318590  67.8111825
  74.7460198  32.4021058  68.2672365  75.0691932  33.1565110  67.5499283
  73.7982914  33.0702090  69.2954291  72.9565150  33.3172377  68.6485221
  73.4771346  32.3529746  70.0507655  74.3113952  34.3597775  69.9917075
  74.0561356  35.6162701  69.3777092  73.3793637  35.6688168  68.5248797
  74.6625987  36.7736474  69.8572147  74.4997675  37.7584192  69.4192510
  75.4384596  36.6412605  71.0648664  76.0760234  37.7432904  71.5802802
  75.9352239  38.5364711  71.0581312  75.6907451  35.4164688  71.7154871
  76.2768304  35.3252503  72.6299725  75.1330786  34.2627408  71.1142377
  75.3434817  33.2766297  71.5282612  76.0004696  31.9442421  69.0169248
  77.0893308  32.4334182  68.7630625  75.8961995  30.9409122  69.8952488
  74.9619497  30.7092330  70.2011921  77.0610767  30.4109660  70.6918398
  77.6407386  31.2559617  71.0634221  76.6178108  29.5332722  71.9110485
  76.1147883  28.6199164  71.5934815  77.5725015  29.2801532  72.3721305
  75.7400393  30.2393781  72.9556061  76.1917191  31.1827236  73.5848197
  74.4717178  29.8432654  73.0133072  73.8427854  30.2687366  73.6792787
  74.1433093  29.1188051  72.3908878  78.2028848  29.8811745  69.7888868
  79.3396691  30.2284494  69.9652772  77.8961146  29.1840296  68.7177089
  76.9671746  28.7906456  68.6685282  78.8810468  28.7903459  67.6838720
  79.7898294  28.4007620  68.1426071  78.2577865  27.6872972  66.8156375
  77.8543032  26.9039737  67.4572798  77.4442922  28.1612797  66.2663948
  79.2522100  27.0740455  65.8258101  80.2314869  27.1175782  66.3024888
  78.9547036  25.6446130  65.4115172  77.9757160  25.6003586  64.9343132
  79.7159859  25.3031309  64.7101329  78.9584380  25.0022844  66.2921423
  79.3651053  27.7129005  64.5144692  79.6794479  28.7489724  64.6403394
  80.1018753  27.1807698  63.9127150  78.3982217  27.6855982  64.0119857
  79.4089771  30.0809145  66.9406626  80.6096520  30.0275838  66.6424152
  78.5185170  31.0042251  66.5838315  77.5227607  30.8702024  66.6868200
  79.0047944  32.1969092  65.7809088  79.7799023  31.9006135  65.0741445
  77.8175688  32.7613499  64.9966334  76.9604398  32.8391185  65.6654991
  78.0721578  33.7507214  64.6165959  77.4606256  31.8188987  63.7992278
  77.4720510  30.7815093  64.1335834  76.0422232  32.1774958  63.2712953
  76.0301394  33.2146722  62.9363059  75.7885438  31.5237273  62.4368289
  75.3125571  32.0457506  64.0702516  78.4763458  31.9707718  62.6579951
  79.4717291  31.7136306  63.0201968  78.2052217  31.3050434  61.8386059
  78.4742297  33.0016181  62.3038055  79.8215586  33.2394835  66.6278333
  80.7255057  33.8003814  66.1146607  79.5262385  33.3563678  67.9449582
  78.6426157  32.9904547  68.2696391  80.4430390  34.0359711  68.9567276
  80.4826033  35.1089759  68.7691250  79.8909891  33.8002113  70.4083774
  78.8799945  34.1877045  70.5342269  79.8658880  32.7105562  70.4194163
  80.7898921  34.3097474  71.5716948  81.8159743  33.9913247  71.3876753
  80.7405172  35.8196312  71.6708259  79.7147527  36.1388019  71.8553144
  81.3768455  36.1514025  72.4912616  81.0943536  36.2573157  70.7373739
  80.1763120  33.8800788  72.9460177  80.1115139  32.7929619  72.9915970
  80.8105810  34.2400166  73.7561096  79.1789385  34.3076126  73.0487797
  81.8816557  33.5067571  68.8694322  82.7682881  34.3480439  68.9747572
  82.0932705  32.1990432  68.8525600  81.2612218  31.6424581  68.9867518
  83.4110144  31.4911667  68.7324239  84.1132149  31.8606527  69.4797484
  83.1919587  29.9740450  68.9656881  82.8232391  29.8763658  69.9867678
  82.4317420  29.6190085  68.2699010  84.4456453  29.1508129  68.8032112
  84.2943554  28.0478798  68.2419733  85.5649310  29.5120457  69.2229080
  84.0270299  31.7965445  67.3640913  85.2380138  32.0333866  67.2020145
  83.2118658  31.7161461  66.2059339  82.2921708  31.3103809  66.3039906
  83.6821576  32.1025935  64.8187504  84.5644419  31.5315470  64.5296492
  82.5553064  31.7873957  63.8401659  82.3370281  30.7302473  63.9914638
  81.7096999  32.3848495  64.1808984  82.7965044  32.0479453  62.3631674
  81.8312518  31.9084798  61.8764049  83.0911061  33.0949250  62.2914367
  84.0291506  31.0281932  61.5365435  82.9597927  29.8840118  60.7437614
  82.2921877  30.4181905  60.0677026  83.5516796  29.1656085  60.1766042
  82.3705300  29.3567266  61.4939887  84.1584039  33.6040320  64.7408023
  85.1579453  33.8253025  64.0586298  83.5423339  34.5918818  65.4255742
  82.5980151  34.4766332  65.7648072  84.2083121  35.9274044  65.6105781
  84.2708361  36.4670122  64.6655842  83.3443657  36.7654786  66.6081863
  82.3070841  36.5308766  66.3692134  83.5838557  36.3819942  67.5999948
  83.5421447  38.2861110  66.5869622  84.5064482  38.5727731  67.0065387
  83.5095575  38.5597421  65.5323693  82.4483630  39.0457392  67.3199046
  81.8067001  39.8894904  66.7434824  82.0977653  38.7531290  68.5995106
  81.3655018  39.2810071  69.0525408  82.5709746  38.0090437  69.0919651
  85.6980087  35.7421315  66.0807451  86.6304068  36.3523864  65.5395828
  85.9795166  34.9569210  67.1416540  85.2489155  34.6700136  67.7772683
  87.3838592  34.7126513  67.5322091  87.9427223  35.6466329  67.5909419
  87.3795859  34.0534509  68.9238015  86.9285861  33.1295572  68.5616980
  88.3684128  33.8397601  69.3295819  86.5182468  34.6096270  70.0244663
  86.5342398  35.8164129  70.3652493  85.9307177  33.7920143  70.8491723
  85.3507830  34.1577981  71.5907771  86.0574607  32.7955639  70.7437041
  88.2467191  34.0429459  66.5174616  89.3035084  34.5680930  66.1248676
  87.6620475  32.9903817  65.9129547  86.7155193  32.7265544  66.1465761
  88.4070505  32.1429622  65.0015099  89.3317898  31.7844488  65.4536433
  87.5149895  30.9343253  64.6850085  86.5378661  31.3703377  64.4771092
  87.9336053  30.5266994  63.7648443  87.3608665  29.7888247  65.7397727
  88.3330949  29.3553490  65.9742330  86.9048726  30.1721378  66.6525940
  86.4668619  28.7259223  65.1373348  85.5544102  29.1889335  64.7616336
  86.9890498  28.2346657  64.3163074  86.1039715  27.7145395  66.1355073
  85.2371611  27.9648484  66.5894727  86.6884350  26.5364459  66.4624613
  87.7002977  26.1061539  65.8520422  88.0969315  26.6450641  65.0954990
  88.1113713  25.2237675  66.1213232  86.1707968  25.9589125  67.4860647
  85.3956251  26.3914501  67.9678534  86.5413300  25.0749175  67.8044303
  88.8521767  32.9607468  63.7688316  89.7630116  32.6826059  63.1220198
  88.1518437  34.0470536  63.4442021  87.2751768  34.0815034  63.9445698
  88.3933822  35.0286309  62.4284984  88.9467397  34.5779397  61.6046221
  87.0785344  35.5760124  61.8897074  86.4908793  35.8212929  62.7743531
  87.2335067  36.4768059  61.2958600  86.3158419  34.5163642  61.0368048
  86.2317501  33.5945651  61.6124053  84.9092424  35.0224021  60.6709338
  84.9925371  35.9439919  60.0948843  84.3944712  34.2679545  60.0760219
  84.3430613  35.2141779  61.5823949  87.0393644  34.0798593  59.7621332
  88.0020168  33.6399428  60.0226583  86.4343041  33.3424319  59.2346828
  87.1981876  34.9456479  59.1192613  89.3640083  36.0724946  62.9443069
  90.4023231  36.2674882  62.3777551  89.1822954  36.6773889  64.0775417
  88.2776958  36.4999499  64.4902334  90.0703608  37.6734711  64.7292827
  90.2132690  38.5421760  64.0866100  89.4126151  38.1335196  66.0360183
  88.4653253  38.5812999  65.7356283  89.2206444  37.2832694  66.6904814
  90.2155500  39.1674257  66.8063685  91.4379858  39.2592983  66.8355604
  89.5456597  39.9730544  67.5403320  90.0262348  40.6819304  68.0757219
  88.5393910  39.8963920  67.5809153  91.4796893  37.1993293  64.9109766
  92.4239697  37.8931290  64.5217126  91.5737060  35.9167788  65.2518508
  90.6891184  35.4573545  65.4147420  92.7832935  35.1568678  65.4413849
  93.4200325  35.6312819  66.1881070  92.4087010  33.7167762  65.9432410
  91.4512944  33.4139100  65.5192788  93.1794808  33.0072483  65.6422945
  92.3089561  33.7395441  67.4197821  93.2747466  34.0428623  67.8239450
  91.5519044  34.4716089  67.7009510  91.9398010  32.4130014  67.9665169
  91.3241127  32.5179678  68.8598304  91.4040424  31.8215424  67.2240626
  93.2067012  31.7329230  68.3179645  93.7200800  31.4078971  67.4130331
  93.8517908  32.4101623  68.8777015  92.8870337  30.5565655  69.1516860
  92.2896360  29.9286870  68.6330489  93.7411602  30.0789966  69.4016778
  92.4117003  30.8575632  69.9904694  93.6316964  35.0435471  64.1830189
  94.8361263  34.8103235  64.3249640  93.0361739  35.1505396  62.9550887
  92.0428250  35.3201175  63.0229163  93.6110188  34.8286662  61.6109218
  94.6975879  34.7423074  61.6079190  93.0181144  33.5298643  61.0806994
  91.9485958  33.5414772  61.2906859  93.2411512  33.3458501  59.5738307
  94.3105199  33.3336726  59.3631099  92.7973291  32.4035050  59.2527260
  92.7742746  34.1694665  59.0336606  93.5467263  32.3158656  61.8450931
  93.2853657  32.4076191  62.8993103  93.1014434  31.4077983  61.4386000
  94.6307734  32.2654493  61.7431086  93.6095995  35.9954478  60.6072133
  94.6721552  36.1799876  59.9930265  92.4879803  36.7152578  60.4418136
  91.7180440  36.5875712  61.0829014  92.2956880  37.6276294  59.2798520
  92.6558584  37.2981202  58.3052751  90.7628363  38.0453065  59.1655655
  90.4070759  38.3270436  60.1566049  90.5666359  39.2441947  58.1815419
  90.9217667  38.9630350  57.1901126  89.5088881  39.5019750  58.1284400
  91.1322658  40.1046419  58.5390228  89.8870024  36.8560510  58.9244235
  90.0778477  36.1543609  59.7364024  88.8565618  37.2066414  58.9825446
  90.1151862  36.1475184  57.5657434  91.1453543  35.7962185  57.5070752
  89.4369091  35.2986217  57.4796399  89.9240704  36.8485003  56.7532171
  93.2363909  38.8324916  59.4129503  93.3592547  39.3298916  60.4965566
  93.9095484  39.2753212  58.3669494  93.8510991  38.6789866  57.5538885
  94.7191815  40.4675213  58.2844314  95.4648024  40.4698861  59.0795056
  95.4719799  40.5154638  56.8798842  94.7815781  40.2755262  56.0712590
  95.8981155  41.5045052  56.7116414  96.5873592  39.4830145  56.9165761
  97.1041426  39.5684966  57.8724676  96.1417434  38.4918309  56.8324123
  97.5772027  39.6891651  55.7872321  97.8155852  40.7467535  55.6741855
  98.4933739  39.1285678  55.9728670  96.9098847  39.1709111  54.4937788
  96.5812435  38.1465876  54.6694397  96.0439132  39.7989526  54.2845983
  97.8381244  39.2014275  53.3287617  98.6404171  38.6191892  53.5222165
  97.3607359  38.8552155  52.5087998  98.1424337  40.1505633  53.1655555
  93.8691157  41.7496910  58.4588850  92.6967477  41.8352044  58.0094212
  94.4254577  42.8326931  59.0355358  95.1996687  42.7212126  59.6744949
  93.8294649  44.1591248  58.8942397  93.2192771  44.1998318  57.9919576
  92.9274729  44.4699730  60.1169395  92.2634000  43.6240028  60.2942548
  93.5564983  44.6273153  60.9931076  92.1721758  45.6083239  59.8801984
  91.6189222  45.7897112  60.6434867  94.8453889  45.2469386  58.6127907
  95.8592827  45.2523930  59.2701578  94.4536098  46.1217991  57.6704446
  93.6082151  45.9437397  57.1472792  95.2251519  47.3297938  57.3556926
  96.2252012  47.0685241  57.0096599  94.4832504  48.1053236  56.2078064
  93.4320979  48.1459807  56.4933318  94.9960814  49.5329875  55.9317703
  96.0471204  49.4930974  55.6457166  94.4165235  49.9777203  55.1228043
  94.8876511  50.1388353  56.8313774  94.5964136  47.3840344  54.8619141
  94.1536774  46.3912871  54.9427808  94.0694196  47.9551584  54.0975881
  95.6468185  47.2914577  54.5859069  95.3831562  48.2468548  58.5662390
  94.4014123  48.3699713  59.2864357  96.6485873  48.7843837  58.8033126
  97.3223689  48.5635098  58.0840544  97.0794390  49.5886489  59.9198781
  98.0678879  49.9962739  59.7079590  96.3736147  50.4062245  60.0664441
  97.1495678  48.7462206  61.2146929  97.6276699  49.2528562  62.2264773
  96.8337201  47.4357587  61.1852995  96.2534090  47.1991859  60.3932315
  97.0452486  46.4150044  62.2254246  96.5787949  45.4780339  61.9211113
  98.5120427  46.1731457  62.4411225  98.9875149  47.1418793  62.5946818
  98.6183051  45.5698450  63.3426970  99.1687499  45.4712135  61.2900795
  98.7957037  44.4603466  61.1255024  99.1249182  46.0307335  60.3556716
 100.6201394  45.4065904  61.7789336 100.9173849  46.4241775  62.0324302
 100.6269407  44.7917619  62.6789553 101.6015937  44.8284097  60.7599887
 101.1254963  43.9561264  60.3121564 101.7582388  45.5889882  59.9950823
 102.9532205  44.4211411  61.3599081 102.8083317  43.7160657  62.0684105
 103.5465532  44.0498307  60.6317701 103.3947423  45.2293645  61.7745557
  96.2451835  46.6777362  63.4867472  96.6804911  46.1796675  64.5427339
  95.1928895  47.3869174  63.4130157  95.1071546  47.9706977  62.5932905
  94.1757035  47.5519041  64.5205775  94.6527943  47.8081348  65.4665317
  93.1725900  48.6739760  64.1252740  92.4749971  48.3651724  63.3467466
  92.3923009  48.9103814  65.4601686  93.0892126  49.2196823  66.2391087
  91.6449436  49.6898005  65.3116303  91.8982313  47.9866346  65.7613101
  93.8534135  49.9595151  63.5859870  94.5713107  50.2994793  64.3324110
  94.3799640  49.7021559  62.6669602  92.8769410  51.0429058  63.3096122
  92.3502915  51.3011453  64.2283355  93.4035671  51.9203874  62.9343918
  92.1589431  50.7038207  62.5628859  93.5202599  46.2068560  64.9267760
  93.4728360  45.2166163  64.1756933  93.2838290  46.0391399  66.2391288
  93.8161830  46.6861750  66.8030829  92.4626388  45.0183143  66.9285391
  92.6471781  44.0171043  66.5391510  92.8978240  45.0573442  68.4527383
  93.9773044  44.9068646  68.4660481  92.6669270  46.0606858  68.8106381
  92.2285759  44.0258896  69.3614899  92.8837579  44.0957661  70.2297955
  91.1924101  44.1444900  69.6783394  92.4007139  42.6947376  68.7159220
  91.3900299  41.9374696  68.6992201  93.5234907  42.1897595  68.4033385
  90.8780864  45.1939970  66.7323271  90.2860508  46.1891999  67.1984731
  90.2468947  44.2914068  66.0225934  90.7539518  43.5330283  65.5891717
  88.7820945  44.3111645  65.8985533  88.4442797  45.1887951  65.3474227
  88.3612100  43.0394502  65.1128835  88.6426045  43.2312560  64.0774479
  88.8274539  42.1136827  65.4500350  86.8758193  42.8000205  65.1179787
  86.2242010  42.0296390  66.0516103  84.9562145  42.1513940  65.7996956
  84.2431046  41.6321971  66.4400142  84.7679246  42.9411277  64.7354783
  83.8679173  43.1610922  64.3333559  85.9710645  43.4066346  64.2720780
  86.0007820  44.0892282  63.4227936  88.0749599  44.2199098  67.3734629
  87.0315223  44.8690709  67.6168326  88.6891327  43.4550540  68.3148027
  89.4398335  42.8215004  68.0799466  88.0836777  43.3515957  69.6440711
  87.0099001  43.2575757  69.4820180  88.5407496  42.2133589  70.5377984
  87.8681053  42.2704435  71.3935963  88.3127232  41.3202380  69.9560432
  89.8706669  42.1505576  70.9906360  89.9850054  41.3720446  71.5405852
  88.1022698  44.6927029  70.3505481  86.9768811  45.1342591  70.7440318
  89.2529654  45.4084714  70.3508931  90.0867886  44.9817091  69.9731204
  89.3500338  46.7384609  70.8820906  89.1384549  46.7307529  71.9513306
  90.7392196  47.2748409  70.6709003  91.5046453  46.5689062  70.9932028
  90.8645517  47.4860879  69.6089368  91.0056457  48.5560292  71.3965880
  91.1771334  49.7572174  70.6753973  91.2456958  49.6977918  69.5891802
  91.2592723  50.9983068  71.3142559  91.2893325  51.9105432  70.7184188
  91.3034781  51.0741609  72.7306216  91.4572220  52.0187484  73.2523659
  91.1444822  49.9023993  73.4519843  91.0887788  49.9458152  74.5396940
  91.0566816  48.6868040  72.8045238  91.0231898  47.7629263  73.3819563
  88.3531952  47.6847847  70.2268386  87.8772276  48.5876588  70.8849185
  88.0432633  47.5594874  68.9636883  88.5749966  46.8448328  68.4876339
  87.1699500  48.4106700  68.1725479  87.3219475  49.4662612  68.3977660
  87.5412688  48.1625185  66.6890857  88.3058219  48.9214226  66.5228860
  87.9587873  47.1763303  66.4860803  86.4454440  48.4026879  65.6341166
  85.9475301  47.3758682  64.8590832  86.2734685  46.3636639  65.0984708
  85.1363021  47.8669799  63.9406228  84.6377626  47.3004929  63.2693178
  85.0769546  49.2759075  64.0302992  84.4404586  50.3177355  63.2953718
  83.8749228  50.0068951  62.4169379  84.5619893  51.6272452  63.7107109
  84.0392511  52.4223562  63.1790688  85.3724295  51.9647146  64.8414961
  85.5295854  52.9835341  65.1956263  85.9955766  50.9331162  65.5283386
  86.5959689  51.2668371  66.3746601  85.8872071  49.5726186  65.1478279
  85.6519058  48.2799988  68.4886854  85.0055657  49.3084245  68.6335616
  85.1464126  47.0273176  68.6611977  85.7438545  46.2727060  68.3550541
  83.8018151  46.7042821  69.1049606  83.1036599  47.4670068  68.7600990
  83.3588301  45.3248228  68.5264830  84.0397531  44.5995231  68.9718853
  82.3532205  45.1648108  68.9153861  83.3511668  45.1491245  66.9973131
  84.3357382  44.8553845  66.6333944  82.6151950  44.4045881  66.6938117
  82.9585833  46.5649866  66.3817430  82.2332609  47.0603985  67.0271681
  83.8483256  47.1880161  66.2906810  82.3732289  46.3980955  65.0691820
  82.5935416  45.5074993  64.6468077  81.7626449  47.3237069  64.3236118
  81.5334763  48.5434189  64.7175895  81.8243288  48.8361428  65.6394450
  81.0659371  49.1910717  64.0994855  81.1705612  46.9398717  63.1795352
  81.1952197  45.9688299  62.9028226  80.7037101  47.6242478  62.6017998
  83.6262723  46.7788034  70.5985390  82.4877900  46.6392491  71.0249481
  84.5976425  46.9141697  71.4903578  85.5434563  46.8401853  71.1438585
  84.3904764  46.9709044  72.9457576  83.6374232  46.2364697  73.2314422
  85.6957078  46.6653897  73.7159638  86.2940987  45.9830257  73.1123025
  86.2376293  47.6015783  73.8500243  85.4443468  46.0783596  74.9846617
  86.2780731  45.9053667  75.4280280  83.7116125  48.2425292  73.3857159
  84.0334872  49.3292783  72.9489974  82.7875735  48.1382566  74.3119352
  82.6793263  47.2438716  74.7685064  81.8181907  49.2289549  74.6482286
  81.4223346  49.7033913  73.7502824  80.6628260  48.5791742  75.4066317
  80.3536049  47.6955361  74.8483619  81.1001955  48.2732337  76.3570045
  79.4418406  49.3207576  75.7268968  79.0823370  49.7799434  76.9742787
  79.7235535  49.5675956  77.8297610  77.8695674  50.5355157  77.1534275
  77.6125835  50.9213703  78.1399245  77.0328613  50.7718567  76.0797810
  76.1518833  51.3967825  76.2262238  77.2980343  50.2293237  74.8323075
  76.5976960  50.2348139  73.9970852  78.5642938  49.6454627  74.6818479
  78.9394471  49.4063834  73.6867595  82.5813718  50.3280223  75.4076866
  83.1888866  50.0160421  76.4163789  82.5049874  51.5573806  74.9156942
  82.0925266  51.6399911  73.9974617  83.1258944  52.7137626  75.4873700
  83.0200170  52.7046727  76.5721772  84.6740582  52.7099691  75.1281506
  85.2335307  51.8442230  75.4825142  84.8311560  52.8295084  74.0561755
  85.2621089  53.8745723  75.7667434  86.3915890  54.5471953  75.2360664
  86.7380889  55.5292808  76.1030328  87.6179926  56.1545954  75.9518698
  85.8360660  55.5256518  77.0605439  85.8120979  56.2006629  77.8114669
  84.9839188  54.5383531  76.9078237  84.2062529  54.3694967  77.6526891
  82.3918597  53.9913243  75.1686334  82.6583520  54.6341612  74.1544206
  81.2864087  54.1898272  75.9118835  81.0115655  53.4247096  76.5111795
  80.4172137  55.3482814  75.8334052  80.2327879  55.6956620  74.8168360
  79.0561917  55.0461966  76.5077094  78.3672920  55.8123271  76.1519545
  78.4535704  53.6429630  76.2358717  79.1417468  52.8762649  76.5918028
  77.5022411  53.5478946  76.7593540  78.2926620  53.5172771  75.1651653
  78.9977123  55.2156562  77.9196307  78.1148818  55.0031000  78.2311278
  81.0798758  56.6016998  76.4105977  82.2787267  56.6046758  76.8440212
  80.2602426  57.6621589  76.4457090  79.4620038  57.7013585  75.8281513
  80.6075351  58.8442609  77.1865137  81.6046182  59.1868697  76.9098483
  79.5860454  59.9726673  76.8618374  78.5915060  59.6124789  77.1250007
  79.8331674  60.8378067  77.4771135  79.6092230  60.3843005  75.3476518
  79.8451269  59.4073727  74.9256775  78.6520967  60.7275824  74.9550120
  80.7019659  61.3802427  74.9665612  81.8323231  61.0109642  75.1313822
  80.4508376  62.6216147  74.6858725  80.8634483  58.6821229  78.7172680
  81.4735305  59.5919947  79.2783331  80.3599246  57.6100623  79.3917130
  79.8533696  56.9304739  78.8424763  80.4886993  57.3807913  80.8392688
  81.3037999  57.9408927  81.2975227  79.1649727  57.9131435  81.3826830
  79.0505941  58.8809785  80.8945108  78.4216599  57.2189519  80.9906572
  78.9632472  58.0773676  82.9019688  78.0125374  58.5883766  83.0540264
  78.9121556  57.0790837  83.3366192  80.0902378  58.8766984  83.5833846
  79.7918843  59.0873652  84.6103723  80.9934833  58.2665829  83.5858676
  80.3746202  60.1121605  82.9271331  79.6543693  60.3446009  82.2583212
  81.3513296  60.8726139  83.0349262  82.2887279  60.8036076  83.9753428
  82.2383523  60.0841802  84.6824401  83.0468613  61.4709341  83.9782850
  81.4456676  61.8019199  82.2283366  80.7413079  61.9201809  81.5141994
  82.2267652  62.4395860  82.2863652  80.6977996  55.9046879  81.2150142
  80.9435348  55.6250352  82.3923258  80.7110690  54.9759203  80.2483474
  80.7139147  55.2031644  79.2642481  80.7469273  53.5403632  80.6413615
  81.1799763  53.3920742  81.6305925  79.2403681  53.0840207  80.6780596
  78.6890430  53.9267156  81.0951991  78.9519260  52.9415414  79.6366179
  78.9234503  51.8470094  81.4564588  79.5220821  51.0346334  81.0444078
  79.2153932  52.0238836  82.4916336  77.4136638  51.4594856  81.4014042
  76.9532378  52.2363376  82.0118203  77.1694629  51.6296164  80.3528238
  76.9000330  50.1351184  81.8188020  77.4514509  49.3499869  81.3014943
  77.0252578  50.0175575  82.8951836  75.4613171  50.0365105  81.4753578
  75.3451046  50.1449890  80.4779478  75.1085627  49.1336837  81.7592031
  74.9501186  50.7636799  81.9549409  81.5181634  52.6335817  79.6434356
  81.2713706  52.7186213  78.4138684  82.2834237  51.7558183  80.2832286
  82.2199791  51.6306036  81.2834263  83.2063701  50.9172278  79.5423980
  83.0170364  51.1650570  78.4979687  84.6563748  51.3230763  79.8912967
  84.7033295  51.4042606  80.9772547  85.7253826  50.3690655  79.4111618
  85.6793493  50.2877177  78.3251769  86.7058766  50.7431744  79.7057345
  85.5631199  49.3871715  79.8557465  85.1068859  52.4889616  79.2243064
  86.0100658  52.6796250  79.4879611  83.0743144  49.4359399  79.9020264
  83.1058001  49.0786853  81.1138217  82.7314909  48.6096940  78.9085986
  82.8244955  48.9233187  77.9530417  82.1608364  47.2960199  79.1496957
  82.6079421  46.9061420  80.0641304  80.6223795  47.2719211  79.3026779
  80.2819857  47.4897524  78.2903633  80.4254894  46.2251707  79.5342984
  79.8631077  48.1750395  80.3083778  80.2173127  49.1882663  80.1186122
  78.8086169  48.1034516  80.0418752  80.0315898  47.8548800  81.7415256
  79.6628604  48.7161894  82.5245989  80.5354605  46.7519103  82.1446847
  82.5248682  46.2891993  78.0619153  82.6274255  46.6270346  76.8849963
  82.7222988  45.0237010  78.3992121  82.8841237  44.5964776  79.7607707
  82.2351928  45.1999778  80.3954174  83.9227440  44.7499223  80.0537239
  82.4950069  43.1304400  79.7565529  81.4190234  43.0259444  79.8959772
  83.0172393  42.6000957  80.5528629  82.9300244  42.6228023  78.3898057
  82.2884183  41.8293401  78.0065845  83.9668149  42.2864868  78.3822713
  82.7774463  43.9083680  77.5014332  83.6666133  44.0292898  76.8826778
  81.5042242  43.7848210  76.5740790  80.3966986  43.7098634  77.1192481
  81.7445879  43.8246207  75.2559856  82.6819914  44.0159100  74.9322847
  80.6749109  43.6457042  74.2453931  79.9412711  44.4339452  74.4143546
  81.2598673  43.8147503  72.8408116  81.9897023  43.0271472  72.6534019
  80.4597592  43.7509245  72.1033474  81.7472272  44.7867115  72.7641898
  79.9499906  42.2858856  74.3117626  80.5858868  41.2717944  74.5426808
  78.6109581  42.1809102  74.1377311  78.1726771  43.0620975  73.9107551
  77.7277120  40.9760188  74.3482688  78.1898247  40.0907797  73.9113444
  77.4713326  40.7138206  75.8087505  78.4293582  40.6341279  76.3224977
  76.6348570  41.8622195  76.4462005  75.6764342  41.9422198  75.9332432
  76.4649209  41.6463149  77.5010019  77.1768694  42.8031213  76.3511894
  76.7761368  39.4834458  76.0529590  76.6429390  39.3731574  76.9972551
  76.3787712  41.1259460  73.5223666  76.1723319  42.1926873  73.0064909
  75.5185408  40.1019155  73.4676844  75.7520342  39.2605366  73.9752882
  74.2752580  40.1327353  72.7235366  73.8766725  39.1212909  72.8023352
  73.6346462  40.8192976  73.2770238  74.2940600  40.5465492  71.2528723
  73.1970581  40.6257369  70.7259880  75.4007455  40.6690834  70.5535158
  76.2106613  40.3200201  71.0457461  75.5781228  41.1490260  69.1361046
  74.6668257  40.8935375  68.5953991  75.8489273  42.6761777  68.9633754
  76.4868342  42.8248551  69.8346210  76.3661947  43.0278776  68.0707155
  74.6351376  43.5832905  69.1507976  73.7379584  43.9326206  68.1442217
  73.9011165  43.4080855  67.2027642  72.6979607  44.8618220  68.2562156
  71.9932530  45.0460675  67.4453263  72.5791805  45.5669465  69.4616402
  71.7832601  46.2962612  69.6123414  73.5103101  45.3196198  70.4873127
  73.4434795  45.8883057  71.4147987  74.5165290  44.3541341  70.3269822
  75.2377519  44.1807951  71.1256630  76.7833020  40.5562129  68.5696474
  77.7537060  40.4137882  69.2784191  76.6345724  40.3005040  67.2533217
  75.7383584  40.3751954  66.7936250  77.7415807  39.7079214  66.5157054
  78.6395935  39.9302145  67.0921237  77.6135282  38.1574618  66.3259093
  76.7208864  37.9061775  65.7530680  78.8730858  37.7070686  65.5431062
  79.7661753  37.9576179  66.1155717  78.8356051  36.6296450  65.3823138
  78.9045626  38.2167397  64.5801192  77.5819189  37.3592504  67.6715595
  78.5659740  37.4703055  68.1269749  76.8335236  37.8370218  68.3038081
  77.2544181  35.8815694  67.5274099  78.0026914  35.4029936  66.8956250
  77.2551940  35.4111146  68.5106550  76.2702413  35.7697101  67.0724557
  77.9791970  40.4510882  65.2361248  77.0319117  40.7576559  64.4984983
  79.2290763  40.7179969  64.8669222  79.9926066  40.2232423  65.3054864
  79.5488755  41.7032353  63.7910283  78.8758224  42.5603932  63.8104984
  80.9513511  42.1851030  64.0686803  81.1923793  42.4271442  65.1037749
  81.4900253  41.2852858  63.7715959  81.3657187  43.3535753  63.1597211
  80.5474059  43.8559129  62.3468532  82.4119531  43.9184218  63.3869678
  79.5065766  41.0003787  62.3963224  80.4208727  40.2506631  62.0320054
  78.4309077  41.3235620  61.6110874  77.7074861  41.9250061  61.9785457
  78.2906958  40.8293908  60.2583034  78.3391234  39.7426499  60.3272099
  77.2953882  41.1280783  59.9292931  79.3335224  41.3162340  59.2180128
  79.6331968  40.6206023  58.2739044  79.9022344  42.5099036  59.5034906
  79.5435991  43.1473014  60.2000565  81.0261722  42.9294762  58.7091628
  80.8218443  42.8101449  57.6451565  81.2752805  44.4206615  58.9979438
  81.3997638  44.5181237  60.0764169  82.2083053  44.6840477  58.4997545
  80.1785962  45.3464095  58.5329665  79.2675804  44.9624467  57.7888503
  80.2052024  46.5563108  58.9304033  82.3080843  42.0781382  58.9505068
  83.0639243  42.0285593  57.9629048  82.6589701  41.4801535  60.0749313
  82.0950293  41.6958561  60.8845872  83.8753488  40.5972464  60.2616607
  84.6737242  40.9782232  59.6248305  84.3932795  40.5466294  61.7356444
  84.5577250  41.5988383  61.9678370  83.6185775  40.1473990  62.3902832
  85.6959363  39.7663623  61.9507664  85.5265946  38.7660878  61.5521749
  86.9252887  40.3658062  61.3027807  87.0955531  41.3659770  61.7012368
  87.7910119  39.7384594  61.5150545  86.7759516  40.4253225  60.2247006
  85.9263450  39.5780818  63.4459383  85.0924864  39.0228806  63.8755089
  86.8513880  39.0237972  63.6045741  86.0001348  40.5527571  63.9282889
  83.6597582  39.2027371  59.7721004  84.5068013  38.6855945  59.0664685
  82.5198071  38.6252855  60.1006839  81.8302214  39.1444622  60.6251136
  82.2666375  37.1777096  59.8378013  83.0878032  36.4737141  59.9726212
  80.9901698  36.6515523  60.6077510  80.3403652  37.5178976  60.7314455
  80.2173285  35.5329001  59.9528498  80.8663899  34.6659863  59.8292353
  79.3668608  35.2630574  60.5789411  79.8597519  35.8605514  58.9766927
  81.4034067  36.4552482  62.0752921  82.1541780  35.6660882  62.1161561
  81.8374022  37.3879176  62.4356741  80.2384241  36.0806975  62.9386949
  79.8041608  35.1478161  62.5791848  80.5746339  35.9516425  63.9674840
  79.4873835  36.8696451  62.8987008  82.1733514  36.8158909  58.3462736
  82.4406753  35.6750797  58.0138495  81.8602522  37.8249680  57.5295115
  81.5515192  38.7313104  57.8509564  81.9111588  37.5816554  56.0934163
  81.2936441  36.7479037  55.7593014  81.2991581  38.9116624  55.5380044
  81.1673295  38.7148594  54.4740547  80.3231292  38.9717879  56.0195152
  82.0250474  40.2078425  55.7190318  81.2444223  40.9524386  55.5631414
  82.4789573  40.3576897  56.6986291  83.1160095  40.3581954  54.6116571
  84.2903205  40.0192382  54.9141396  82.7346270  40.9536583  53.5521448
  83.3141646  37.2767367  55.5678306  83.3694924  36.6615550  54.5479755
  84.3861754  37.5433799  56.2956164  84.3120256  38.1674015  57.0863112
  85.7090332  37.0590519  55.9188213  85.9315728  37.3729079  54.8989832
  86.7714875  37.6019327  56.8305813  87.7599247  37.3245906  56.4642857
  86.6980770  38.6878372  56.8899294  86.5765985  37.0584345  58.0851059
  87.2464612  37.3925357  58.6861552  85.9010578  35.4942075  55.8042500
  86.7295564  34.9500797  55.0273588  84.9838258  34.6985301  56.4959529
  84.4260601  35.1624668  57.1986331  84.9980494  33.2469753  56.4763461
  85.9923105  32.8796513  56.7305449  83.9998982  32.7004371  57.4965466
  84.1785743  33.0108352  58.5260257  83.0178116  33.0495439  57.1775946
  83.9393585  31.1634556  57.5045392  84.9233726  30.4626727  58.1991381
  85.7319991  30.9779623  58.7175005  84.8563626  29.0611251  58.2214765
  85.6278162  28.4792274  58.7258127  83.7704974  28.3991721  57.5790614
  83.6652714  27.3151950  57.6240182  82.8394302  29.1572106  56.8888699
  82.0914544  28.6142641  56.3110797  82.8282774  30.5383412  56.9083851
  81.9885121  31.0827351  56.4764945  84.9710822  32.7215296  55.1042085
  85.5637517  31.6693926  54.8616069  84.2263582  33.3639555  54.2298189
  83.9252958  34.2623662  54.5795603  83.7014821  32.9101596  52.9471579
  83.3043272  31.9001987  53.0488747  82.5829974  33.8271924  52.4693045
  83.0199882  34.7941773  52.2201491  82.1404614  33.3878578  51.5752983
  81.4636607  34.0226371  53.5697574  81.8982222  34.2829682  54.5348921
  80.5759171  35.1982437  53.0667609  80.1406085  34.9384462  52.1018202
  79.7785110  35.3855655  53.7858956  81.1861292  36.0950785  52.9598547
  80.5992062  32.7856079  53.7800954  81.2269192  31.9525811  54.0965479
  79.8528122  32.9895599  54.5478200  80.0986222  32.5285172  52.8465971
  84.8001081  32.7217755  51.8812623  84.4399580  32.3652857  50.7199803
  86.0419959  33.1732674  52.1815604  86.0948406  33.7807917  52.9866821
  87.2631751  32.9729795  51.3735894  87.1286096  32.1025657  50.7314280
  87.5693399  34.1969400  50.4868618  86.6315790  34.4573731  49.9960683
  87.8686512  35.0077677  51.1509938  88.6499701  33.9778217  49.4337941
  88.8516906  32.8229928  49.0548758  89.2867556  34.9966537  49.0188814
  88.5627008  32.5550865  52.1506911  89.3725472  33.4045796  52.4229489
  88.7702922  31.2746012  52.5059364  88.0016167  30.6661160  52.2630718
  89.9130382  30.7022195  53.1118092  90.8087897  31.2566496  52.8319242
  89.7973293  30.6556463  54.6458478  88.9288071  30.0368986  54.8715038
  91.0512978  30.0896709  55.3976881  91.9201829  30.7082159  55.1728740
  90.8667807  30.0999441  56.4719081  91.2399777  29.0668062  55.0717328
  89.4861353  32.0779714  55.3155586  90.3901654  32.6757799  55.1995610
  88.6800867  32.5220421  54.7314469  89.0712851  32.0398895  56.8435674
  89.8770858  31.5963397  57.4284167  88.8838442  33.0544798  57.1950950
  88.1670078  31.4425995  56.9603028  90.0046064  29.3027850  52.6335703
  89.0182291  28.5801448  52.6714128  91.1593346  28.8932104  52.1725709
  91.8759373  29.6040823  52.1373421  91.4975628  27.5220214  51.6861447
  91.0699291  27.3376070  50.7006398  93.0036112  27.4276204  51.5848296
  93.3862431  27.3231902  52.6001061  93.2297262  26.5249454  51.0172471
  93.6186104  28.5465084  50.9597547  94.5691683  28.4150883  50.9320353
  90.9937252  26.4035762  52.5748708  91.1677120  26.4194729  53.7943813
  90.4363746  25.3023303  51.9950347  90.3185867  25.2677919  50.9925217
  89.8462853  24.2833997  52.7737131  89.1499093  24.7211113  53.4889531
  89.0621860  23.2820238  51.8606849  89.7307978  22.9643355  51.0606026
  88.7876884  22.4195449  52.4680409  87.7793352  23.9116969  51.2447947
  88.0686323  24.8159715  50.7093552  87.3530060  23.1950857  50.5427876
  86.7115342  24.2706765  52.3391327  86.3858139  23.3551672  52.8329423
  87.1639143  24.9375773  53.0730911  85.5450400  24.9316688  51.7631959
  85.6056223  25.9134926  51.5341736  84.3785290  24.3275184  51.6409194
  84.0780396  23.0963781  52.0590136  84.7818042  22.5367739  52.5190772
  83.1482252  22.7298239  51.9134709  83.4465075  24.8736045  50.9795422
  83.5989785  25.7729948  50.5460105  82.5553339  24.4070332  50.8888801
  90.7513377  23.5482560  53.7560434  90.4179480  23.5042665  54.9367119
  92.0099806  23.2159531  53.3419676  92.5377299  23.1481370  51.9935705
  92.9911725  24.1065416  51.7406856  91.7212355  22.9394067  51.3022909
  93.5984618  21.9680998  52.0515105  94.4104506  22.0508639  51.3290678
  93.1670590  20.9684548  51.9995214  94.0769169  22.2817933  53.4656569
  94.7393337  23.1474116  53.4628423  94.6075605  21.4201697  53.8707762
  92.8709060  22.5698777  54.2908818  92.3091056  21.7062041  54.6466158
  93.3459867  23.3796393  55.4699578  93.6303349  22.7477495  56.5007223
  93.4014008  24.7442333  55.3910689  93.4578353  25.0553601  54.4318429
  93.4872112  25.7861715  56.4919169  94.1395831  25.3972069  57.2737204
  94.0304470  27.1364953  56.0301254  93.4224198  27.4853638  55.1954442
  93.9497382  27.8415964  56.8574214  95.5368812  27.0309849  55.5747743
  96.2052476  26.8839015  56.4231574  95.6846612  26.2277222  54.8529487
  95.8390185  28.3550994  54.9212654  95.2181519  28.4625019  54.0318340
  95.6106042  29.1579084  55.6222818  97.3370760  28.4304991  54.5186433
  97.9358132  28.5286382  55.4241725  97.6056077  27.5077237  54.0043716
  97.6031847  29.6144936  53.6053974  97.3548271  30.4696902  54.0819023
  98.5828831  29.6375834  53.3609431  97.0487983  29.5235313  52.7660639
  92.1054843  25.9879718  57.2070648  92.0756282  25.8020228  58.4033510
  90.9362670  26.2961219  56.5030191  91.0757637  26.4696390  55.5178633
  89.5771777  26.4303744  57.0491082  89.4650685  27.2862450  57.7147028
  88.6999568  26.6651826  55.7848438  89.0101563  27.6128455  55.3446044
  88.9107048  25.8547425  55.0870816  87.2002254  26.7069416  56.0789254
  87.0087084  25.8027664  56.6567569  87.0702176  27.5802923  56.7180331
  86.0306473  26.7945668  54.7110735  86.1212807  28.6033786  54.4300853
  87.1449891  28.8819001  54.1799935  85.4596375  28.8775535  53.6084058
  85.8131940  29.1279773  55.3345078  89.0679911  25.2279691  57.8766616
  88.3827114  25.4978799  58.8639938  89.4233996  23.9544834  57.5548012
  89.9180055  23.7934736  56.6890413  88.9594559  22.8023992  58.3071091
  87.9019435  22.9330008  58.5366958  89.1365701  21.4725874  57.5185502
  88.5008107  20.7411975  58.0175272  88.7517745  21.6644480  56.5169405
  90.6188218  20.9044422  57.4168900  91.3117191  21.6893742  57.1137796
  90.8840414  20.5513168  58.4134155  90.7426788  19.7373887  56.4356905
  89.7669833  19.3614644  55.7928458  91.9412921  19.2475323  56.3188929
  92.1085874  18.4744384  55.6908487  92.6995191  19.6423793  56.8567490
  89.5809110  22.7944656  59.7041394  89.0530647  22.2117694  60.6431311
  90.8478744  23.2491775  59.7777597  91.3776910  23.4270239  58.9364723
  91.5399234  23.3604171  61.0776650  91.1873069  22.5834463  61.7559549
  93.0545708  23.1924602  60.8838210  93.2000832  22.2386824  60.3766392
  93.3771314  24.0034923  60.2309186  93.8665625  23.2155957  62.1505689
  93.4492634  22.5333362  62.8911661  94.7588632  22.7710319  61.7098177
  94.2347887  24.5314941  62.8235406  95.0107930  24.5415697  63.7871955
  93.8953872  25.6178651  62.2454978  91.1652506  24.6586146  61.8090913
  91.1040916  24.7416395  63.0231038  90.7031795  25.7102548  61.1460783
  90.8476550  25.6923429  60.1466258  90.0721841  26.9210218  61.7480302
  90.7685353  27.3144353  62.4885841  89.6721057  28.0807527  60.7702867
  89.1737603  27.6233729  59.9155617  88.7246899  29.1639739  61.4124404
  89.2225680  29.6221525  62.2670109  88.4946532  29.9306847  60.6726174
  87.8005991  28.6893998  61.7424968  90.8754765  28.7808424  60.2786576
  91.5153594  28.0757366  59.7481129  90.5791708  29.5821463  59.6017421
  91.4215595  29.2022217  61.1226562  88.8198734  26.4996454  62.5405942
  88.7449260  26.9585128  63.6701895  87.9428441  25.7031362  61.9666790
  88.0369355  25.5340856  60.9753829  86.7583269  25.1847091  62.6487975
  86.5584085  25.5831697  63.6434638  85.5082697  25.4581085  61.7380266
  84.6172427  25.1955237  62.3083068  85.4101425  26.9319748  61.2784244
  86.3006684  27.1951754  60.7076442  84.5270310  27.0598761  60.6524404
  85.3334907  27.5808374  62.1508941  85.4039562  24.4993732  60.5137124
  85.3315357  23.4694654  60.8632081  84.5167874  24.7481173  59.9313400
  86.2904901  24.6090607  59.8891108  86.8306704  23.6989539  63.1312876
  85.8135332  22.9230023  63.0704350  88.0077302  23.3678325  63.7132645
  88.7953002  23.9985409  63.6681012  88.2198296  22.0299229  64.2747987
  87.9232204  21.3494699  63.4766095  89.7318365  21.8049495  64.5854159
  90.0414979  22.4729773  65.3891253  89.8904413  20.7709559  64.8916871
  90.3216133  22.0134886  63.6927940  87.3059833  21.6993254  65.5070329
  86.9411925  22.6217176  66.2397636  87.1196754  20.4053197  65.7599135
  87.2711380  19.6710203  65.0831841  86.4862587  20.0679756  66.9947383
  86.1386564  19.0352494  66.9673806  87.4871305  20.2200951  68.1567368
  88.3805383  19.7245517  67.7767914  87.7250087  21.2534215  68.4092253
  87.0455324  19.5223569  69.3857536  86.2511753  18.5948100  69.3365131
  87.4102160  20.0009881  70.5712417  87.1136298  19.5315610  71.4149091
  87.9821799  20.8318341  70.6227483  85.1027825  20.7957701  67.2834346
  85.0620013  21.4870279  68.2604083  84.0366131  20.6852860  66.4963678
  84.0622348  19.9838105  65.7701619  82.8851793  21.5888753  66.5486037
  82.6695945  21.8571615  67.5828401  83.1925146  22.9155985  65.7340942
  84.2310325  23.2126752  65.8801260  83.0277072  22.6770303  64.6833689
  82.2591877  24.0795852  66.1515650  81.2379645  23.7030907  66.0927790
  82.5181964  24.6309448  67.5517072  83.5391479  25.0080730  67.6111298
  81.8193954  25.4414861  67.7585907  82.3812044  23.8374255  68.2863233
  82.5044221  25.2423145  65.1890337  82.2808577  24.9248687  64.1705315
  81.8600352  26.0793241  65.4578864  83.5474194  25.5526956  65.2516367
  81.5978387  20.9094301  66.0720520  81.5643720  20.0008711  65.3271719
  80.4247114  21.2844995  66.6040223  80.5147960  22.1091958  67.1800953
  79.1009026  20.6929628  66.4454929  79.0152707  20.0812117  65.5474245
  78.9458573  19.7836176  67.6762396  79.1261549  20.4505879  68.5192950
  77.8945006  19.4964628  67.6591744  79.8305727  18.5077214  67.8247071
  80.8262149  18.7834303  67.4771701  79.8944852  18.1278780  68.8443817
  79.3222343  17.4679288  66.9797234  78.2075089  16.9806261  67.2624393
  80.0364101  16.9478036  65.9690712  79.6387673  16.2156391  65.3981801
  80.9681421  17.2909980  65.7841536  78.0014994  21.7873873  66.4361842
  78.1910525  22.8442105  66.9618298  76.8384024  21.4387893  65.9146694
  76.9317221  20.7215079  65.2097592  75.5341269  22.1103863  66.0600126
  75.4449309  22.4785854  67.0820560  75.3578709  23.3043519  65.0859382
  74.5032449  23.8762868  65.4473304  76.2364897  23.9484363  65.0501005
  75.0536215  22.7634778  63.6601576  76.0981104  22.4473387  62.7667231
  77.1218803  22.5807780  63.1162778  75.8495392  21.9626336  61.4317057
  76.6878439  21.6634979  60.8025277  74.5331224  21.9051095  60.9272490
  74.3094912  21.6323384  59.6501103  75.1164721  21.4890055  59.1502732
  73.4762540  22.1168436  61.8493249  72.4530414  21.8839971  61.5545049
  73.7486504  22.6397281  63.1778854  72.9247810  22.9458280  63.8225885
  74.4205409  21.0531692  66.0834946  74.6865380  19.8924887  65.7642026
  73.2026889  21.4010192  66.5670210  73.3362154  22.2507556  67.0963774
  71.9478883  20.6468653  66.7585867  72.0562437  19.8278652  67.4696402
  70.9565313  21.6755273  67.3391087  71.4223561  22.1956885  68.1760907
  70.8583385  22.3595567  66.4961604  69.5810123  21.1815393  67.7527370
  68.6509840  21.9451317  68.0890195  69.3788602  19.9416430  67.6316548
  71.5516807  19.5969625  65.6333647  71.5538555  19.8986892  64.4420048
  71.1177520  18.3886611  66.0388748  71.3749268  18.1435311  66.9843227
  70.5885366  17.3449572  65.1758121  70.2345602  17.7978951  64.2497197
  71.6220167  16.3067114  64.8383946  72.5003837  16.8942666  64.5712811
  71.8322203  15.7284236  65.7381155  71.2690494  15.3353772  63.6657673
  71.4689263  14.1107934  63.8081358  70.8470120  15.8252021  62.5912618
  69.1972350  16.7841305  65.6068043  68.6742472  15.8317691  64.9664157
  68.5883815  17.2759710  66.7084355  69.1212359  17.8781424  67.3196270
  67.1689717  16.9761350  67.0700101  66.7081481  17.9220248  67.3546735
  66.6869391  16.5940130  66.1701619  66.9783711  15.9751800  68.1956403
  67.5901732  14.8949116  68.1263118  66.1843216  16.3357288  69.2037305
  65.8813058  17.2989902  69.2239354  65.8803244  15.4648496  70.3982046
  65.2743682  16.0126269  71.1199084  65.0871686  14.2023951  69.9373168
  65.7056611  13.7743786  69.1484137  65.1041302  13.5465223  70.8077439
  63.7824769  14.3331370  69.4823013  63.4401812  13.4696830  69.2396480
  67.1475283  15.2044427  71.2071560  67.2235825  14.2392775  71.9655107
  68.0993979  16.1101745  71.1361973  68.0577188  16.8686350  70.4705398
  69.2830703  16.0344829  72.0551339  69.4155509  17.0300532  72.4786760
  69.0200839  15.3347605  72.8484346  70.5982883  15.5875411  71.4126304
  71.7037048  15.5619335  72.0104680  70.4168598  15.1621278  70.1386978
  69.4684195  14.9439361  69.8686002  71.4775206  14.8966604  69.1922837
  72.2958129  14.3629830  69.6756938  70.9223405  14.0162318  68.0427249
  69.9387803  14.3902344  67.7584176  71.5976056  14.0864233  67.1899704
  70.8051120  12.5580669  68.4799579  71.6789083  12.0523214  68.0691022
  70.8692334  12.5668718  69.5680356  69.3213024  11.6725792  67.9824203
  68.3317097  11.9619465  69.4864895  68.1970290  13.0336490  69.6328243
  67.3574513  11.4852697  69.3783205  68.8482873  11.5401328  70.3486507
  72.1949545  16.1438267  68.6288676  71.6230668  17.2036115  68.5247249
  73.4754995  15.9820503  68.2809885  73.9561977  15.1913216  68.6856817
  74.2858555  16.9869567  67.4915422  73.6286300  17.7338522  67.0462321
  75.2809623  17.7015260  68.4270587  75.9473107  16.9401725  68.8325461
  75.8552239  18.3984506  67.8166328  74.5873546  18.4913756  69.6237074
  73.7872689  19.1022313  69.2055939  74.1633921  17.7587038  70.3104023
  75.5884875  19.4029635  70.3914374  76.5127649  18.8303946  70.4687359
  75.7514402  20.2703424  69.7517502  75.1449498  19.8867584  71.8340260
  75.5429672  20.8831988  72.0258310  74.0569340  19.9128608  71.8943539
  75.6803056  18.9278960  72.8597891  76.6884966  18.9038839  72.8043446
  75.4009407  19.2307856  73.7819134  75.3112768  18.0045959  72.6824933
  74.9249383  16.3918603  66.2320903  74.9591336  15.1985850  66.0510714
  75.5379702  17.2245620  65.4039304  75.4970443  18.1759190  65.7405966
  76.1097134  16.9783767  64.0510636  76.5538282  15.9830729  64.0358466
  75.0526283  17.0631417  62.9327095  75.4849832  16.6033451  62.0440275
  74.1900840  16.4819420  63.2587834  74.6048179  18.5094267  62.5998980
  74.2996354  18.9946198  63.5270184  75.4559658  19.0415435  62.1750440
  73.4182362  18.5326048  61.5858306  72.5984621  17.9023669  61.9306052
  73.0552361  19.5490719  61.4337618  73.9190430  17.9961066  60.2681124
  74.5460768  17.2048105  60.2960133  73.4923487  18.4236853  59.0882186
  72.4570819  19.2444917  58.9072309  71.9394272  19.5831118  59.7056482
  72.1953712  19.5237853  57.9725640  74.2653300  18.0695647  58.0977013
  75.0946800  17.5223911  58.2790286  74.0304331  18.3444073  57.1546299
  77.3609185  17.9427153  63.8472720  77.4148985  19.0671687  64.3173196
  78.3546643  17.5129359  63.0870779  78.2426002  16.5987019  62.6726902
  79.6267832  18.1675130  62.9586751  79.8657424  18.6461947  63.9083391
  80.7564469  17.2154398  62.5964177  81.6825892  17.6537529  62.9682257
  80.5670144  16.2747995  63.1135358  80.8848062  16.9512350  61.0746277
  79.9113692  16.5009429  60.8803125  80.9888981  17.8601615  60.4820768
  81.9866467  15.9656565  60.6920658  82.3513904  15.9334313  59.5292367
  82.4158744  15.0713321  61.5004613  79.5470166  19.3678093  62.0333215
  78.8076071  19.4059908  61.0686300  80.1324492  20.4914019  62.4656007
  80.7150592  20.3989099  63.2854240  79.8835931  21.8423230  61.9347365
  78.9325823  21.8650189  61.4026063  79.8633892  22.8908321  62.9888212
  80.8126594  22.8865615  63.5245150  79.7111029  23.8669249  62.5282217
  79.0515745  22.6887319  63.6875426  80.9185116  21.9992305  60.8634472
  81.9370994  22.7182844  60.9834991  80.8440692  21.1562202  59.8452699
  80.1542030  20.4186367  59.8328396  81.8495571  21.1512900  58.8493956
  82.8309598  21.1943539  59.3217232  81.8016757  19.9364555  57.9400632
  81.9438128  19.0653515  58.5796530  80.4738980  19.7673909  57.1111104
  80.3313145  20.6379612  56.4708942  80.5414074  18.8709214  56.4947631
  79.6284076  19.6760776  57.7929523  82.8464022  19.8703250  56.9601844
  82.7399805  19.0757096  56.4321116  81.9206898  22.4457001  58.0492458
  80.8959411  23.1069861  57.9598202  83.0588431  22.7299620  57.3837120
  83.8414979  22.1592737  57.6698340  83.2852171  23.7519354  56.4070364
  83.3838772  24.7289370  56.8801466  84.6052030  23.3982076  55.7440048
  84.5193411  22.4263203  55.2580389  84.8530335  24.1552495  54.9999834
  85.3918277  23.3588495  56.4975110  82.1457680  23.8727871  55.4163652
  81.7649151  25.0412144  55.2636475  81.6872067  22.7490084  54.7842419
  82.2020773  21.8850561  54.8769464  80.5699392  22.7968489  53.8248490
  80.8598795  23.3941886  52.9604307  80.1948086  21.4114229  53.3507321
  80.0429395  20.7836067  54.2287308  79.2456717  21.5450978  52.8317233
  81.2130544  20.7307469  52.3985937  81.3936019  19.4785924  52.4350036
  81.8272115  21.4722472  51.5511974  79.3585583  23.6246746  54.3846282
  79.0139673  24.6617119  53.8214259  78.7716510  23.1438600  55.4733261
  79.2985687  22.3651687  55.8422393  77.5597446  23.5864935  56.2101384
  76.7207297  23.4639544  55.5252024  77.2415209  22.8759240  57.4880236
  78.1932569  22.7949985  58.0131414  76.5322107  23.4270922  58.1054317
  76.6801214  21.4424292  57.2019022  76.3679547  21.0162462  56.0780028
  76.4772601  20.7636300  58.1834377  77.6460702  25.0417142  56.6836146
  76.7467676  25.8905263  56.5923957  78.8594455  25.4043827  57.1230618
  79.5481208  24.6669923  57.1686797  79.2620169  26.7876602  57.5706572
  78.5109900  27.1980403  58.2456728  80.5732147  26.7233345  58.2949580
  81.3473048  26.1623314  57.7713559  80.8660726  27.7712093  58.3604754
  80.4002580  26.1664302  59.6745756  79.9439870  25.1765228  59.6736245
  81.8387454  26.0640976  60.1857126  82.2955560  27.0537542  60.1873893
  81.8370444  25.6635615  61.1994525  82.4098818  25.4019711  59.5349499
  79.7246435  27.0428267  60.6994689  78.7185257  27.2897376  60.3605570
  79.6673885  26.5129527  61.6502879  80.2990727  27.9600396  60.8292785
  79.3969154  27.7925969  56.3965355  78.7733158  28.8928367  56.4581856
  80.0295210  27.3403382  55.3212503  80.6044072  26.5122244  55.3831588
  80.0057912  28.0922056  54.0281245  80.3967561  29.1049658  54.1259112
  80.7387479  27.3621999  52.8573866  80.8278887  26.3141171  53.1431782
  80.0271745  27.4637363  51.4971559  79.9380719  28.5115750  51.2104584
  80.6052305  26.9292244  50.7433329  79.0333546  27.0224521  51.5725828
  82.1789713  27.8062532  52.7525963  82.6480402  27.4333455  53.6630989
  82.5718480  27.2628122  51.8932830  82.4881365  29.3155774  52.5938540
  82.0959423  29.8596532  53.4530775  83.5666046  29.4616751  52.5333459
  82.0197478  29.6891205  51.6832621  78.5182559  28.4183503  53.6545827
  78.2517661  29.4976269  53.0821578  77.5805160  27.5487355  53.9097748
  77.9015169  26.6874529  54.3284035  76.2071799  27.6360696  53.5003303
  76.1306368  28.1004280  52.5171661  75.6073473  26.1999771  53.4208321
  76.2653460  25.5712679  52.8209472  75.5313233  25.7889231  54.4274874
  74.2062588  26.2409695  52.7751265  73.4994540  26.7496614  53.4306877
  74.2444404  26.7545979  51.8144861  73.7225940  24.6943083  52.5474574
  74.2769971  24.2472501  51.7223059  73.8903446  24.1132175  53.4542610
  72.2026879  24.6997027  52.2085615  71.9844163  23.6588831  51.9694951
  71.7252860  24.9629824  53.1524208  71.6905922  25.5580800  51.1500766
  72.1325213  25.3139944  50.2753077  70.6916364  25.4331172  51.0690117
  71.8923673  26.5226040  51.3716151  75.4883667  28.5825445  54.3302880
  75.0097649  29.6112877  53.7735128  75.5072351  28.3911139  55.6756543
  76.0023702  27.5855406  56.0306083  74.6895878  29.1834099  56.6194132
  73.7628648  29.3277164  56.0640222  74.3530815  28.4465111  57.9854490
  73.9908337  27.4513552  57.7274944  75.4906386  28.3291634  58.9152093
  75.8531618  29.3240020  59.1740028  75.1692774  27.8133592  59.8200703
  76.2919628  27.7632205  58.4401410  73.3912001  29.2669419  58.8062000
  72.4673708  29.4124149  58.2463079  73.1723069  28.7462037  59.7384109
  73.8373501  30.2363468  59.0282474  75.3299854  30.5506267  56.7980054
  74.6373995  31.5646130  56.7777700  76.7181108  30.7032930  56.7009234
  77.2943585  29.8775716  56.7798040  77.3712046  32.0256574  56.7996090
  76.7494637  32.5478650  57.5268205  78.8170576  32.0546864  57.2843856
  79.3959308  31.5101951  56.5383733  79.4332056  33.4449579  57.4949533
  78.8551045  33.9899147  58.2412255  80.4618498  33.3386773  57.8394764
  79.4207529  33.9947903  56.5538737  78.8859286  31.4438235  58.6811165
  78.5313425  30.4137214  58.6456160  79.9166691  31.4607286  59.0352179
  78.2590331  32.0200754  59.3615845  77.1688053  32.9382171  55.6127714
  77.1977224  34.1446307  55.7123702  76.8898644  32.3681637  54.4340050
  77.2424198  31.4355141  54.2728568  76.2662414  33.0710729  53.3236614
  76.7705904  34.0181871  53.1320732  76.3840654  32.1538564  52.0141113
  77.3895596  31.7332934  51.9997165  75.6555659  31.3490902  52.1128018
  76.1264459  32.9263952  50.6885766  75.8691408  32.1896398  49.9275994
  75.2757452  33.5868687  50.8564526  77.3842699  33.7904716  50.1923441
  78.3099274  33.0443463  49.7084276  77.4939251  35.0481129  50.2511251
  74.8787542  33.5818643  53.5354452  74.6682693  34.7974127  53.4883701
  73.9248026  32.7076089  53.8782309  74.1890289  31.7420879  53.7438697
  72.5612818  32.9985310  54.3377407  71.9584120  33.3597343  53.5045664
  71.9108606  31.7375046  54.8996734  72.5560206  31.3155084  55.6702492
  70.9462971  31.9968698  55.3360759  71.7078336  30.7159208  53.7947062
  72.6100297  30.5607181  53.2030517  71.5092766  29.8270422  54.3935127
  70.5662127  30.9668147  52.8937362  70.0480153  32.0912520  52.7652130
  70.1622350  30.1521362  52.1359678  72.5453380  34.1036890  55.3441729
  71.8256971  35.0924640  55.1428673  73.3084951  34.0165985  56.3993849
  73.7834520  33.1371139  56.5443751  73.4673304  35.0597196  57.4012685
  72.5680919  35.2311014  57.9929589  74.5643538  34.4917039  58.3249956
  74.1421464  33.5495903  58.6746556  75.4790204  34.2941072  57.7660317
  74.8901222  35.4016912  59.5499369  75.0311152  36.4387966  59.2455784
  73.7031338  35.3053578  60.4593171  73.5617725  34.2685423  60.7644886
  73.8694173  35.9237398  61.3413909  72.8135146  35.6536137  59.9345354
  76.2450812  34.8792358  60.0971411  77.0071413  34.9633517  59.3223584
  76.5407813  35.4719882  60.9627665  76.1403676  33.8348842  60.3911886
  73.8205198  36.4397393  56.7661521  73.2584283  37.4588079  57.1256830
  74.9084966  36.5016260  55.9642341  75.3606089  35.6200676  55.7678964
  75.5302714  37.7299354  55.4581133  75.3075552  38.6073283  56.0653022
  77.0257604  37.5954118  55.3369065  77.4055207  38.5274544  54.9183626
  77.7111603  37.3188630  56.6504505  77.3322264  36.3866701  57.0694077
  78.7858200  37.2338212  56.4892875  77.5118158  38.1358145  57.3439580
  77.5035593  36.6142002  54.3784870  78.4635368  36.6076174  54.3788770
  74.9533961  38.2428518  54.1145242  75.2133061  39.3946360  53.6853434
  73.9814922  37.5619426  53.5257607  73.8232784  36.6737270  53.9797879
  73.3119727  37.8159911  52.2048307  73.7517968  38.6862193  51.7176379
  73.5058104  36.5823732  51.2851037  74.5571322  36.2992995  51.3369786
  72.8926983  35.7761622  51.6878661  73.1142916  36.8404761  49.8127434
  72.0364366  36.9873526  49.7437731  73.6258739  37.7327166  49.4517828
  73.5223829  35.6337430  48.9537418  73.4075685  35.8987087  47.9026901
  74.5671594  35.3983270  49.1565244  72.7075483  34.4396572  49.2307936
  71.8854195  34.6198846  49.7891140  72.8596674  33.2608588  48.7179233
  73.9353918  32.8114384  48.1315417  74.7476327  33.4060167  48.0488294
  73.9506702  31.8711368  47.7631680  71.9612244  32.3533610  48.9026339
  71.1384921  32.5653695  49.4487695  72.0849427  31.4352936  48.5002104
  71.8851568  38.3755068  52.4369417  70.8815899  37.6518826  52.3276360
  71.8928330  39.6133274  52.8744804  72.8243337  39.9174662  53.1192363
  70.8370067  40.4894236  53.0878167  70.0204998  40.0119490  53.6295119
  71.2055157  41.8466782  53.7869148  71.8501881  42.4025075  53.1060685
  70.0164739  42.6744381  54.1309118  69.3715136  42.1194152  54.8121434
  70.3421405  43.5973999  54.6106861  69.4641506  42.9132797  53.2220703
  72.1342803  41.6285519  55.0234492  73.0479418  41.1966694  54.6150365
  72.3425641  42.6308257  55.3978348  71.6245296  40.7527698  56.1686233
  71.4164546  39.7501390  55.7950779  72.3821793  40.6987128  56.9503804
  70.7110749  41.1842945  56.5778748  70.1664256  40.7788664  51.7246125
  68.9230950  40.6525733  51.6831883  70.8824304  41.2164052  50.6696049
  71.8566992  41.4136415  50.8484830  70.3249221  41.5486839  49.3121988
  69.2866023  41.8594103  49.4281306  71.1050200  42.6838365  48.6057367
  72.0376550  42.3853008  48.1270222  70.4371400  43.1164935  47.8608580
  71.4446929  43.7729377  49.5551170  70.5279885  44.3981114  50.4363552
  71.1972020  45.3071734  51.1786076  70.7197677  45.8809561  51.9729180
  72.4986173  45.3121707  50.7128006  73.2407833  45.8905508  51.0799053
  72.6348191  44.4175470  49.6799232  73.5813388  44.3432614  49.1444951
  70.2313255  40.3079815  48.4392942  71.3216194  39.6861471  48.2223582
  69.1531249  39.9677392  47.9968727  82.4774404  41.2645157  47.0144393
  77.1994719  45.0707038  86.4221097  92.8608610  88.3488271  38.6954141
  96.5078448  79.6347526  86.9046952  65.6344717  93.5391039  73.2846020
  61.7638450  36.8915542  80.9424231  44.3257874  79.4856104  72.4082024
  77.8416403  89.8616493  65.2652270  82.2410514  64.3909533  28.9777701
  67.4412324  10.8394584  62.5351801 116.8969290  95.3616889  40.5979749
  43.9245853  62.6848715  92.9613005  62.2637597  69.3458543  40.1373454
  66.7845406  94.5880739  90.6518849 102.2845165  50.2439927  35.2356449
  51.3979515  46.7851601  38.3155746  58.5800455  87.2226963  48.5195566
  53.7725115  33.3179649  59.0594763 102.4136063  64.8747888  31.5147365
  68.9297866  36.6950815  86.8758863 122.4373236  87.1255084  51.1724967
  45.6563423 104.1994797  83.3030836  86.8264265  12.9274916  54.1135908
  77.8416394  66.8678623 158.1935136  78.6147270  66.3207610 158.0548012
  78.1941793  67.7322872 158.4049597  80.1782672  63.0271289 155.8253586
  80.4308193  62.5052810 155.0637049  79.2407231  62.8637435 155.9280270
  87.5590276  62.3478573 158.5413000  88.4708132  62.5805959 158.3660697
  87.0499923  62.9315617 157.9788078  85.2093217  63.5182067 157.1199665
  84.6939840  64.2886672 157.3588052  84.9370525  62.8447203 157.7432727
  81.5878552  65.3679593 153.5987373  80.6805614  65.1368846 153.7978522
  82.0849584  64.5717212 153.7861355  82.7666785  65.4692188 158.1211363
  81.8578005  65.1851221 158.2183833  82.7961869  65.8891266 157.2614670
  82.4642873  67.0100931 155.4599442  82.0262303  66.2936790 155.0005079
  83.2053314  67.2377046 154.8984533  86.5854101  65.8685313 155.0531500
  85.9683271  65.1432141 154.9564552  86.1170589  66.6294673 154.7098574
  78.3752647  60.0870737 154.1752804  77.4982113  59.9659538 153.8115050
  78.8510400  59.2956816 153.9231692  82.9365038  63.0985148 154.0415029
  83.8824143  62.9691356 154.1103447  82.5579283  62.3599810 154.5184457
  81.1207956  61.0235124 153.9769914  80.2139411  60.7268237 154.0532628
  81.3983937  60.7264942 153.1104200  79.8906740  57.8822060 154.1181893
  80.7525904  58.2076958 154.3777710  80.0757084  57.0953555 153.6054959
  85.9707468  68.6795351 154.4121484  86.6743318  68.8845354 155.0279140
  85.2470117  69.2472113 154.6770568  83.9160768  46.7851609 144.5193308
  83.2648748  47.3705689 144.1327322  84.7105131  47.3157803 144.5788346
  77.8416395  43.8740746 144.9180443  78.6147271  43.3269733 144.7793319
  78.1941794  44.7384995 145.1294904  80.1782673  40.0333412 142.5498893
  80.4308194  39.5114933 141.7882356  79.2407232  39.8699557 142.6525576
  85.3936033  44.4742040 145.0562293  84.7581866  44.5476667 145.7683197
  85.0633440  45.0635639 144.3781372  79.6212103  51.6522864 148.0868103
  79.5436132  52.6030689 148.1656584  79.0173746  51.3068736 148.7443030
  87.5590277  39.3540695 145.2658306  88.4708133  39.5868082 145.0906004
  87.0499924  39.9377739 144.7033385  90.0449091  45.2720952 150.0116251
  89.3600129  45.6519853 149.4613285  90.1292940  45.8816278 150.7448199
  81.8950472  47.0105017 146.8073643  81.7596146  47.8556552 147.2358491
  82.4360284  47.2124294 146.0439577  85.2093218  40.5244190 143.8444972
  84.6939841  41.2948794 144.0833359  84.9370526  39.8509326 144.4678033
  90.1827492  43.2776544 145.7798145  89.4056935  42.9387704 145.3353307
  90.8618973  43.2829168 145.1053110  83.4425953  44.5561505 147.3197707
  82.9147315  43.8214265 147.0070944  82.9413456  45.3336182 147.0737675
  81.5878553  42.3741715 140.3232680  80.6805615  42.1430969 140.5223829
  82.0849585  41.5779335 140.5106661  84.4946632  51.0839223 143.2429366
  83.8208331  51.3870919 143.8514324  84.8812454  51.8868303 142.8934823
  82.7666787  42.4754310 144.8456670  81.8578006  42.1913343 144.9429140
  82.7961870  42.8953389 143.9859977  87.9986054  46.0860900 148.6147838
  87.5448381  45.2451810 148.6713028  87.3680021  46.7222298 148.9522618
  86.4418993  47.9237396 149.5497656  86.7341968  48.4842454 148.8310021
  86.9517614  48.2165957 150.3050815  82.4642874  44.0163054 142.1844749
  82.0262304  43.2998913 141.7250386  83.2053315  44.2439169 141.6229840
  90.5815989  42.2920251 148.2421067  90.4433888  42.4821847 147.3142256
  90.2252208  43.0539634 148.6989118  82.6937847  51.2518895 145.4576445
  82.8689603  50.7806938 146.2722068  82.0070635  51.8784661 145.6857706
  86.5854102  42.8747436 141.7776806  85.9683273  42.1494264 141.6809859
  86.1170590  43.6356796 141.4343880  78.3752648  37.0932860 140.8998110
  77.4982114  36.9721661 140.5360357  78.8510401  36.3018938 140.6476999
  81.5616574  49.4459150 148.1460631  80.7784096  49.9880830 148.2398855
  82.2609319  49.9633130 148.5454872  85.9543005  44.0125467 148.3633260
  85.0199283  44.1326929 148.1937964  86.1319673  43.1097934 148.0993270
  87.4091787  46.1986608 145.8969446  87.6851631  46.0843202 146.8063320
  86.5396286  45.8004092 145.8581619  84.0445851  50.4472958 149.5402260
  84.2268246  49.6294614 150.0030012  84.8678837  50.6640651 149.1027150
  84.3788017  49.3741143 146.8017308  84.9075783  48.8633598 146.1887470
  84.6416236  49.0583674 147.6662841  87.4728200  49.3457942 147.4172291
  87.6465078  48.7804364 146.6646143  87.9657091  50.1458837 147.2351781
  93.3267591  42.1094365 149.0362591  93.7698737  41.3601690 148.6381714
  92.4494102  42.1004501 148.6536323  88.4603373  48.6624706 144.5169189
  89.1554277  49.2831399 144.7356504  88.8026523  47.8120057 144.7921567
  90.3594796  46.1124412 146.0456520  90.8846120  46.4511684 145.3205840
  90.2717148  45.1771427 145.8619655  82.0435457  52.1796395 150.4051773
  81.6040447  51.6872774 151.0984630  82.7943574  51.6369363 150.1643848
  79.0522836  46.2738327 145.9532535  79.2010956  46.9573792 145.2999208
  79.8589279  46.2543417 146.4681991  92.8700456  43.5799603 151.4285038
  93.7047348  44.0189407 151.5922599  93.0059585  43.1038256 150.6093284
  82.5518241  48.7686458 143.4244283  81.9792208  49.3876645 142.9714755
  83.1251035  49.3185819 143.9584205  85.7715501  49.0523608 144.5552865
  86.7046174  48.9869170 144.7585741  85.6838714  49.8879875 144.0967398
  88.4003518  48.3689478 141.5156813  88.3217149  48.0349342 142.4092571
  89.2213184  48.8611246 141.5148285  82.9365040  40.1047271 140.7660335
  83.8824144  39.9753479 140.8348753  82.5579285  39.3661932 141.2429764
  81.1207957  38.0297247 140.7015221  80.2139412  37.7330360 140.7777934
  81.3983938  37.7327065 139.8349507  79.8906741  34.8884182 140.8427200
  80.7525905  35.2139080 141.1023017  80.0757086  34.1015678 140.3300266
  85.9707469  45.6857474 141.1366791  86.6743320  45.8907476 141.7524447
  85.2470118  46.2534236 141.4015875  86.8005280  41.4367335 147.2569061
  86.7440481  41.8935886 146.4176694  87.3533622  40.6758020 147.0791904
  87.8794167  46.1240003 143.1865251  88.7139771  45.6921201 143.0042726
  87.7178510  45.9522017 144.1142146  87.5340059  42.6272116 144.5521590
  87.4788863  42.4616388 143.6110034  86.9086114  43.3348149 144.7083780
  96.5078442  56.6409654 153.2820428  97.1456852  56.5216401 152.5783768
  96.3899285  57.5890498 153.3408380  93.3168148  56.5937082 153.2181953
  92.9786660  56.4778147 152.3302487  94.1857916  56.1928247 153.1982959
  89.1754964  58.4472559 149.2078843  88.6119829  58.3562495 148.4395131
  89.0607359  57.6272463 149.6881336  86.7219396  59.9423750 152.0463064
  87.5140688  59.6014575 151.6309363  86.9616046  60.0518725 152.9665217
  94.7554523  62.1143526 144.5193308  94.1042502  62.6997607 144.1327322
  95.5498885  62.6449721 144.5788346  88.6810150  59.2032663 144.9180443
  89.4541026  58.6561650 144.7793319  89.0335549  60.0676913 145.1294904
  91.4451399  57.9085894 154.7148702  92.0414971  57.6841917 154.0005665
  91.5026371  57.1670640 155.3174150  91.0176428  55.3625329 142.5498893
  91.2701948  54.8406851 141.7882356  90.0800987  55.1991475 142.6525576
  96.0619710  54.3661108 150.3573636  96.8482800  53.9480531 150.0064053
  96.3258415  55.2707200 150.5255284  96.2329788  59.8033958 145.0562293
  95.5975621  59.8768585 145.7683197  95.9027194  60.3927557 144.3781372
 101.4628138  54.3036341 151.2606614 102.1953309  53.7335558 151.4944444
 100.7067493  53.9157941 151.7013120  90.7372716  57.2653435 144.7523268
  90.6208974  56.5898339 145.4204352  90.8474976  56.7785809 143.9355421
  93.0804257  56.7263583 148.4569957  92.7162464  56.1994204 149.1682878
  93.9371373  56.3362052 148.2836442  92.7209744  51.7553482 143.4531305
  92.8884147  52.6233719 143.8201776  92.5306913  51.9180764 142.5292595
  95.4785077  60.2170461 155.1197136  95.1785801  61.1195500 155.0112943
  95.1336137  59.9502644 155.9718289  88.9297559  56.6684258 151.1533840
  88.0048055  56.5360472 151.3611532  89.1781972  57.4478477 151.6503783
  98.8782221  52.7353001 152.7994573  97.9699099  52.6668410 152.5053334
  98.8269817  53.2124946 153.6276399  92.6998965  54.2111140 144.4377972
  92.5798590  54.6568190 145.2763452  92.0051554  54.5596457 143.8791510
  86.2906370  56.3117532 151.9877629  86.4198751  56.5652010 152.9017041
  85.6103821  56.9045240 151.6682284  90.4605857  66.9814781 148.0868103
  90.3829887  67.9322607 148.1656584  89.8567501  66.6360654 148.7443030
  98.3984031  54.6832613 145.2658306  99.3101887  54.9160000 145.0906004
  97.8893678  55.2669657 144.7033385  93.0355869  54.0429848 156.2753156
  93.8817064  54.4669261 156.4187805  92.9754507  53.3863472 156.9691719
  97.0053614  59.6658431 152.6571888  96.3762476  59.8304145 151.9547956
  96.6179276  60.0800041 153.4282852 100.8842845  60.6012869 150.0116251
 100.1993884  60.9811771 149.4613285 100.9686695  61.2108196 150.7448199
  98.1393777  58.2472828 156.6111595  98.3510672  58.8904588 155.9345976
  98.0923525  57.4135145 156.1433525  95.7420006  50.8590649 153.5148167
  94.8804485  51.1571902 153.8064905  95.7682441  51.0761048 152.5829200
  92.5581575  59.4032839 149.9221973  93.0219921  59.6820542 149.1326595
  92.2938374  58.5016284 149.7395063  89.4505657  58.9504321 152.8601736
  90.0207014  59.3791589 152.2219221  90.0413768  58.6686906 153.5585922
  91.4950462  55.5255992 146.7311538  92.1974505  55.9777035 147.1985464
  91.1631090  54.8839811 147.3591431  85.2375795  53.7839544 152.0328671
  84.4474849  54.0397073 151.5568782  85.7287043  54.5987882 152.1380712
  87.1890541  54.1484124 148.9912148  86.3921704  54.2602818 149.5095644
  86.9616133  54.4870776 148.1253039  92.7344226  62.3396934 146.8073643
  92.5989901  63.1848470 147.2358491  93.2754039  62.5416212 146.0439577
  86.1873624  59.8572372 147.3801568  86.6998144  60.6515623 147.5307133
  86.8396336  59.1598663 147.3135170  87.9968508  62.9738129 149.4624321
  88.1735137  63.8956093 149.2745305  88.7925342  62.6596548 149.8918701
  89.1199824  64.4916303 155.4634664  89.6707249  64.3633366 154.6911658
  88.2811300  64.7911192 155.1129557  84.1522540  58.1861027 148.1561139
  84.9897762  58.5958035 147.9394846  84.3300808  57.2460469 148.1261333
  96.0486972  55.8536107 143.8444972  95.5333596  56.6240712 144.0833359
  95.7764281  55.1801244 144.4678033  93.6334083  50.6985808 148.9030210
  92.7775680  50.3092659 148.7235849  94.0461035  50.7777769 148.0429996
  95.1633230  48.2332151 153.3021770  94.6598026  48.1962287 152.4889575
  95.4563837  49.1424894 153.3618427  91.4076116  48.3170881 152.3087952
  92.2729113  48.1213690 151.9493841  91.4753625  48.0881233 153.2357308
 101.0221247  58.6068462 145.7798145 100.2450689  58.2679622 145.3353307
 101.7012728  58.6121085 145.1053110  95.8373276  53.7263200 145.6704753
  95.5323411  54.0409349 146.5214896  96.7903718  53.8044619 145.7132086
  94.2819707  59.8853423 147.3197707  93.7541069  59.1506182 147.0070944
  93.7807210  60.6628099 147.0737675  99.2612553  58.0802443 152.4364753
  98.6036228  58.7701705 152.5244882 100.0652953  58.4698875 152.7798740
  89.0138435  50.5473089 149.6804318  89.5882187  50.3248271 148.9477511
  89.6009417  50.6161784 150.4332920  98.0718012  56.4346816 150.4868695
  98.5849894  57.0676808 150.9890405  98.7219236  55.8348012 150.1212055
  89.3408022  52.5777550 143.7000204  88.5045334  52.9152237 144.0209478
  89.2012792  52.4426530 142.7627341  91.3161103  47.4214338 148.4079388
  90.6625515  47.1063355 147.7836003  91.2741577  46.7990078 149.1339211
  92.4272308  57.7033633 140.3232680  91.5199369  57.4722887 140.5223829
  92.9243340  56.9071252 140.5106661  95.3340387  66.4131140 143.2429366
  94.6602085  66.7162837 143.8514324  95.7206208  67.2160221 142.8934823
  94.5498843  53.9096272 152.7327035  93.6321405  54.1311219 152.5748724
  94.9658987  53.9842582 151.8738743  95.3333891  55.3087687 147.8629716
  96.0805710  55.8209084 147.5536838  95.6025480  54.9871740 148.7234109
  93.6060541  57.8046228 144.8456670  92.6971760  57.5205261 144.9429140
  93.6355625  58.2245307 143.9859977  98.8379808  61.4152817 148.6147838
  98.3842136  60.5743727 148.6713028  98.2073775  62.0514216 148.9522618
  97.7812728  52.3444804 149.8448505  97.0435485  51.8322190 150.1758748
  98.0339502  51.9045185 149.0331782  97.2812748  63.2529314 149.5497656
  97.5735722  63.8134371 148.8310021  97.7911368  63.5457875 150.3050815
  97.8824355  45.1221056 150.4390274  98.1883232  44.2618419 150.1516189
  98.6076960  45.7138676 150.2389268  84.1748711  55.5251742 148.8271872
  83.9773111  54.9321103 148.1022939  83.6195375  55.2203952 149.5447811
  92.1545435  55.4174849 150.9466465  92.2094045  54.4648685 150.8708942
  91.3436637  55.5734288 151.4307764  93.3036629  59.3454972 142.1844749
  92.8656059  58.6290831 141.7250386  94.0447070  59.5731086 141.6229840
  90.0937795  54.0351908 148.7056844  89.2805661  54.3346079 149.1122036
  90.5896789  53.6407597 149.4231326  92.2446373  64.0309665 150.6391109
  92.2022552  64.2570512 149.7099641  93.1609072  63.7973040 150.7876910
  95.6912007  54.4993733 157.5371738  96.0461394  54.7265206 158.3966204
  96.3384138  54.8312110 156.9148993 101.4209744  57.6212169 148.2421067
 101.2827642  57.8113765 147.3142256 101.0645962  58.3831551 148.6989118
  89.5851870  51.6070264 154.3218079  90.2251249  51.4659023 153.6241042
  88.7529400  51.3204777 153.9456681 101.4479123  59.6888696 153.2532339
 101.8815630  59.5963985 154.1015393 102.1610704  59.6646196 152.6152355
  90.3612174  60.9072694 150.4353072  91.1552772  60.4123014 150.2335647
  89.6503866  60.3790557 150.0720777  86.6694937  55.0515776 146.5112824
  85.7392525  54.9900231 146.7282786  86.7652409  54.5291729 145.7149466
  86.5880486  51.5770589 149.0991066  86.8487304  52.4915922 148.9900226
  87.4097659  51.1095031 149.2487679  94.1395118  57.4551052 156.3452371
  95.0687178  57.6062211 156.1721338  93.7186148  57.5435073 155.4901018
  92.9383450  61.4801716 154.1150909  92.7994535  61.1120501 154.9876847
  92.1498046  61.9949356 153.9434867  93.5331602  66.5810813 145.4576445
  93.7083357  66.1098856 146.2722068  92.8464390  67.2076579 145.6857706
  94.4888665  60.8583319 151.5039746  94.1538497  60.8184089 152.3997396
  93.9892611  60.1928035 151.0310157  97.4247856  58.2039353 141.7776806
  96.8077027  57.4786181 141.6809859  96.9564345  58.9648714 141.4343880
  91.0915209  55.9770908 156.5176007  91.8014828  55.3364100 156.4762626
  91.0484518  56.2283803 157.4402188  88.0992687  69.7300175 152.2316305
  88.3389285  70.3618700 152.9095324  87.2561883  69.3788215 152.5181665
  89.2146402  52.4224778 140.8998110  88.3375869  52.3013578 140.5360357
  89.6904155  51.6310856 140.6476999  80.7348543  57.2101937 150.9939618
  81.4219582  56.8963667 150.4060633  80.5796671  58.1143302 150.7206869
  92.4010328  64.7751068 148.1460631  91.6177850  65.3172748 148.2398855
  93.1003074  65.2925048 148.5454872  95.7106979  50.5845697 150.7894836
  96.2075678  49.8315660 150.4695907  94.9393960  50.6210014 150.2238046
 103.5636736  56.2886063 152.4313128 103.5526612  57.1710778 152.0607061
 102.6954115  55.9357614 152.2367665  96.7936759  59.3417385 148.3633260
  95.8593038  59.4618847 148.1937964  96.9713428  58.4389851 148.0993270
  92.2941947  52.7263080 150.5166521  91.9239735  52.1734121 151.2047427
  92.7901040  52.1221214 149.9641521 100.1809311  55.1834704 148.8983294
 100.6469763  56.0162696 148.8243597 100.6316811  54.7179685 149.6028552
  98.2485542  61.5278525 145.8969446  98.5245386  61.4135120 146.8063320
  97.3790040  61.1296010 145.8581619  97.9232432  55.7405183 155.4374089
  97.2703882  55.9881090 154.7826542  98.3012812  54.9269321 155.1036567
  94.8839606  65.7764876 149.5402260  95.0662000  64.9586532 150.0030012
  95.7072592  65.9932568 149.1027150  95.2181771  64.7033061 146.8017308
  95.7469538  64.1925516 146.1887470  95.4809991  64.3875591 147.6662841
  85.7198864  62.7196930 154.5452642  86.3052301  61.9740618 154.6780546
  85.5223702  63.0300887 155.4289305  88.5737519  65.7548178 149.5615084
  87.9047894  66.2394305 149.0779124  88.4350389  66.0017398 150.4758462
  83.9425096  54.0166633 146.3411016  84.2378537  53.1077311 146.2878070
  83.0413132  53.9954372 146.0192018  95.8511175  65.7373897 153.1461424
  95.7262314  64.9363637 152.6372370  96.5090266  66.2320090 152.6575394
  87.4719343  52.0922629 152.3238565  86.7505929  52.7058597 152.1846038
  88.2612599  52.6280394 152.2455211  85.6712938  51.6980730 146.4650341
  85.3425644  50.8178109 146.2825447  86.0252309  51.6428399 147.3526730
  94.9192517  63.3335633 150.9745327  94.7717479  62.4052341 151.1552897
  95.7446010  63.3555724 150.4902402  88.7854761  51.9853700 146.8325819
  89.1250833  52.5139622 146.1104427  89.2326881  52.3234106 147.6084385
  98.5226639  64.1564192 152.0610200  99.4473186  63.9507053 151.9234651
  98.3541942  63.9080593 152.9699541  90.7722908  50.4828322 145.0319112
  91.4931271  50.8609575 144.5282829  90.1488212  51.2017199 145.1354090
  94.9154031  51.1873471 145.9677444  95.1317645  52.0698109 145.6666272
  94.4348098  50.7959684 145.2383086  89.6553252  54.1459184 152.5448189
  89.5097833  54.4599487 153.4372470  89.1778456  54.7644084 151.9919087
  91.5149635  51.1361732 152.5929078  91.5011204  50.2402825 152.2561376
  92.2322063  51.1432396 153.2267364  93.3675766  51.5699072 154.6382206
  93.1093544  52.4916143 154.6366536  92.8360806  51.1729507 155.3282670
  98.3121955  64.6749859 147.4172291  98.4858832  64.1096282 146.6646143
  98.8050846  65.4750754 147.2351781  84.1298915  56.6864528 155.4835850
  83.5852383  57.4624336 155.6156124  85.0078264  57.0335333 155.3254971
  90.9186531  50.0176112 147.8616648  91.0402442  49.0892759 148.0607536
  90.6288574  50.0314798 146.9494964  93.7877722  47.7031023 150.9983368
  93.8099418  47.7670356 150.0435348  94.2045781  46.8635531 151.1923874
 104.1661346  57.4386282 149.0362591 104.6092492  56.6893608 148.6381714
 103.2887856  57.4296419 148.6536323  99.2997127  63.9916624 144.5169189
  99.9948032  64.6123316 144.7356504  99.6420277  63.1411975 144.7921567
 101.1988550  61.4416329 146.0456520 101.7239874  61.7803602 145.3205840
 101.1110903  60.5063345 145.8619655  92.8829211  67.5088313 150.4051773
  92.4434201  67.0164691 151.0984630  93.6337328  66.9661280 150.1643848
  85.3621550  63.6999853 150.4076401  86.1879570  63.4003625 150.0275045
  85.0115602  62.9307476 150.8566190  90.3303083  63.0526322 152.4774075
  89.7083093  62.3897027 152.1776303  91.0007950  63.0787454 151.7947723
  83.5630155  61.6186180 151.3665335  82.7262063  61.1908354 151.1849336
  83.5353801  61.8118623 152.3036126  89.8916590  61.6030245 145.9532535
  90.0404711  62.2865709 145.2999208  90.6983034  61.5835335 146.4681991
 103.7094211  58.9091521 151.4285038 104.5441102  59.3481325 151.5922599
 103.8453339  58.4330174 150.6093284  87.6469223  57.6295423 146.9593604
  87.4015265  56.7257753 147.1573814  87.8165138  57.6312573 146.0173082
  86.9164871  53.3623780 144.4579766  86.2234116  53.4368135 143.8019802
  86.6716623  52.5984124 144.9801283  95.5878527  44.9219382 151.8619257
  95.8680281  44.2542571 152.4879683  96.3729134  45.1148477 151.3493920
  93.3911996  64.0978375 143.4244283  92.8185963  64.7168563 142.9714755
  93.9644789  64.6477737 143.9584205  96.6109255  64.3815526 144.5552865
  97.5439929  64.3161087 144.7585741  96.5232468  65.2171792 144.0967398
  99.2397272  63.6981396 141.5156813  99.1610904  63.3641260 142.4092571
 100.0606939  64.1903164 141.5148285 101.9375463  56.5643135 154.7233131
 101.9051783  55.6259136 154.9092815 102.5476087  56.6427172 153.9898956
  93.7758794  55.4339188 140.7660335  94.7217899  55.3045396 140.8348753
  93.3973039  54.6953850 141.2429764  99.7480679  47.0995194 150.7287227
  99.5505500  46.7910282 151.6130559 100.3580384  47.8256833 150.8585157
  91.9601711  53.3589165 140.7015221  91.0533167  53.0622277 140.7777934
  92.2377692  53.0618983 139.8349507  82.8779652  54.6795528 151.1514267
  82.5582436  53.8260836 150.8588641  82.3313080  54.8944106 151.9072234
  86.6559559  57.3957969 154.8683774  86.8745569  58.3275077 154.8871807
  87.0685333  57.0365943 155.6538577  93.5763777  47.9026054 146.8559462
  92.7664505  47.5573139 147.2314708  94.2648194  47.5933598 147.4447073
  95.5054325  46.9804101 148.4783759  96.0585364  47.3999555 149.1373782
  95.7424412  46.0539849 148.5206715  90.7300496  50.2176100 140.8427200
  91.5919660  50.5430998 141.1023017  90.9150840  49.4307596 140.3300266
  82.7467912  58.2998440 153.1207389  82.0531383  57.8852392 152.6077343
  83.4940903  58.3418976 152.5240807  98.8833132  49.0904626 147.9862423
  98.3031801  49.7489430 147.6040475  98.6169065  48.2681971 147.5749840
  97.3336699  48.4909684 150.1883743  97.8336477  48.6026219 149.3798062
  97.9772307  48.1870737 150.8284552  84.6604654  58.2316693 150.9973403
  84.6375342  58.3304381 150.0455287  84.9705291  59.0781844 151.3190570
  87.3192032  60.2892848 155.1120018  88.2735286  60.2576791 155.0449949
  87.1204556  59.8283472 155.9270244  87.9091414  58.8593964 157.6790816
  88.7284303  59.3538043 157.7025653  88.1828222  57.9425933 157.6508383
  97.6658010  51.2504717 147.0418771  96.7783865  51.5354367 146.8238966
  98.0812000  51.0898480 146.1946048 101.0172547  51.2751238 150.7573110
 101.7932937  51.7647690 151.0297727 100.2920681  51.7009292 151.2144980
  85.6742261  65.8312468 152.1290216  85.5396729  65.0712869 151.5628214
  85.2574323  66.5553368 151.6619005  96.8101224  61.0149391 141.1366791
  97.5137074  61.2199394 141.7524447  96.0863873  61.5826153 141.4015875
  97.6399034  56.7659253 147.2569061  97.5834236  57.2227804 146.4176694
  98.1927377  56.0049937 147.0791904 101.4503840  52.5548984 148.0819181
 101.1940774  52.1545620 148.9127388 100.8256708  53.2692778 147.9569320
 105.7616178  55.2945058 150.5890472 105.2015736  55.3638247 151.3622034
 105.1559681  55.1186042 149.8689968  88.8311387  66.7281785 152.3408658
  88.7143771  67.6727217 152.2387349  88.0103833  66.4255346 152.7294458
  98.7187921  61.4531921 143.1865251  99.5533525  61.0213119 143.0042726
  98.5572264  61.2813934 144.1142146  98.3733814  57.9564034 144.5521590
  98.3182617  57.7908305 143.6110034  97.7479869  58.6640067 144.7083780
  91.6829939  47.4572143 144.1306909  91.6708609  48.4013983 144.2875180
  92.5753361  47.2742288 143.8366370  91.6119503  66.1341033 152.2174665
  90.6615134  66.1342895 152.1039038  91.9151989  65.3873768 151.7010700
  95.4982058  44.0514919 148.3852846  94.7314454  43.4973406 148.5309528
  95.9092763  44.1236788 149.2466997  99.5203904  74.5324581 144.9180443
 100.2934780  73.9853568 144.7793319  99.8729303  75.3968830 145.1294904
 101.8570182  70.6917247 142.5498893 102.1095703  70.1698768 141.7882356
 100.9194741  70.5283393 142.6525576 101.5766471  72.5945353 144.7523268
 101.4602729  71.9190256 145.4204352 101.6868731  72.1077727 143.9355421
 103.5603499  67.0845400 143.4531305 103.7277901  67.9525636 143.8201776
 103.3700668  67.2472682 142.5292595 103.5392720  69.5403057 144.4377972
 103.4192345  69.9860108 145.2763452 102.8445308  69.8888375 143.8791510
 109.2377786  70.0124531 145.2658306 110.1495642  70.2451917 145.0906004
 108.7287433  70.5961575 144.7033385 102.3344216  70.8547909 146.7311538
 103.0368259  71.3068953 147.1985464 102.0024845  70.2131728 147.3591431
  98.0284295  69.4776041 148.9912148  97.2315459  69.5894736 149.5095644
  97.8009888  69.8162694 148.1253039  94.9916295  73.5152944 148.1561139
  95.8291517  73.9249953 147.9394846  95.1694563  72.5752387 148.1261333
 106.8880727  71.1828025 143.8444972 106.3727350  71.9532630 144.0833359
 106.6158035  70.5093161 144.4678033 104.4727838  66.0277726 148.9030210
 103.6169434  65.6384576 148.7235849 104.8854790  66.1069687 148.0429996
 106.6767030  69.0555117 145.6704753 106.3717166  69.3701266 146.5214896
 107.6297472  69.1336537 145.7132086  99.8532190  65.8765007 149.6804318
 100.4275941  65.6540188 148.9477511 100.4403172  65.9453701 150.4332920
 100.1801777  67.9069468 143.7000204  99.3439089  68.2444154 144.0209478
 100.0406546  67.7718448 142.7627341 102.1554857  62.7506256 148.4079388
 101.5019270  62.4355273 147.7836003 102.1135331  62.1281996 149.1339211
 103.2666062  73.0325551 140.3232680 102.3593124  72.8014804 140.5223829
 103.7637094  72.2363170 140.5106661 104.4454296  73.1338146 144.8456670
 103.5365515  72.8497178 144.9429140 104.4749379  73.5537224 143.9859977
 108.7218110  60.4512973 150.4390274 109.0276987  59.5910337 150.1516189
 109.4470715  61.0430593 150.2389268  95.0142466  70.8543660 148.8271872
  94.8166866  70.2613020 148.1022939  94.4589130  70.5495870 149.5447811
 104.1430383  74.6746889 142.1844749 103.7049813  73.9582748 141.7250386
 104.8840824  74.9023004 141.6229840 100.9331550  69.3643826 148.7056844
 100.1199415  69.6637997 149.1122036 101.4290544  68.9699515 149.4231326
  97.5088692  70.3807694 146.5112824  96.5786280  70.3192149 146.7282786
  97.6046164  69.8583646 145.7149466  97.4274241  66.9062507 149.0991066
  97.6881058  67.8207840 148.9900226  98.2491413  66.4386949 149.2487679
 108.2641611  73.5331271 141.7776806 107.6470782  72.8078099 141.6809859
 107.7958099  74.2940631 141.4343880 100.0540157  67.7516695 140.8998110
  99.1769623  67.6305496 140.5360357 100.5297910  66.9602774 140.6476999
  91.5742297  72.5393855 150.9939618  92.2613337  72.2255585 150.4060633
  91.4190426  73.4435220 150.7206869  94.7818851  69.3458551 146.3411016
  95.0772292  68.4369229 146.2878070  93.8806886  69.3246290 146.0192018
  96.5106692  67.0272648 146.4650341  96.1819398  66.1470027 146.2825447
  96.8646063  66.9720317 147.3526730  99.6248515  67.3145618 146.8325819
  99.9644588  67.8431539 146.1104427 100.0720636  67.6526024 147.6084385
 101.6116663  65.8120240 145.0319112 102.3325025  66.1901492 144.5282829
 100.9881967  66.5309116 145.1354090 105.7547785  66.5165389 145.9677444
 105.9711400  67.3990026 145.6666272 105.2741853  66.1251602 145.2383086
 101.7580286  65.3468030 147.8616648 101.8796197  64.4184676 148.0607536
 101.4682328  65.3606716 146.9494964 104.6271476  63.0322940 150.9983368
 104.6493173  63.0962274 150.0435348 105.0439535  62.1927449 151.1923874
  98.4862978  72.9587340 146.9593604  98.2409020  72.0549670 147.1573814
  98.6558892  72.9604491 146.0173082  97.7558625  68.6915698 144.4579766
  97.0627870  68.7660053 143.8019802  97.5110377  67.9276042 144.9801283
 106.4272282  60.2511299 151.8619257 106.7074035  59.5834488 152.4879683
 107.2122889  60.4440395 151.3493920 104.6152549  70.7631106 140.7660335
 105.5611653  70.6337314 140.8348753 104.2366794  70.0245768 141.2429764
 102.7995466  68.6881082 140.7015221 101.8926921  68.3914195 140.7777934
 103.0771447  68.3910900 139.8349507  93.7173406  70.0087446 151.1514267
  93.3976191  69.1552754 150.8588641  93.1706834  70.2236024 151.9072234
 104.4157532  63.2317972 146.8559462 103.6058260  62.8865057 147.2314708
 105.1041948  62.9225516 147.4447073 106.3448080  62.3096019 148.4783759
 106.8979118  62.7291472 149.1373782 106.5818166  61.3831767 148.5206715
 101.5694250  65.5468018 140.8427200 102.4313414  65.8722916 141.1023017
 101.7544595  64.7599513 140.3300266 109.7226887  64.4196544 147.9862423
 109.1425556  65.0781348 147.6040475 109.4562820  63.5973889 147.5749840
 108.5051765  66.5796634 147.0418771 107.6177620  66.8646285 146.8238966
 108.9205754  66.4190398 146.1946048 107.6494978  76.3441309 141.1366791
 108.3530829  76.5491312 141.7524447 106.9257627  76.9118071 141.4015875
 102.5223693  62.7864061 144.1306909 102.5102363  63.7305900 144.2875180
 103.4147115  62.6034206 143.8366370 106.3375813  59.3806837 148.3852846
 105.5708209  58.8265324 148.5309528 106.7486518  59.4528706 149.2466997
  83.9160769  23.7913731 131.2438615  83.2648749  24.3767812 130.8572629
  84.7105132  24.3219926 131.3033652  77.8416397  20.8802868 131.6425749
  78.6147273  20.3331855 131.5038625  78.1941795  21.7447118 131.8540211
  80.1782674  17.0395534 129.2744199  80.4308195  16.5177056 128.5127662
  79.2407233  16.8761680 129.3770883  85.3936035  21.4804163 131.7807599
  84.7581868  21.5538790 132.4928504  85.0633441  22.0697762 131.1026679
  79.6212104  28.6584986 134.8113410  79.5436134  29.6092811 134.8901891
  79.0173748  28.3130859 135.4688336  87.5590278  16.3602818 131.9903613
  88.4708134  16.5930205 131.8151310  87.0499925  16.9439862 131.4278691
  90.0449092  22.2783074 136.7361558  89.3600130  22.6581975 136.1858591
  90.1292942  22.8878401 137.4693506  81.8950473  24.0167139 133.5318950
  81.7596148  24.8618675 133.9603798  82.4360285  24.2186417 132.7684884
  85.2093219  17.5306312 130.5690278  84.6939843  18.3010917 130.8078666
  84.9370528  16.8571449 131.1923340  90.1827493  20.2838667 132.5043452
  89.4056936  19.9449826 132.0598614  90.8618974  20.2891290 131.8298417
  83.4425954  21.5623628 134.0443013  82.9147316  20.8276387 133.7316251
  82.9413457  22.3398304 133.7982982  81.5878554  19.3803838 127.0477987
  80.6805616  19.1493091 127.2469136  82.0849586  18.5841457 127.2351968
  84.4946633  28.0901345 129.9674673  83.8208332  28.3933042 130.5759631
  84.8812455  28.8930426 129.6180130  82.7666788  19.4816433 131.5701977
  81.8578007  19.1975466 131.6674446  82.7961872  19.9015511 130.7105283
  87.9986055  23.0923022 135.3393144  87.5448382  22.2513932 135.3958335
  87.3680022  23.7284421 135.6767924  86.4418994  24.9299519 136.2742962
  86.7341969  25.4904576 135.5555328  86.9517615  25.2228080 137.0296121
  82.4642876  21.0225177 128.9090055  82.0262306  20.3061035 128.4495693
  83.2053317  21.2501291 128.3475147  90.5815990  19.2982374 134.9666374
  90.4433889  19.4883970 134.0387563  90.2252209  20.0601756 135.4234425
  82.6937848  28.2581018 132.1821752  82.8689604  27.7869061 132.9967375
  82.0070636  28.8846784 132.4103013  86.5854103  19.8809558 128.5022113
  85.9683274  19.1556386 128.4055165  86.1170592  20.6418918 128.1589187
  78.3752649  14.0994983 127.6243417  77.4982115  13.9783783 127.2605664
  78.8510402  13.3081061 127.3722306  81.5616575  26.4521273 134.8705938
  80.7784097  26.9942953 134.9644162  82.2609320  26.9695253 135.2700179
  85.9543006  21.0187590 135.0878566  85.0199285  21.1389052 134.9183271
  86.1319674  20.1160056 134.8238576  87.4091788  23.2048730 132.6214753
  87.6851632  23.0905325 133.5308627  86.5396287  22.8066215 132.5826926
  84.0445852  27.4535081 136.2647566  84.2268247  26.6356737 136.7275318
  84.8678838  27.6702773 135.8272456  84.3788018  26.3803266 133.5262615
  84.9075784  25.8695721 132.9132777  84.6416238  26.0645796 134.3908148
  87.4728202  26.3520064 134.1417598  87.6465079  25.7866487 133.3891450
  87.9657093  27.1520959 133.9597088  93.3267593  19.1156487 135.7607897
  93.7698739  18.3663812 135.3627021  92.4494103  19.1066624 135.3781629
  88.4603374  25.6686829 131.2414496  89.1554279  26.2893521 131.4601811
  88.8026524  24.8182180 131.5166874  90.3594797  23.1186534 132.7701827
  90.8846121  23.4573807 132.0451147  90.2717150  22.1833550 132.5864961
  82.0435458  29.1858518 137.1297080  81.6040448  28.6934896 137.8229937
  82.7943575  28.6431485 136.8889155  79.0522837  23.2800450 132.6777842
  79.2010957  23.9635914 132.0244515  79.8589280  23.2605540 133.1927298
  92.8700457  20.5861726 138.1530345  93.7047349  21.0251530 138.3167905
  93.0059586  20.1100379 137.3338591  82.5518242  25.7748580 130.1489589
  81.9792210  26.3938768 129.6960061  83.1251036  26.3247942 130.6829511
  85.7715502  26.0585731 131.2798172  86.7046175  25.9931292 131.4831047
  85.6838715  26.8941997 130.8212704  88.4003519  25.3751601 128.2402119
  88.3217150  25.0411464 129.1337877  89.2213186  25.8673369 128.2393592
  82.9365041  17.1109393 127.4905642  83.8824146  16.9815601 127.5594060
  82.5579286  16.3724055 127.9675070  81.1207958  15.0359370 127.4260527
  80.2139413  14.7392482 127.5023241  81.3983939  14.7389188 126.5594813
  79.8906743  11.8946305 127.5672506  80.7525907  12.2201203 127.8268324
  80.0757087  11.1077801 127.0545572  85.9707471  22.6919596 127.8612098
  86.6743321  22.8969599 128.4769753  85.2470119  23.2596358 128.1261181
  86.8005281  18.4429458 133.9814368  86.7440482  18.8998009 133.1422000
  87.3533623  17.6820142 133.8037211  87.8794168  23.1302125 129.9110558
  88.7139772  22.6983324 129.7288033  87.7178511  22.9584139 130.8387452
  87.5340060  19.6334239 131.2766897  87.4788864  19.4678510 130.3355341
  86.9086116  20.3410272 131.4329087  96.5078443  33.6471777 140.0065734
  97.1456853  33.5278524 139.3029075  96.3899286  34.5952621 140.0653687
  93.3168149  33.5999205 139.9427259  92.9786661  33.4840269 139.0547794
  94.1857918  33.1990370 139.9228265  89.1754965  35.4534681 135.9324150
  88.6119830  35.3624618 135.1640438  89.0607360  34.6334586 136.4126643
  93.7987932  34.7534056 145.9013465  93.7876573  34.3586855 145.0293968
  93.9608572  34.0200129 146.4947236  86.7219397  36.9485873 138.7708371
  87.5140689  36.6076697 138.3554670  86.9616047  37.0580848 139.6910524
  94.7554524  39.1205649 131.2438615  94.1042504  39.7059729 130.8572629
  95.5498887  39.6511844 131.3033652  88.6810151  36.2094786 131.6425749
  89.4541027  35.6623773 131.5038625  89.0335550  37.0739035 131.8540211
  90.5195194  37.5371168 144.8492649  90.2285060  38.4416799 144.7339315
  91.1552178  37.5787696 145.5636718  91.4451400  34.9148017 141.4394008
  92.0414973  34.6904039 140.7250971  91.5026372  34.1732762 142.0419456
  91.0176429  32.3687452 129.2744199  91.2701950  31.8468973 128.5127662
  90.0800988  32.2053598 129.3770883  96.0619712  31.3723230 137.0818942
  96.8482801  30.9542654 136.7309360  96.3258416  32.2769323 137.2500591
  96.2329789  36.8096081 131.7807599  95.5975622  36.8830707 132.4928504
  95.9027195  37.3989680 131.1026679 101.4628139  31.3098464 137.9851921
 102.1953311  30.7397680 138.2189750 100.7067495  30.9220064 138.4258427
  90.7372718  34.2715558 131.4768574  90.6208976  33.5960461 132.1449659
  90.8474977  33.7847932 130.6600727  93.0804259  33.7325705 135.1815263
  92.7162466  33.2056326 135.8928185  93.9371374  33.3424174 135.0081749
  92.7209746  28.7615605 130.1776612  92.8884148  29.6295841 130.5447083
  92.5306915  28.9242887 129.2537901  95.4785079  37.2232584 141.8442442
  95.1785802  38.1257623 141.7358250  95.1336138  36.9564767 142.6963595
  88.9297560  33.6746381 137.8779147  88.0048057  33.5422595 138.0856839
  89.1781973  34.4540600 138.3749089  98.8782222  29.7415124 139.5239880
  97.9699100  29.6730532 139.2298641  98.8269818  30.2187069 140.3521705
  92.6998966  31.2173262 131.1623279  92.5798592  31.6630313 132.0008759
  92.0051555  31.5658580 130.6036817  86.2906371  33.3179654 138.7122936
  86.4198752  33.5714133 139.6262348  85.6103823  33.9107362 138.3927591
  90.4605858  43.9876904 134.8113410  90.3829888  44.9384729 134.8901891
  89.8567502  43.6422777 135.4688336  98.3984033  31.6894736 131.9903613
  99.3101889  31.9222122 131.8151310  97.8893680  32.2731780 131.4278691
  96.6824800  36.1119363 145.6264905  97.0908156  35.6701774 144.8819538
  95.9602062  35.5371991 145.8799098  93.0355870  31.0491970 142.9998462
  93.8817065  31.4731384 143.1433111  92.9754508  30.3925594 143.6937025
  97.0053615  36.6720554 139.3817194  96.3762477  36.8366268 138.6793262
  96.6179277  37.0862164 140.1528158 100.8842847  37.6074992 136.7361558
 100.1993885  37.9873893 136.1858591 100.9686696  38.2170318 137.4693506
  98.1393778  35.2534951 143.3356902  98.3510674  35.8966711 142.6591283
  98.0923527  34.4197267 142.8678832  95.7420007  27.8652771 140.2393474
  94.8804486  28.1634025 140.5310211  95.7682442  28.0823170 139.3074506
  92.5581577  36.4094962 136.6467279  93.0219922  36.6882665 135.8571902
  92.2938375  35.5078407 136.4640370  89.4505658  35.9566444 139.5847043
  90.0207015  36.3853712 138.9464527  90.0413770  35.6749028 140.2831228
  91.4950463  32.5318114 133.4556845  92.1974506  32.9839158 133.9230771
  91.1631091  31.8901933 134.0836738  85.2375797  30.7901667 138.7573978
  84.4474851  31.0459196 138.2814089  85.7287044  31.6050005 138.8626019
  99.2539606  38.1306906 141.5079259 100.0757050  37.7287094 141.2261941
  99.2502009  38.0275140 142.4595375  87.1890542  31.1546246 135.7157455
  86.3921705  31.2664941 136.2340950  86.9616134  31.4932899 134.8498345
  93.0196210  37.6790950 143.6639969  93.0840642  38.1411357 144.4998141
  92.3107134  37.0488314 143.7922279  92.7344227  39.3459057 133.5318950
  92.5989902  40.1910593 133.9603798  93.2754040  39.5478335 132.7684884
  86.1873625  36.8634495 134.1046875  86.6998145  37.6577745 134.2552440
  86.8396338  36.1660786 134.0380476  87.9968509  39.9800251 136.1869628
  88.1735138  40.9018216 135.9990612  88.7925343  39.6658671 136.6164008
  94.3612704  39.9682624 147.6619292  93.9176558  39.1819002 147.3440196
  95.0229917  40.1561774 146.9963183  89.1199825  41.4978425 142.1879970
  89.6707250  41.3695488 141.4156964  88.2811301  41.7973314 141.8374863
  96.4593942  40.2485423 145.6900693  96.4412417  41.0694305 145.1980962
  97.3813862  40.1239499 145.9150834  92.9166996  37.7629553 146.5324201
  93.4495333  37.0017841 146.3023509  92.3881077  37.4703205 147.2748356
  84.1522542  35.1923149 134.8806445  84.9897764  35.6020158 134.6640153
  84.3300809  34.2522592 134.8506639  96.0486974  32.8598230 130.5690278
  95.5333597  33.6302835 130.8078666  95.7764282  32.1863366 131.1923340
  93.6334085  27.7047931 135.6275517  92.7775681  27.3154781 135.4481155
  94.0461036  27.7839892 134.7675302  95.1633231  25.2394274 140.0267076
  94.6598027  25.2024409 139.2134882  95.4563838  26.1487017 140.0863733
  91.4076117  25.3233004 139.0333258  92.2729114  25.1275812 138.6739148
  91.4753626  25.0943356 139.9602615 101.0221248  35.6130585 132.5043452
 100.2450691  35.2741744 132.0598614 101.7012729  35.6183208 131.8298417
  95.8373277  30.7325322 132.3950060  95.5323412  31.0471471 133.2460203
  96.7903719  30.8106742 132.4377393  94.2819709  36.8915545 134.0443013
  93.7541070  36.1568305 133.7316251  93.7807211  37.6690222 133.7982982
  99.2612555  35.0864566 139.1610060  98.6036229  35.7763827 139.2490188
 100.0652954  35.4760998 139.5044046  89.0138436  27.5535212 136.4049625
  89.5882188  27.3310393 135.6722818  89.6009419  27.6223906 137.1578226
  98.0718014  33.4408939 137.2114002  98.5849895  34.0738930 137.7135711
  98.7219237  32.8410134 136.8457362  89.3408023  29.5839673 130.4245510
  88.5045336  29.9214359 130.7454785  89.2012793  29.4488653 129.4872647
  91.3161104  24.4276461 135.1324694  90.6625516  24.1125478 134.5081309
  91.2741578  23.8052201 135.8584517  92.4272309  34.7095756 127.0477987
  91.5199371  34.4785009 127.2469136  92.9243341  33.9133375 127.2351968
  95.3340388  43.4193263 129.9674673  94.6602087  43.7224960 130.5759631
  95.7206210  44.2222343 129.6180130  94.5498844  30.9158394 139.4572342
  93.6321406  31.1373341 139.2994030  94.9658988  30.9904705 138.5984049
  95.3333892  32.3149810 134.5875022  96.0805711  32.8271207 134.2782144
  95.6025482  31.9933863 135.4479416  93.6060542  34.8108351 131.5701977
  92.6971762  34.5267383 131.6674446  93.6355626  35.2307429 130.7105283
  98.8379810  38.4214940 135.3393144  98.3842137  37.5805850 135.3958335
  98.2073776  39.0576338 135.6767924  97.7812729  29.3506926 136.5693812
  97.0435486  28.8384312 136.9004054  98.0339503  28.9107308 135.7577089
  97.2812749  40.2591437 136.2742962  97.5735723  40.8196494 135.5555328
  97.7911370  40.5519998 137.0296121  97.8824357  22.1283178 137.1635581
  98.1883233  21.2680542 136.8761496  98.6076961  22.7200798 136.9634575
  84.1748713  32.5313865 135.5517179  83.9773113  31.9383225 134.8268245
  83.6195377  32.2266075 136.2693118  92.1545436  32.4236971 137.6711772
  92.2094046  31.4710808 137.5954249  91.3436638  32.5796410 138.1553070
  93.3036630  36.3517094 128.9090055  92.8656060  35.6352953 128.4495693
  94.0447071  36.5793209 128.3475147  90.0937796  31.0414031 135.4302151
  89.2805662  31.3408201 135.8367343  90.5896790  30.6469720 136.1476633
  92.2446374  41.0371788 137.3636416  92.2022553  41.2632634 136.4344948
  93.1609073  40.8035162 137.5122217  95.6912008  31.5055855 144.2617045
  96.0461396  31.7327329 145.1211510  96.3384139  31.8374232 143.6394300
 101.4209745  34.6274291 134.9666374 101.2827644  34.8175887 134.0387563
 101.0645964  35.3893674 135.4234425  89.5851871  28.6132386 141.0463386
  90.2251250  28.4721146 140.3486349  88.7529402  28.3266900 140.6701988
 101.4479125  36.6950818 139.9777645 101.8815631  36.6026107 140.8260699
 102.1610705  36.6708319 139.3397661  90.3612175  37.9134817 137.1598378
  91.1552773  37.4185137 136.9580953  89.6503867  37.3852680 136.7966084
  95.1807019  40.2952912 141.5110746  95.2344042  40.8643849 142.2788462
  94.3121801  40.4654797 141.1464783  86.6694938  32.0577899 133.2358131
  85.7392527  31.9962354 133.4528093  86.7652410  31.5353851 132.4394772
  86.5880487  28.5832711 135.8236373  86.8487305  29.4978045 135.7145533
  87.4097660  28.1157154 135.9732985 102.3094674  36.7374519 142.5110531
 102.5030564  37.6420329 142.7569806 102.2095292  36.2781938 143.3449116
  94.1395119  34.4613174 143.0697678  95.0687179  34.6124334 142.8966645
  93.7186149  34.5497195 142.2146324  92.9383451  38.4863839 140.8396215
  92.7994537  38.1182623 141.7122153  92.1498047  39.0011478 140.6680173
  93.5331603  43.5872935 132.1821752  93.7083359  43.1160979 132.9967375
  92.8464391  44.2138702 132.4103013  94.4888666  37.8645442 138.2285053
  94.1538499  37.8246212 139.1242703  93.9892612  37.1990157 137.7555463
  97.4247858  35.2101476 128.5022113  96.8077028  34.4848304 128.4055165
  96.9564346  35.9710836 128.1589187  91.0915211  32.9833031 143.2421314
  91.8014829  32.3426223 143.2007932  91.0484519  33.2345926 144.1647495
  99.0801989  39.9200384 146.1627893  99.0214536  39.2359604 145.4958476
  99.4821508  40.6619374 145.7108519  88.0992688  46.7362298 138.9561612
  88.3389286  47.3680822 139.6340631  87.2561885  46.3850338 139.2426971
  89.2146404  29.4286900 127.6243417  88.3375870  29.3075701 127.2605664
  89.6904157  28.6372978 127.3722306  99.0819397  37.8839968 144.3941873
  98.1946175  37.5465890 144.5168272  99.6517948  37.1522999 144.6310638
  80.7348544  34.2164060 137.7184924  81.4219584  33.9025790 137.1305940
  80.5796672  35.1205425 137.4452176  92.6120550  42.5441421 141.3603116
  92.5390722  43.3496392 141.8722421  92.1697943  42.7433386 140.5351137
  92.4010330  41.7813191 134.8705938  91.6177852  42.3234871 134.9644162
  93.1003075  42.2987170 135.2700179  95.7106980  27.5907820 137.5140143
  96.2075679  26.8377782 137.1941213  94.9393961  27.6272137 136.9483352
 103.5636737  33.2948186 139.1558434 103.5526613  34.1772901 138.7852368
 102.6954117  32.9419736 138.9612972  95.0719234  42.4428255 143.5161275
  95.7847206  43.0775719 143.4437176  94.5809262  42.5392121 142.7001277
  96.7936760  36.3479507 135.0878566  95.8593039  36.4680970 134.9183271
  96.9713429  35.4451974 134.8238576  92.2941949  29.7325203 137.2411828
  91.9239736  29.1796243 137.9292733  92.7901041  29.1283336 136.6886828
 100.1809312  32.1896827 135.6228601 100.6469764  33.0224818 135.5488903
 100.6316812  31.7241808 136.3273859  90.1231147  40.1922698 144.3366846
  90.8240607  40.8259181 144.4896240  89.6526262  40.5337430 143.5762485
  98.2485543  38.5340648 132.6214753  98.5245387  38.4197242 133.5308627
  97.3790042  38.1358133 132.5826926  97.9232433  32.7467305 142.1619396
  97.2703883  32.9943213 141.5071849  98.3012813  31.9331444 141.8281873
  94.8839607  42.7826999 136.2647566  95.0662001  41.9648655 136.7275318
  95.7072593  42.9994691 135.8272456  95.2181772  41.7095184 133.5262615
  95.7469539  41.1987638 132.9132777  95.4809992  41.3937714 134.3908148
  85.7198865  39.7259053 141.2697948  86.3052302  38.9802741 141.4025852
  85.5223704  40.0363010 142.1534612  88.5737520  42.7610300 136.2860391
  87.9047896  43.2456428 135.8024431  88.4350390  43.0079521 137.2003769
  92.7142789  44.7954044 142.8843049  93.2661097  44.9585665 143.6492134
  93.0548982  45.3858482 142.2123074  97.5653663  39.6215301 148.7391703
  98.1093567  40.2345260 148.2446658  96.9840508  40.1794880 149.2558716
  83.9425098  31.0228755 133.0656323  84.2378539  30.1139434 133.0123376
  83.0413133  31.0016495 132.7437325  95.8511176  42.7436019 139.8706731
  95.7262316  41.9425759 139.3617677  96.5090267  43.2382213 139.3820701
  87.4719345  29.0984752 139.0483871  86.7505930  29.7120720 138.9091345
  88.2612600  29.6342517 138.9700517  97.9146085  40.5445040 141.4986281
  96.9676420  40.4250391 141.4264608  98.2628858  39.6567538 141.5812543
  85.6712939  28.7042853 133.1895648  85.3425645  27.8240232 133.0070754
  86.0252310  28.6490522 134.0772037  94.9192518  40.3397756 137.6990633
  94.7717480  39.4114463 137.8798203  95.7446011  40.3617847 137.2147709
  88.7854762  28.9915823 133.5571126  89.1250835  29.5201744 132.8349734
  89.2326883  29.3296229 134.3329692  98.5226640  41.1626315 138.7855506
  99.4473187  40.9569176 138.6479957  98.3541943  40.9142716 139.6944848
  90.7722909  27.4890444 131.7564418  91.4931272  27.8671697 131.2528135
  90.1488214  28.2079321 131.8599396  94.9154032  28.1935593 132.6922751
  95.1317647  29.0760231 132.3911579  94.4348099  27.8021807 131.9628393
  89.6553254  31.1521307 139.2693495  89.5097834  31.4661610 140.1617777
  89.1778457  31.7706207 138.7164394  91.5149637  28.1423855 139.3174385
  91.5011205  27.2464948 138.9806683  92.2322065  28.1494518 139.9512671
  93.3675767  28.5761195 141.3627512  93.1093545  29.4978266 141.3611843
  92.8360808  28.1791629 142.0527976  98.3121956  41.6811982 134.1417598
  98.4858834  41.1158404 133.3891450  98.8050847  42.4812877 133.9597088
  84.1298916  33.6926651 142.2081156  83.5852384  34.4686459 142.3401431
  85.0078266  34.0397456 142.0500278  90.9186532  27.0238235 134.5861955
  91.0402444  26.0954881 134.7852842  90.6288575  27.0376921 133.6740270
  93.7877723  24.7093145 137.7228675  93.8099420  24.7732478 136.7680654
  94.2045782  23.8697654 137.9169181 104.1661347  34.4448405 135.7607897
 104.6092493  33.6955730 135.3627021 103.2887857  34.4358541 135.3781629
  99.2997128  40.9978746 131.2414496  99.9948033  41.6185439 131.4601811
  99.6420279  40.1474098 131.5166874 101.1988552  38.4478452 132.7701827
 101.7239876  38.7865725 132.0451147 101.1110904  37.5125467 132.5864961
  92.8608600  42.3612526 144.8991703  93.1695727  42.1161672 145.7714403
  93.6584082  42.5659164 144.4110574  92.8829212  44.5150435 137.1297080
  92.4434203  44.0226814 137.8229937  93.6337329  43.9723403 136.8889155
  85.3621551  40.7061976 137.1321708  86.1879571  40.4065748 136.7520351
  85.0115603  39.9369598 137.5811497  90.3303085  40.0588444 139.2019382
  89.7083094  39.3959149 138.9021609  91.0007951  40.0849576 138.5193029
  83.5630156  38.6248303 138.0910642  82.7262065  38.1970477 137.9094643
  83.5353802  38.8180746 139.0281433  89.8916591  38.6092368 132.6777842
  90.0404712  39.2927832 132.0244515  90.6983035  38.5897458 133.1927298
 103.7094212  35.9153643 138.1530345 104.5441103  36.3543447 138.3167905
 103.8453341  35.4392296 137.3338591  87.6469224  34.6357545 133.6838911
  87.4015266  33.7319875 133.8819121  87.8165139  34.6374696 132.7418389
  86.9164872  30.3685903 131.1825072  86.2234117  30.4430258 130.5265108
  86.6716624  29.6046246 131.7046589  95.5878528  21.9281504 138.5864563
  95.8680282  21.2604693 139.2124990  96.3729135  22.1210600 138.0739227
  93.3911997  41.1040498 130.1489589  92.8185964  41.7230685 129.6960061
  93.9644791  41.6539860 130.6829511  96.6109257  41.3877648 131.2798172
  97.5439930  41.3223210 131.4831047  96.5232470  42.2233915 130.8212704
  99.2397273  40.7043519 128.2402119  99.1610905  40.3703382 129.1337877
 100.0606940  41.1965286 128.2393592 101.9375465  33.5705258 141.4478438
 101.9051785  32.6321259 141.6338122 102.5476088  33.6489295 140.7144263
  93.7758795  32.4401311 127.4905642  94.7217900  32.3107519 127.5594060
  93.3973040  31.7015973 127.9675070  99.7480680  24.1057317 137.4532534
  99.5505501  23.7972405 138.3375866 100.3580386  24.8318956 137.5830464
  91.9601713  30.3651287 127.4260527  91.0533168  30.0684400 127.5023241
  92.2377694  30.0681105 126.5594813  82.8779653  31.6857651 137.8759574
  82.5582437  30.8322959 137.5833948  82.3313081  31.9006229 138.6317541
  86.6559561  34.4020092 141.5929080  86.8745570  35.3337199 141.6117114
  87.0685334  34.0428066 142.3783884  93.5763778  24.9088177 133.5804769
  92.7664507  24.5635262 133.9560015  94.2648195  24.5995721 134.1692380
  95.5054327  23.9866224 135.2029065  96.0585365  24.4061677 135.8619088
  95.7424413  23.0601972 135.2452021  90.7300497  27.2238222 127.5672506
  91.5919661  27.5493121 127.8268324  90.9150841  26.4369718 127.0545572
  82.7467913  35.3060562 139.8452695  82.0531384  34.8914515 139.3322650
  83.4940904  35.3481099 139.2486114  98.8833134  26.0966749 134.7107729
  98.3031803  26.7551553 134.3285782  98.6169066  25.2744093 134.2995147
  97.3336700  25.4971807 136.9129050  97.8336478  25.6088341 136.1043369
  97.9772308  25.1932859 137.5529858  84.6604656  35.2378816 137.7218710
  84.6375344  35.3366503 136.7700593  84.9705292  36.0843967 138.0435876
  87.3192033  37.2954971 141.8365324  88.2735287  37.2638913 141.7695256
  87.1204557  36.8345595 142.6515550  87.9091416  35.8656087 144.4036122
  88.7284305  36.3600166 144.4270959  88.1828223  34.9488055 144.3753690
  97.6658012  28.2566839 133.7664078  96.7783867  28.5416490 133.5484272
  98.0812001  28.0960603 132.9191355 101.0172548  28.2813360 137.4818417
 101.7932938  28.7709813 137.7543034 100.2920682  28.7071414 137.9390286
  85.6742262  42.8374590 138.8535522  85.5396730  42.0774991 138.2873520
  85.2574324  43.5615490 138.3864311  96.8101225  38.0211514 127.8612098
  97.5137075  38.2261516 128.4769753  96.0863874  38.5888276 128.1261181
  97.6399035  33.7721375 133.9814368  97.5834237  34.2289927 133.1422000
  98.1927378  33.0112060 133.8037211 101.4503841  29.5611107 134.8064487
 101.1940776  29.1607743 135.6372695 100.8256709  30.2754901 134.6814626
 105.7616179  32.3007180 137.3135779 105.2015737  32.3700370 138.0867341
 105.1559683  32.1248165 136.5935275  88.8311388  43.7343907 139.0653965
  88.7143772  44.6789340 138.9632655  88.0103834  43.4317469 139.4539764
  98.7187923  38.4594043 129.9110558  99.5533527  38.0275242 129.7288033
  98.5572266  38.2876057 130.8387452  98.3733815  34.9626156 131.2766897
  98.3182619  34.7970428 130.3355341  97.7479870  35.6702189 131.4329087
  91.6829940  24.4634265 130.8552215  91.6708610  25.4076105 131.0120486
  92.5753362  24.2804411 130.5611677  89.8565902  44.3872169 142.2809893
  90.7593149  44.4195780 142.5976388  89.6303272  43.4572620 142.2956229
  91.6119504  43.1403156 138.9419972  90.6615135  43.1405017 138.8284344
  91.9151990  42.3935890 138.4256007  95.4982060  21.0577042 135.1098152
  94.7314455  20.5035529 135.2554835  95.9092765  21.1298911 135.9712304
 107.3472198  48.9763694 140.0065734 107.9850608  48.8570442 139.3029075
 107.2293041  49.9244538 140.0653687 104.1561904  48.9291122 139.9427259
 103.8180415  48.8132187 139.0547794 105.0251672  48.5282287 139.9228265
 100.0148720  50.7826599 135.9324150  99.4513585  50.6916536 135.1640438
  99.9001115  49.9626503 136.4126643 104.6381687  50.0825974 145.9013465
 104.6270328  49.6878772 145.0293968 104.8002326  49.3492047 146.4947236
  97.5613152  52.2777790 138.7708371  98.3534444  51.9368615 138.3554670
  97.8009802  52.3872765 139.6910524 105.5948278  54.4497566 131.2438615
 104.9436258  55.0351647 130.8572629 106.3892641  54.9803761 131.3033652
  99.5203906  51.5386704 131.6425749 100.2934782  50.9915691 131.5038625
  99.8729304  52.4030953 131.8540211 101.3588948  52.8663086 144.8492649
 101.0678814  53.7708717 144.7339315 101.9945932  52.9079614 145.5636718
 102.2845155  50.2439934 141.4394008 102.8808727  50.0195957 140.7250971
 102.3420126  49.5024680 142.0419456 101.8570183  47.6979370 129.2744199
 102.1095704  47.1760891 128.5127662 100.9194742  47.5345515 129.3770883
 106.9013466  46.7015148 137.0818942 107.6876555  46.2834571 136.7309360
 107.1652170  47.6061240 137.2500591 107.0723544  52.1387998 131.7807599
 106.4369376  52.2122625 132.4928504 106.7420950  52.7281597 131.1026679
 112.3021893  46.6390381 137.9851921 113.0347065  46.0689598 138.2189750
 111.5461249  46.2511982 138.4258427 101.5766472  49.6007476 131.4768574
 101.4602730  48.9252379 132.1449659 101.6868732  49.1139850 130.6600727
 103.9198013  49.0617623 135.1815263 103.5556220  48.5348244 135.8928185
 104.7765129  48.6716092 135.0081749 103.5603500  44.0907522 130.1776612
 103.7277902  44.9587759 130.5447083 103.3700669  44.2534804 129.2537901
 106.3178833  52.5524501 141.8442442 106.0179556  53.4549540 141.7358250
 105.9729893  52.2856685 142.6963595  99.7691315  49.0038298 137.8779147
  98.8441811  48.8714512 138.0856839 100.0175728  49.7832517 138.3749089
 109.7175977  45.0707042 139.5239880 108.8092854  45.0022450 139.2298641
 109.6663573  45.5478987 140.3521705 103.5392721  46.5465180 131.1623279
 103.4192346  46.9922231 132.0008759 102.8445309  46.8950498 130.6036817
  97.1300126  48.6471572 138.7122936  97.2592507  48.9006051 139.6262348
  96.4497577  49.2399280 138.3927591 101.2999613  59.3168822 134.8113410
 101.2223643  60.2676647 134.8901891 100.6961257  58.9714694 135.4688336
 103.7916843  46.4896687 147.4674777 103.0150177  47.0490607 147.4577642
 104.4307406  46.9753470 147.9889647 109.2377787  47.0186653 131.9903613
 110.1495643  47.2514040 131.8151310 108.7287434  47.6023697 131.4278691
 102.0463215  49.2982141 147.0292744 102.7877899  49.8367185 146.7527568
 101.3400201  49.9248429 147.1864296 107.5218555  51.4411281 145.6264905
 107.9301911  50.9993692 144.8819538 106.7995816  50.8663909 145.8799098
 103.8749625  46.3783888 142.9998462 104.7210820  46.8023301 143.1433111
 103.8148262  45.7217512 143.6937025 107.8447369  52.0012472 139.3817194
 107.2156232  52.1658186 138.6793262 107.4573031  52.4154081 140.1528158
 111.7236601  52.9366909 136.7361558 111.0387639  53.3165811 136.1858591
 111.8080451  53.5462236 137.4693506 108.9787533  50.5826869 143.3356902
 109.1904428  51.2258628 142.6591283 108.9317281  49.7489185 142.8678832
 106.5813762  43.1944689 140.2393474 105.7198241  43.4925943 140.5310211
 106.6076196  43.4115088 139.3074506 103.3975331  51.7386880 136.6467279
 103.8613677  52.0174583 135.8571902 103.1332129  50.8370324 136.4640370
 100.2899412  51.2858361 139.5847043 100.8600769  51.7145630 138.9464527
 100.8807524  51.0040946 140.2831228 102.3344217  47.8610032 133.4556845
 103.0368261  48.3131076 133.9230771 102.0024846  47.2193851 134.0836738
 100.7824579  46.4521789 147.8308054 100.1523239  47.1338070 148.0643451
 100.6760667  46.3404870 146.8861192  96.0769551  46.1193585 138.7573978
  95.2868605  46.3751113 138.2814089  96.5680799  46.9341923 138.8626019
 110.0933361  53.4598824 141.5079259 110.9150805  53.0579011 141.2261941
 110.0895764  53.3567058 142.4595375  98.0284297  46.4838164 135.7157455
  97.2315460  46.5956858 136.2340950  97.8009889  46.8224816 134.8498345
 103.8589964  53.0082867 143.6639969 103.9234397  53.4703274 144.4998141
 103.1500888  52.3780232 143.7922279  94.3607254  46.3724075 141.1888969
  94.6115293  47.2571085 141.4546545  94.8966803  46.1928677 140.4164061
 103.5737982  54.6750975 133.5318950 103.4383657  55.5202510 133.9603798
 104.1147794  54.8770252 132.7684884  97.0267379  52.1926413 134.1046875
  97.5391900  52.9869663 134.2552440  97.6790092  51.4952703 134.0380476
  98.8362264  55.3092169 136.1869628  99.0128892  56.2310134 135.9990612
  99.6319098  54.9950588 136.6164008  98.1214621  47.3556801 146.0631791
  98.0068136  46.4542058 146.3638890  97.2659138  47.6020498 145.7116608
 105.2006458  55.2974541 147.6619292 104.7570312  54.5110920 147.3440196
 105.8623672  55.4853692 146.9963183  99.9593579  56.8270343 142.1879970
 100.5101005  56.6987406 141.4156964  99.1205055  57.1265232 141.8374863
 107.2987696  55.5777341 145.6900693 107.2806172  56.3986222 145.1980962
 108.2207616  55.4531416 145.9150834 103.7560751  53.0921471 146.5324201
 104.2889087  52.3309759 146.3023509 103.2274832  52.7995122 147.2748356
  94.9916296  50.5215067 134.8806445  95.8291518  50.9312075 134.6640153
  95.1694564  49.5814509 134.8506639 106.8880728  48.1890148 130.5690278
 106.3727352  48.9594752 130.8078666 106.6158037  47.5155284 131.1923340
 104.4727839  43.0339848 135.6275517 103.6169436  42.6446699 135.4481155
 104.8854791  43.1131809 134.7675302 106.0026986  40.5686192 140.0267076
 105.4991781  40.5316327 139.2134882 106.2957593  41.4778934 140.0863733
 102.2469872  40.6524921 139.0333258 103.1122869  40.4567730 138.6739148
 102.3147381  40.4235273 139.9602615 111.8615002  50.9422502 132.5043452
 111.0844445  50.6033662 132.0598614 112.5406483  50.9475126 131.8298417
 106.6767031  46.0617240 132.3950060 106.3717167  46.3763389 133.2460203
 107.6297473  46.1398660 132.4377393 105.1213463  52.2207463 134.0443013
 104.5934825  51.4860223 133.7316251 104.6200966  52.9982139 133.7982982
 110.1006309  50.4156484 139.1610060 109.4429984  51.1055745 139.2490188
 110.9046708  50.8052916 139.5044046  99.8532191  42.8827129 136.4049625
 100.4275943  42.6602311 135.6722818 100.4403173  42.9515824 137.1578226
 108.9111768  48.7700856 137.2114002 109.4243650  49.4030848 137.7135711
 109.5612992  48.1702052 136.8457362 100.1801778  44.9131590 130.4245510
  99.3439090  45.2506277 130.7454785 100.0406548  44.7780570 129.4872647
 102.1554859  39.7568378 135.1324694 101.5019271  39.4417395 134.5081309
 102.1135333  39.1344119 135.8584517 103.2666063  50.0387673 127.0477987
 102.3593125  49.8076927 127.2469136 103.7637095  49.2425293 127.2351968
 106.1734142  58.7485181 129.9674673 105.4995841  59.0516877 130.5759631
 106.5599964  59.5514261 129.6180130 105.3892599  46.2450312 139.4572342
 104.4715160  46.4665259 139.2994030 105.8052743  46.3196622 138.5984049
 106.1727647  47.6441728 134.5875022 106.9199466  48.1563125 134.2782144
 106.4419236  47.3225780 135.4479416 104.4454297  50.1400268 131.5701977
 103.5365516  49.8559301 131.6674446 104.4749381  50.5599347 130.7105283
 109.6773564  53.7506858 135.3393144 109.2235891  52.9097768 135.3958335
 109.0467531  54.3868256 135.6767924 108.6206484  44.6798844 136.5693812
 107.8829241  44.1676230 136.9004054 108.8733257  44.2399225 135.7577089
 108.1206503  55.5883354 136.2742962 108.4129478  56.1488412 135.5555328
 108.6305124  55.8811915 137.0296121 108.7218111  37.4575096 137.1635581
 109.0276988  36.5972459 136.8761496 109.4470716  38.0492716 136.9634575
  95.0142467  47.8605782 135.5517179  94.8166867  47.2675143 134.8268245
  94.4589131  47.5557993 136.2693118 102.9939191  47.7528889 137.6711772
 103.0487801  46.8002725 137.5954249 102.1830393  47.9088328 138.1553070
 104.1430385  51.6809012 128.9090055 103.7049815  50.9644871 128.4495693
 104.8840825  51.9085127 128.3475147 100.9331551  46.3705949 135.4302151
 100.1199416  46.6700119 135.8367343 101.4290545  45.9761637 136.1476633
 103.0840129  56.3663706 137.3636416 103.0416307  56.5924552 136.4344948
 104.0002828  56.1327080 137.5122217 106.5305762  46.8347773 144.2617045
 106.8855150  47.0619246 145.1211510 107.1777894  47.1666150 143.6394300
 112.2603499  49.9566209 134.9666374 112.1221398  50.1467805 134.0387563
 111.9039718  50.7185592 135.4234425 100.4245626  43.9424304 141.0463386
 101.0645005  43.8013063 140.3486349  99.5923156  43.6558817 140.6701988
 112.2872879  52.0242736 139.9777645 112.7209386  51.9318025 140.8260699
 113.0004460  52.0000236 139.3397661 101.2005929  53.2426735 137.1598378
 101.9946528  52.7477055 136.9580953 100.4897622  52.7144598 136.7966084
 106.0200774  55.6244830 141.5110746 106.0737796  56.1935766 142.2788462
 105.1515555  55.7946715 141.1464783  97.5088693  47.3869816 133.2358131
  96.5786281  47.3254272 133.4528093  97.6046165  46.8645769 132.4394772
  97.4274242  43.9124629 135.8236373  97.6881059  44.8269962 135.7145533
  98.2491414  43.4449072 135.9732985  98.8999167  45.3262386 142.9935197
  99.5722221  45.1179748 142.3447846  98.0728954  45.1284472 142.5540429
 113.1488429  52.0666437 142.5110531 113.3424319  52.9712247 142.7569806
 113.0489047  51.6073856 143.3449116 104.9788874  49.7905092 143.0697678
 105.9080934  49.9416252 142.8966645 104.5579904  49.8789113 142.2146324
 103.7777205  53.8155757 140.8396215 103.6388291  53.4474541 141.7122153
 102.9891802  54.3303396 140.6680173 104.3725357  58.9164853 132.1821752
 104.5477113  58.4452896 132.9967375 103.6858145  59.5430619 132.4103013
 105.3282421  53.1937359 138.2285053 104.9932253  53.1538129 139.1242703
 104.8286366  52.5282075 137.7555463  99.3026665  48.6004989 143.7537634
  99.1646462  47.8685228 144.3549173 100.2131588  48.5113889 143.4721822
 108.2641612  50.5393394 128.5022113 107.6470783  49.8140222 128.4055165
 107.7958101  51.3002754 128.1589187 101.9308965  48.3124949 143.2421314
 102.6408584  47.6718141 143.2007932 101.8878273  48.5637843 144.1647495
 109.9195744  55.2492302 146.1627893 109.8608290  54.5651522 145.4958476
 110.3215262  55.9911292 145.7108519 100.6437899  45.2990166 145.0616953
 100.1075256  44.8480905 145.7138550 100.0554608  45.4336075 144.3187418
  98.9386443  62.0654216 138.9561612  99.1783041  62.6972740 139.6340631
  98.0955639  61.7142256 139.2426971 100.0540158  44.7578818 127.6243417
  99.1769624  44.6367619 127.2605664 100.5297911  43.9664896 127.3722306
 109.9213151  53.2131886 144.3941873 109.0339930  52.8757808 144.5168272
 110.4911702  52.4814917 144.6310638  91.5742298  49.5455978 137.7184924
  92.2613338  49.2317708 137.1305940  91.4190427  50.4497342 137.4452176
  96.3777020  44.4346174 142.1469948  96.2935209  43.8271844 141.4120358
  95.5559727  44.9255192 142.1479444 103.4514305  57.8733338 141.3603116
 103.3784476  58.6788310 141.8722421 103.0091698  58.0725304 140.5351137
 103.2404084  57.1105108 134.8705938 102.4571606  57.6526788 134.9644162
 103.9396829  57.6279088 135.2700179 106.5500734  42.9199738 137.5140143
 107.0469434  42.1669700 137.1941213 105.7787716  42.9564054 136.9483352
 114.4030492  48.6240103 139.1558434 114.3920368  49.5064819 138.7852368
 113.5347871  48.2711654 138.9612972 105.9112988  57.7720172 143.5161275
 106.6240960  58.4067637 143.4437176 105.4203017  57.8684038 142.7001277
 107.6330515  51.6771425 135.0878566 106.6986794  51.7972887 134.9183271
 107.8107183  50.7743892 134.8238576 103.1335703  45.0617121 137.2411828
 102.7633491  44.5088161 137.9292733 103.6294795  44.4575254 136.6886828
 111.0203066  47.5188744 135.6228601 111.4863519  48.3516736 135.5488903
 111.4710567  47.0533726 136.3273859 100.9624902  55.5214616 144.3366846
 101.6634361  56.1551099 144.4896240 100.4920017  55.8629347 143.5762485
 109.0879297  53.8632565 132.6214753 109.3639141  53.7489160 133.5308627
 108.2183796  53.4650050 132.5826926 108.7626188  48.0759223 142.1619396
 108.1097638  48.3235131 141.5071849 109.1406567  47.2623361 141.8281873
 105.7233361  58.1118916 136.2647566 105.9055756  57.2940572 136.7275318
 106.5466347  58.3286609 135.8272456 106.0575527  57.0387101 133.5262615
 106.5863293  56.5279556 132.9132777 106.3203747  56.7229632 134.3908148
  96.5592620  55.0550971 141.2697948  97.1446056  54.3094659 141.4025852
  96.3617458  55.3654927 142.1534612  99.4131275  58.0902218 136.2860391
  98.7441650  58.5748346 135.8024431  99.2744145  58.3371439 137.2003769
  91.1510274  47.6256571 139.9902391  91.1894374  47.0920162 140.7839509
  90.6450567  47.0991776 139.3713369 103.5536543  60.1245962 142.8843049
 104.1054852  60.2877583 143.6492134 103.8942737  60.7150399 142.2123074
  98.5301037  42.4721111 143.4864934  98.5942363  43.3335942 143.0742331
  98.4668157  41.8595113 142.7537292  98.0053309  44.5444244 147.1337968
  98.6325348  44.1621321 147.7475492  97.1481228  44.3258446 147.4993660
 108.4047418  54.9507219 148.7391703 108.9487322  55.5637177 148.2446658
 107.8234263  55.5086798 149.2558716  94.7818852  46.3520673 133.0656323
  95.0772293  45.4431352 133.0123376  93.8806888  46.3308413 132.7437325
 106.6904931  58.0727937 139.8706731 106.5656070  57.2717677 139.3617677
 107.3484022  58.5674131 139.3820701  98.3113099  44.4276670 139.0483871
  97.5899685  45.0412637 138.9091345  99.1006355  44.9634434 138.9700517
 108.7539839  55.8736957 141.4986281 107.8070175  55.7542308 141.4264608
 109.1022612  54.9859455 141.5812543 101.1139413  41.7631096 145.3224523
 101.6373814  42.0093393 146.0850832 100.8951746  42.5951131 144.9027660
  96.5106694  44.0334771 133.1895648  96.1819400  43.1532150 133.0070754
  96.8646064  43.9782439 134.0772037 105.7586272  55.6689673 137.6990633
 105.6111235  54.7406381 137.8798203 106.5839766  55.6909764 137.2147709
  99.6248517  44.3207741 133.5571126  99.9644589  44.8493662 132.8349734
 100.0720637  44.6588147 134.3329692 109.3620394  56.4918232 138.7855506
 110.2866942  56.2861094 138.6479957 109.1935698  56.2434633 139.6944848
 102.3191958  42.7044791 143.0074194 101.9788778  41.9052604 143.4094873
 101.6130964  43.0046502 142.4351027 102.9708429  39.7894104 141.4601517
 103.7934499  39.3154582 141.3380407 103.2146493  40.5684587 141.9600203
 101.6116664  42.8182362 131.7564418 102.3325026  43.1963615 131.2528135
 100.9881968  43.5371239 131.8599396 105.7547787  43.5227511 132.6922751
 105.9711401  44.4052149 132.3911579 105.2741854  43.1313725 131.9628393
 100.4947008  46.4813224 139.2693495 100.3491589  46.7953527 140.1617777
 100.0172212  47.0998125 138.7164394 102.3543391  43.4715772 139.3174385
 102.3404960  42.5756866 138.9806683 103.0715819  43.4786436 139.9512671
 104.2069522  43.9053113 141.3627512 103.9487300  44.8270183 141.3611843
 103.6754562  43.5083547 142.0527976 109.1515710  57.0103900 134.1417598
 109.3252588  56.4450322 133.3891450 109.6444602  57.8104795 133.9597088
  94.9692670  49.0218569 142.2081156  94.4246138  49.7978377 142.3401431
  95.8472020  49.3689373 142.0500278 101.7580287  42.3530153 134.5861955
 101.8796198  41.4246799 134.7852842 101.4682329  42.3668839 133.6740270
 104.6271477  40.0385063 137.7228675 104.6493174  40.1024396 136.7680654
 105.0439536  39.1989572 137.9169181 115.0055102  49.7740323 135.7607897
 115.4486248  49.0247648 135.3627021 114.1281612  49.7650459 135.3781629
 110.1390883  56.3270664 131.2414496 110.8341788  56.9477357 131.4601811
 110.4814033  55.4766015 131.5166874  95.7558692  48.1488465 145.1011313
  95.0140428  48.2971100 145.6875944  95.4351436  48.4096731 144.2378063
 112.0382306  53.7770370 132.7701827 112.5633630  54.1157642 132.0451147
 111.9504659  52.8417385 132.5864961 103.7002355  57.6904443 144.8991703
 104.0089481  57.4453590 145.7714403 104.4977837  57.8951082 144.4110574
 103.7222967  59.8442353 137.1297080 103.2827957  59.3518732 137.8229937
 104.4731084  59.3015321 136.8889155  96.2015306  56.0353894 137.1321708
  97.0273326  55.7357666 136.7520351  95.8509358  55.2661516 137.5811497
 101.1696839  55.3880362 139.2019382 100.5476848  54.7251067 138.9021609
 101.8401706  55.4141494 138.5193029  94.4023911  53.9540220 138.0910642
  93.5655819  53.5262395 137.9094643  94.3747556  54.1472664 139.0281433
 100.7310346  53.9384285 132.6777842 100.8798466  54.6219750 132.0244515
 101.5376789  53.9189375 133.1927298 103.4720655  44.6193522 145.5498246
 102.6023964  44.9127088 145.2780835 103.7080135  45.2033967 146.2705510
 114.5487966  51.2445561 138.1530345 115.3834858  51.6835365 138.3167905
 114.6847095  50.7684214 137.3338591  98.4862979  49.9649463 133.6838911
  98.2409021  49.0611793 133.8819121  98.6558893  49.9666613 132.7418389
  97.7558626  45.6977821 131.1825072  97.0627871  45.7722175 130.5265108
  97.5110378  44.9338164 131.7046589 106.4272283  37.2573422 138.5864563
 106.7074037  36.5896611 139.2124990 107.2122890  37.4502517 138.0739227
 104.2305751  56.4332416 130.1489589 103.6579719  57.0522603 129.6960061
 104.8038545  56.9831777 130.6829511 107.4503011  56.7169566 131.2798172
 108.3833684  56.6515128 131.4831047 107.3626224  57.5525833 130.8212704
 110.0791028  56.0335436 128.2402119 110.0004659  55.6995300 129.1337877
 110.9000695  56.5257204 128.2393592 112.7769219  48.8997176 141.4478438
 112.7445539  47.9613176 141.6338122 113.3869843  48.9781212 140.7144263
 104.6152550  47.7693229 127.4905642 105.5611655  47.6399437 127.5594060
 104.2366795  47.0307890 127.9675070 110.5874434  39.4349235 137.4532534
 110.3899256  39.1264323 138.3375866 111.1974140  40.1610873 137.5830464
 104.4991242  51.8210975 148.9506299 105.4194252  51.9989574 149.1446345
 104.4640826  50.8767020 148.7985998 102.7995467  45.6943205 127.4260527
 101.8926922  45.3976318 127.5023241 103.0771448  45.3973023 126.5594813
  93.7173407  47.0149568 137.8759574  93.3976192  46.1614876 137.5833948
  93.1706836  47.2298146 138.6317541  97.4953315  49.7312009 141.5929080
  97.7139325  50.6629117 141.6117114  97.9079089  49.3719984 142.3783884
 104.4157533  40.2380095 133.5804769 103.6058261  39.8927180 133.9560015
 105.1041950  39.9287638 134.1692380 106.3448081  39.3158141 135.2029065
 106.8979120  39.7353595 135.8619088 106.5818167  38.3893890 135.2452021
 101.5694252  42.5530140 127.5672506 102.4313416  42.8785038 127.8268324
 101.7544596  41.7661636 127.0545572  93.5861667  50.6352480 139.8452695
  92.8925139  50.2206433 139.3322650  94.3334658  50.6773016 139.2486114
 109.7226888  41.4258667 134.7107729 109.1425557  42.0843471 134.3285782
 109.4562821  40.6036011 134.2995147 108.1730455  40.8263724 136.9129050
 108.6730233  40.9380259 136.1043369 108.8166062  40.5224777 137.5529858
 102.2312450  48.7342354 149.7996891 101.7479532  49.5342714 150.0060780
 102.3173389  48.7450299 148.8464335  95.4998410  50.5670734 137.7218710
  95.4769098  50.6658421 136.7700593  95.8099046  51.4135884 138.0435876
  98.1585788  52.6246889 141.8365324  99.1129041  52.5930831 141.7695256
  97.9598311  52.1637512 142.6515550  98.7485170  51.1948005 144.4036122
  99.5678059  51.6892083 144.4270959  99.0221978  50.2779973 144.3753690
 108.5051766  43.5858757 133.7664078 107.6177621  43.8708408 133.5484272
 108.9205755  43.4252520 132.9191355 111.8566302  43.6105278 137.4818417
 112.6326692  44.1001730 137.7543034 111.1314437  44.0363332 137.9390286
  96.5136017  58.1666508 138.8535522  96.3790485  57.4066909 138.2873520
  96.0968079  58.8907408 138.3864311 107.6494980  53.3503432 127.8612098
 108.3530830  53.5553434 128.4769753 106.9257628  53.9180194 128.1261181
 108.4792790  49.1013293 133.9814368 108.4227991  49.5581844 133.1422000
 109.0321132  48.3403977 133.8037211 112.2897596  44.8903025 134.8064487
 112.0334530  44.4899660 135.6372695 111.6650464  45.6046819 134.6814626
 116.6009934  47.6299098 137.3135779 116.0409492  47.6992287 138.0867341
 115.9953437  47.4540083 136.5935275  99.6705143  59.0635825 139.0653965
  99.5537527  60.0081258 138.9632655  98.8497589  58.7609387 139.4539764
 109.5581677  53.7885961 129.9110558 110.3927281  53.3567159 129.7288033
 109.3966020  53.6167975 130.8387452 109.2127569  50.2918074 131.2766897
 109.1576373  50.1262346 130.3355341 108.5873625  50.9994107 131.4329087
  94.0020084  45.5286139 145.1028319  94.6478948  45.0185092 145.5915544
  93.7937235  46.2654820 145.6771744 102.5223695  39.7926183 130.8552215
 102.5102365  40.7368023 131.0120486 103.4147117  39.6096329 130.5611677
 100.6959657  59.7164087 142.2809893 101.5986903  59.7487697 142.5976388
 100.4697027  58.7864538 142.2956229 102.4513259  58.4695074 138.9419972
 101.5008890  58.4696935 138.8284344 102.7545745  57.7227808 138.4256007
 106.3375814  36.3868960 135.1098152 105.5708210  35.8327446 135.2554835
 106.7486519  36.4590829 135.9712304  98.3417575  42.6753756 149.2003333
  99.2049037  42.3190560 149.4106658  97.7682986  42.3367650 149.8878738
 118.1865952  64.3055612 140.0065734 118.8244362  64.1862359 139.3029075
 118.0686795  65.2536456 140.0653687 114.9955658  64.2583040 139.9427259
 114.6574170  64.1424105 139.0547794 115.8645427  63.8574205 139.9228265
 110.8542474  66.1118516 135.9324150 110.2907339  66.0208453 135.1640438
 110.7394869  65.2918421 136.4126643 108.4006906  67.6069708 138.7708371
 109.1928198  67.2660533 138.3554670 108.6403556  67.7164683 139.6910524
 116.4342033  69.7789484 131.2438615 115.7830013  70.3643565 130.8572629
 117.2286396  70.3095679 131.3033652 110.3597660  66.8678621 131.6425749
 111.1328536  66.3207608 131.5038625 110.7123059  67.7322871 131.8540211
 113.1238909  65.5731852 141.4394008 113.7202482  65.3487874 140.7250971
 113.1813881  64.8316598 142.0419456 112.6963938  63.0271287 129.2744199
 112.9489459  62.5052809 128.5127662 111.7588497  62.8637433 129.3770883
 117.7407221  62.0307066 137.0818942 118.5270310  61.6126489 136.7309360
 118.0045925  62.9353158 137.2500591 117.9117298  67.4679916 131.7807599
 117.2763131  67.5414543 132.4928504 117.5814704  68.0573515 131.1026679
 123.1415648  61.9682299 137.9851921 123.8740820  61.3981516 138.2189750
 122.3855003  61.5803899 138.4258427 112.4160227  64.9299393 131.4768574
 112.2996485  64.2544297 132.1449659 112.5262486  64.4431767 130.6600727
 114.7591768  64.3909540 135.1815263 114.3949975  63.8640161 135.8928185
 115.6158883  64.0008010 135.0081749 114.3997254  59.4199440 130.1776612
 114.5671657  60.2879677 130.5447083 114.2094424  59.5826722 129.2537901
 117.1572588  67.8816419 141.8442442 116.8573311  68.7841458 141.7358250
 116.8123647  67.6148602 142.6963595 110.6085069  64.3330216 137.8779147
 109.6835566  64.2006430 138.0856839 110.8569482  65.1124435 138.3749089
 120.5569731  60.3998959 139.5239880 119.6486609  60.3314368 139.2298641
 120.5057327  60.8770904 140.3521705 114.3786475  61.8757098 131.1623279
 114.2586101  62.3214148 132.0008759 113.6839064  62.2242415 130.6036817
 107.9693880  63.9763489 138.7122936 108.0986261  64.2297968 139.6262348
 107.2891331  64.5691197 138.3927591 112.1393367  74.6460739 134.8113410
 112.0617397  75.5968565 134.8901891 111.5355011  74.3006612 135.4688336
 120.0771542  62.3478571 131.9903613 120.9889398  62.5805958 131.8151310
 119.5681189  62.9315615 131.4278691 112.8856970  64.6274058 147.0292744
 113.6271654  65.1659102 146.7527568 112.1793955  65.2540347 147.1864296
 114.7143379  61.7075805 142.9998462 115.5604574  62.1315219 143.1433111
 114.6542017  61.0509430 143.6937025 118.6841124  67.3304389 139.3817194
 118.0549986  67.4950103 138.6793262 118.2966786  67.7445999 140.1528158
 122.5630356  68.2658827 136.7361558 121.8781394  68.6457729 136.1858591
 122.6474205  68.8754154 137.4693506 119.8181287  65.9118786 143.3356902
 120.0298183  66.5550546 142.6591283 119.7711036  65.0781103 142.8678832
 117.4207516  58.5236607 140.2393474 116.5591995  58.8217860 140.5310211
 117.4469951  58.7407006 139.3074506 114.2369086  67.0678797 136.6467279
 114.7007431  67.3466500 135.8571902 113.9725884  66.1662242 136.4640370
 111.1293167  66.6150279 139.5847043 111.6994524  67.0437547 138.9464527
 111.7201279  66.3332864 140.2831228 113.1737972  63.1901950 133.4556845
 113.8762015  63.6422993 133.9230771 112.8418600  62.5485769 134.0836738
 111.6218333  61.7813706 147.8308054 110.9916994  62.4629987 148.0643451
 111.5154421  61.6696788 146.8861192 106.9163306  61.4485502 138.7573978
 106.1262360  61.7043031 138.2814089 107.4074553  62.2633840 138.8626019
 108.8678051  61.8130082 135.7157455 108.0709214  61.9248776 136.2340950
 108.6403643  62.1516734 134.8498345 105.2001009  61.7015993 141.1888969
 105.4509047  62.5863003 141.4546545 105.7360557  61.5220594 140.4164061
 114.4131736  70.0042892 133.5318950 114.2777411  70.8494428 133.9603798
 114.9541549  70.2062170 132.7684884 107.8661134  67.5218330 134.1046875
 108.3785654  68.3161581 134.2552440 108.5183847  66.8244621 134.0380476
 109.6756018  70.6384087 136.1869628 109.8522647  71.5602051 135.9990612
 110.4712852  70.3242506 136.6164008 108.9608375  62.6848719 146.0631791
 108.8461890  61.7833976 146.3638890 108.1052893  62.9312415 145.7116608
 110.7987334  72.1562260 142.1879970 111.3494759  72.0279324 141.4156964
 109.9598810  72.4557150 141.8374863 105.8310051  65.8506985 134.8806445
 106.6685273  66.2603993 134.6640153 106.0088318  64.9106427 134.8506639
 117.7274483  63.5182065 130.5690278 117.2121106  64.2886670 130.8078666
 117.4551791  62.8447202 131.1923340 115.3121594  58.3631766 135.6275517
 114.4563190  57.9738617 135.4481155 115.7248545  58.4423727 134.7675302
 116.8420740  55.8978109 140.0267076 116.3385536  55.8608245 139.2134882
 117.1351347  56.8070852 140.0863733 113.0863626  55.9816839 139.0333258
 113.9516623  55.7859648 138.6739148 113.1541135  55.7527191 139.9602615
 122.7008757  66.2714420 132.5043452 121.9238200  65.9325580 132.0598614
 123.3800238  66.2767043 131.8298417 117.5160786  61.3909157 132.3950060
 117.2110921  61.7055307 133.2460203 118.4691228  61.4690577 132.4377393
 115.9607218  67.5499381 134.0443013 115.4328579  66.8152140 133.7316251
 115.4594720  68.3274057 133.7982982 120.9400064  65.7448401 139.1610060
 120.2823738  66.4347663 139.2490188 121.7440463  66.1344833 139.5044046
 110.6925945  58.2119047 136.4049625 111.2669697  57.9894229 135.6722818
 111.2796928  58.2807742 137.1578226 119.7505523  64.0992774 137.2114002
 120.2637404  64.7322766 137.7135711 120.4006746  63.4993969 136.8457362
 111.0195532  60.2423508 130.4245510 110.1832845  60.5798195 130.7454785
 110.8800302  60.1072488 129.4872647 112.9948613  55.0860296 135.1324694
 112.3413025  54.7709313 134.5081309 112.9529087  54.4636036 135.8584517
 114.1059818  65.3679591 127.0477987 113.1986880  65.1368845 127.2469136
 114.6030850  64.5717210 127.2351968 117.0127897  74.0777098 129.9674673
 116.3389596  74.3808795 130.5759631 117.3993719  74.8806179 129.6180130
 116.2286353  61.5742230 139.4572342 115.3108915  61.7957177 139.2994030
 116.6446497  61.6488540 138.5984049 117.0121401  62.9733645 134.5875022
 117.7593220  63.4855042 134.2782144 117.2812991  62.6517698 135.4479416
 115.2848051  65.4692186 131.5701977 114.3759271  65.1851219 131.6674446
 115.3143135  65.8891264 130.7105283 120.5167319  69.0798775 135.3393144
 120.0629646  68.2389685 135.3958335 119.8861285  69.7160174 135.6767924
 119.4600238  60.0090761 136.5693812 118.7222995  59.4968148 136.9004054
 119.7127012  59.5691143 135.7577089 118.9600258  70.9175272 136.2742962
 119.2523232  71.4780329 135.5555328 119.4698879  71.2103833 137.0296121
 119.5611866  52.7867013 137.1635581 119.8670742  51.9264377 136.8761496
 120.2864470  53.3784634 136.9634575 105.8536222  63.1897700 135.5517179
 105.6560622  62.5967061 134.8268245 105.2982886  62.8849910 136.2693118
 113.8332945  63.0820807 137.6711772 113.8881555  62.1294643 137.5954249
 113.0224147  63.2380246 138.1553070 114.9824139  67.0100930 128.9090055
 114.5443569  66.2936789 128.4495693 115.7234580  67.2377044 128.3475147
 111.7725305  61.6997866 135.4302151 110.9593171  61.9992037 135.8367343
 112.2684299  61.3053555 136.1476633 113.9233883  71.6955623 137.3636416
 113.8810062  71.9216470 136.4344948 114.8396582  71.4618998 137.5122217
 117.3699517  62.1639691 144.2617045 117.7248905  62.3911164 145.1211510
 118.0171648  62.4958068 143.6394300 123.0997254  65.2858127 134.9666374
 122.9615152  65.4759723 134.0387563 122.7433473  66.0477509 135.4234425
 111.2639380  59.2716222 141.0463386 111.9038759  59.1304981 140.3486349
 110.4316911  58.9850735 140.6701988 123.1266633  67.3534654 139.9777645
 123.5603140  67.2609943 140.8260699 123.8398214  67.3292154 139.3397661
 112.0399684  68.5718652 137.1598378 112.8340282  68.0768972 136.9580953
 111.3291376  68.0436515 136.7966084 108.3482447  62.7161734 133.2358131
 107.4180035  62.6546189 133.4528093 108.4439919  62.1937687 132.4394772
 108.2667996  59.2416547 135.8236373 108.5274814  60.1561880 135.7145533
 109.0885169  58.7740989 135.9732985 109.7392922  60.6554304 142.9935197
 110.4115975  60.4471666 142.3447846 108.9122708  60.4576390 142.5540429
 115.8182628  65.1197010 143.0697678 116.7474688  65.2708169 142.8966645
 115.3973658  65.2081031 142.2146324 114.6170960  69.1447674 140.8396215
 114.4782046  68.7766459 141.7122153 113.8285556  69.6595314 140.6680173
 115.2119112  74.2456771 132.1821752 115.3870868  73.7744814 132.9967375
 114.5251900  74.8722537 132.4103013 116.1676175  68.5229277 138.2285053
 115.8326008  68.4830047 139.1242703 115.6680121  67.8573993 137.7555463
 110.1420419  63.9296907 143.7537634 110.0040217  63.1977146 144.3549173
 111.0525343  63.8405807 143.4721822 119.1035367  65.8685311 128.5022113
 118.4864537  65.1432139 128.4055165 118.6351855  66.6294672 128.1589187
 112.7702720  63.6416866 143.2421314 113.4802338  63.0010058 143.2007932
 112.7272028  63.8929761 144.1647495 111.4831654  60.6282084 145.0616953
 110.9469011  60.1772823 145.7138550 110.8948362  60.7627993 144.3187418
 109.7780197  77.3946133 138.9561612 110.0176795  78.0264658 139.6340631
 108.9349394  77.0434173 139.2426971 110.8933913  60.0870736 127.6243417
 110.0163379  59.9659536 127.2605664 111.3691666  59.2956814 127.3722306
 102.4136053  64.8747895 137.7184924 103.1007093  64.5609625 137.1305940
 102.2584181  65.7789260 137.4452176 107.2170775  59.7638092 142.1469948
 107.1328964  59.1563761 141.4120358 106.3953481  60.2547110 142.1479444
 114.0797839  72.4397026 134.8705938 113.2965361  72.9818706 134.9644162
 114.7790584  72.9571006 135.2700179 117.3894489  58.2491655 137.5140143
 117.8863188  57.4961618 137.1941213 116.6181470  58.2855972 136.9483352
 125.2424246  63.9532021 139.1558434 125.2314122  64.8356736 138.7852368
 124.3741626  63.6003572 138.9612972 118.4724269  67.0063343 135.0878566
 117.5380548  67.1264805 134.9183271 118.6500938  66.1035809 134.8238576
 113.9729458  60.3909038 137.2411828 113.6027245  59.8380079 137.9292733
 114.4688550  59.7867172 136.6886828 121.8596821  62.8480662 135.6228601
 122.3257273  63.6808653 135.5488903 122.3104321  62.3825643 136.3273859
 119.9273052  69.1924483 132.6214753 120.2032896  69.0781078 133.5308627
 119.0577551  68.7941968 132.5826926 119.6019942  63.4051141 142.1619396
 118.9491392  63.6527048 141.5071849 119.9800322  62.5915279 141.8281873
 116.5627116  73.4410834 136.2647566 116.7449510  72.6232490 136.7275318
 117.3860102  73.6578526 135.8272456 116.8969281  72.3679019 133.5262615
 117.4257048  71.8571474 132.9132777 117.1597501  72.0521549 134.3908148
 107.3986374  70.3842888 141.2697948 107.9839811  69.6386576 141.4025852
 107.2011213  70.6946845 142.1534612 110.2525029  73.4194136 136.2860391
 109.5835405  73.9040263 135.8024431 110.1137899  73.6663356 137.2003769
 101.9904029  62.9548489 139.9902391 102.0288128  62.4212079 140.7839509
 101.4844322  62.4283694 139.3713369 109.3694791  57.8013029 143.4864934
 109.4336118  58.6627860 143.0742331 109.3061911  57.1887031 142.7537292
 108.8447064  59.8736162 147.1337968 109.4719103  59.4913239 147.7475492
 107.9874983  59.6550364 147.4993660 105.6212606  61.6812591 133.0656323
 105.9166048  60.7723269 133.0123376 104.7200642  61.6600330 132.7437325
 117.5298685  73.4019855 139.8706731 117.4049825  72.6009595 139.3617677
 118.1877776  73.8966048 139.3820701 109.1506853  59.7568587 139.0483871
 108.4293439  60.3704555 138.9091345 109.9400109  60.2926352 138.9700517
 111.9533167  57.0923014 145.3224523 112.4767569  57.3385310 146.0850832
 111.7345500  57.9243049 144.9027660 107.3500448  59.3626688 133.1895648
 107.0213154  58.4824067 133.0070754 107.7039819  59.3074357 134.0772037
 116.5980027  70.9981591 137.6990633 116.4504989  70.0698299 137.8798203
 117.4233520  71.0201682 137.2147709 110.4642271  59.6499658 133.5571126
 110.8038344  60.1785579 132.8349734 110.9114392  59.9880064 134.3329692
 120.2014149  71.8210150 138.7855506 121.1260696  71.6153011 138.6479957
 120.0329452  71.5726551 139.6944848 113.1585712  58.0336709 143.0074194
 112.8182532  57.2344522 143.4094873 112.4524718  58.3338420 142.4351027
 113.8102184  55.1186021 141.4601517 114.6328253  54.6446500 141.3380407
 114.0540247  55.8976505 141.9600203 112.4510418  58.1474280 131.7564418
 113.1718781  58.5255533 131.2528135 111.8275722  58.8663157 131.8599396
 116.5941541  58.8519429 132.6922751 116.8105156  59.7344067 132.3911579
 116.1135608  58.4605642 131.9628393 111.3340763  61.8105142 139.2693495
 111.1885343  62.1245445 140.1617777 110.8565966  62.4290042 138.7164394
 113.1937146  58.8007690 139.3174385 113.1798714  57.9048783 138.9806683
 113.9109574  58.8078354 139.9512671 115.0463276  59.2345030 141.3627512
 114.7881054  60.1562101 141.3611843 114.5148317  58.8375465 142.0527976
 119.9909465  72.3395817 134.1417598 120.1646343  71.7742240 133.3891450
 120.4838356  73.1396712 133.9597088 105.8086425  64.3510486 142.2081156
 105.2639893  65.1270294 142.3401431 106.6865775  64.6981291 142.0500278
 112.5974041  57.6822070 134.5861955 112.7189953  56.7538716 134.7852842
 112.3076084  57.6960756 133.6740270 115.4665232  55.3676981 137.7228675
 115.4886929  55.4316314 136.7680654 115.8833291  54.5281489 137.9169181
 125.8448856  65.1032240 135.7607897 126.2880002  64.3539565 135.3627021
 124.9675366  65.0942377 135.3781629 120.9784637  71.6562582 131.2414496
 121.6735542  72.2769274 131.4601811 121.3207788  70.8057933 131.5166874
 106.5952447  63.4780383 145.1011313 105.8534183  63.6263018 145.6875944
 106.2745191  63.7388648 144.2378063 122.8776061  69.1062287 132.7701827
 123.4027385  69.4449560 132.0451147 122.7898413  68.1709303 132.5864961
 114.5616721  75.1734271 137.1297080 114.1221712  74.6810649 137.8229937
 115.3124838  74.6307238 136.8889155 107.0409060  71.3645811 137.1321708
 107.8667080  71.0649583 136.7520351 106.6903112  70.5953434 137.5811497
 112.0090593  70.7172280 139.2019382 111.3870603  70.0542985 138.9021609
 112.6795460  70.7433412 138.5193029 105.2417665  69.2832138 138.0910642
 104.4049574  68.8554312 137.9094643 105.2141311  69.4764581 139.0281433
 111.5704100  69.2676203 132.6777842 111.7192221  69.9511667 132.0244515
 112.3770544  69.2481293 133.1927298 114.3114409  59.9485440 145.5498246
 113.4417719  60.2419006 145.2780835 114.5473890  60.5325885 146.2705510
 125.3881721  66.5737479 138.1530345 126.2228612  67.0127283 138.3167905
 125.5240850  66.0976132 137.3338591 109.3256733  65.2941381 133.6838911
 109.0802775  64.3903711 133.8819121 109.4952648  65.2958531 132.7418389
 108.5952381  61.0269738 131.1825072 107.9021626  61.1014093 130.5265108
 108.3504133  60.2630082 131.7046589 117.2666037  52.5865340 138.5864563
 117.5467791  51.9188529 139.2124990 118.0516644  52.7794435 138.0739227
 115.0699506  71.7624333 130.1489589 114.4973473  72.3814521 129.6960061
 115.6432300  72.3123695 130.6829511 118.2896766  72.0461484 131.2798172
 119.2227439  71.9807045 131.4831047 118.2019979  72.8817750 130.8212704
 120.9184782  71.3627354 128.2402119 120.8398414  71.0287217 129.1337877
 121.7394449  71.8549122 128.2393592 123.6162974  64.2289093 141.4478438
 123.5839294  63.2905094 141.6338122 124.2263597  64.3073130 140.7144263
 115.4546304  63.0985146 127.4905642 116.4005409  62.9691354 127.5594060
 115.0760549  62.3599808 127.9675070 121.4268189  54.7641152 137.4532534
 121.2293010  54.4556240 138.3375866 122.0367895  55.4902791 137.5830464
 113.6389222  61.0235123 127.4260527 112.7320677  60.7268235 127.5023241
 113.9165203  60.7264941 126.5594813 104.5567162  62.3441486 137.8759574
 104.2369946  61.4906794 137.5833948 104.0100590  62.5590064 138.6317541
 108.3347070  65.0603927 141.5929080 108.5533079  65.9921035 141.6117114
 108.7472843  64.7011901 142.3783884 115.2551287  55.5672012 133.5804769
 114.4452016  55.2219097 133.9560015 115.9435704  55.2579556 134.1692380
 117.1841836  54.6450059 135.2029065 117.7372874  55.0645513 135.8619088
 117.4211922  53.7185807 135.2452021 112.4088006  57.8822058 127.5672506
 113.2707170  58.2076956 127.8268324 112.5938350  57.0953554 127.0545572
 104.4255422  65.9644397 139.8452695 103.7318893  65.5498350 139.3322650
 105.1728413  66.0064934 139.2486114 120.5620643  56.7550584 134.7107729
 119.9819312  57.4135388 134.3285782 120.2956575  55.9327929 134.2995147
 119.0124209  56.1555642 136.9129050 119.5123987  56.2672176 136.1043369
 119.6559817  55.8516695 137.5529858 106.3392164  65.8962651 137.7218710
 106.3162853  65.9950339 136.7700593 106.6492801  66.7427802 138.0435876
 108.9979542  67.9538806 141.8365324 109.9522796  67.9222749 141.7695256
 108.7992066  67.4929430 142.6515550 109.5878924  66.5239922 144.4036122
 110.4071813  67.0184001 144.4270959 109.8615732  65.6071890 144.3753690
 119.3445521  58.9150675 133.7664078 118.4571376  59.2000325 133.5484272
 119.7599510  58.7544438 132.9191355 122.6960057  58.9397196 137.4818417
 123.4720447  59.4293648 137.7543034 121.9708191  59.3655250 137.9390286
 107.3529771  73.4958426 138.8535522 107.2184239  72.7358827 138.2873520
 106.9361833  74.2199326 138.3864311 118.4888734  68.6795349 127.8612098
 119.1924584  68.8845352 128.4769753 117.7651383  69.2472111 128.1261181
 119.3186544  64.4305211 133.9814368 119.2621746  64.8873762 133.1422000
 119.8714887  63.6695895 133.8037211 123.1291350  60.2194942 134.8064487
 122.8728285  59.8191578 135.6372695 122.5044218  60.9338736 134.6814626
 127.4403688  62.9591016 137.3135779 126.8803246  63.0284205 138.0867341
 126.8347192  62.7832000 136.5935275 110.5098897  74.3927743 139.0653965
 110.3931281  75.3373175 138.9632655 109.6891343  74.0901304 139.4539764
 120.3975432  69.1177878 129.9110558 121.2321035  68.6859077 129.7288033
 120.2359774  68.9459892 130.8387452 120.0521324  65.6209992 131.2766897
 119.9970128  65.4554263 130.3355341 119.4267379  66.3286025 131.4329087
 104.8413839  60.8578056 145.1028319 105.4872702  60.3477010 145.5915544
 104.6330990  61.5946738 145.6771744 113.3617449  55.1218101 130.8552215
 113.3496119  56.0659941 131.0120486 114.2540871  54.9388246 130.5611677
 113.2907013  73.7986991 138.9419972 112.3402644  73.7988853 138.8284344
 113.5939499  73.0519726 138.4256007 117.1769569  51.7160877 135.1098152
 116.4101964  51.1619364 135.2554835 117.5880274  51.7882746 135.9712304
 109.1811330  58.0045673 149.2003333 110.0442791  57.6482478 149.4106658
 108.6076740  57.6659568 149.8878738 121.1991415  82.1970539 131.6425749
 121.9722291  81.6499526 131.5038625 121.5516813  83.0614788 131.8540211
 123.5357692  78.3563205 129.2744199 123.7883213  77.8344726 128.5127662
 122.5982251  78.1929351 129.3770883 123.2553981  80.2591311 131.4768574
 123.1390239  79.5836214 132.1449659 123.3656241  79.7723685 130.6600727
 125.2391009  74.7491358 130.1776612 125.4065411  75.6171594 130.5447083
 125.0488178  74.9118640 129.2537901 125.2180230  77.2049015 131.1623279
 125.0979855  77.6506066 132.0008759 124.5232818  77.5534333 130.6036817
 130.9165296  77.6770489 131.9903613 131.8283152  77.9097875 131.8151310
 130.4074943  78.2607533 131.4278691 124.0131726  78.5193867 133.4556845
 124.7155770  78.9714911 133.9230771 123.6812355  77.8777686 134.0836738
 119.7071806  77.1421999 135.7157455 118.9102969  77.2540694 136.2340950
 119.4797398  77.4808652 134.8498345 116.6703805  81.1798902 134.8806445
 117.5079027  81.5895911 134.6640153 116.8482073  80.2398345 134.8506639
 128.5668237  78.8473983 130.5690278 128.0514861  79.6178588 130.8078666
 128.2945546  78.1739119 131.1923340 126.1515348  73.6923684 135.6275517
 125.2956945  73.3030534 135.4481155 126.5642300  73.7715645 134.7675302
 128.3554540  76.7201075 132.3950060 128.0504676  77.0347224 133.2460203
 129.3084982  76.7982495 132.4377393 121.5319700  73.5410965 136.4049625
 122.1063452  73.3186146 135.6722818 122.1190682  73.6099659 137.1578226
 121.8589287  75.5715426 130.4245510 121.0226599  75.9090112 130.7454785
 121.7194057  75.4364406 129.4872647 123.8342368  70.4152214 135.1324694
 123.1806780  70.1001231 134.5081309 123.7922842  69.7927954 135.8584517
 124.9453572  80.6971509 127.0477987 124.0380634  80.4660762 127.2469136
 125.4424604  79.9009128 127.2351968 126.1241806  80.7984104 131.5701977
 125.2153025  80.5143136 131.6674446 126.1536890  81.2183182 130.7105283
 130.4005620  68.1158931 137.1635581 130.7064497  67.2556295 136.8761496
 131.1258225  68.7076551 136.9634575 116.6929976  78.5189618 135.5517179
 116.4954376  77.9258978 134.8268245 116.1376640  78.2141828 136.2693118
 125.8217894  82.3392847 128.9090055 125.3837324  81.6228706 128.4495693
 126.5628334  82.5668962 128.3475147 122.6119060  77.0289784 135.4302151
 121.7986925  77.3283954 135.8367343 123.1078054  76.6345473 136.1476633
 119.1876202  78.0453652 133.2358131 118.2573790  77.9838107 133.4528093
 119.2833674  77.5229604 132.4394772 119.1061751  74.5708464 135.8236373
 119.3668568  75.4853798 135.7145533 119.9278923  74.1032907 135.9732985
 129.9429121  81.1977229 128.5022113 129.3258292  80.4724057 128.4055165
 129.4745610  81.9586589 128.1589187 121.7327667  75.4162653 127.6243417
 120.8557133  75.2951454 127.2605664 122.2085420  74.6248732 127.3722306
 113.2529807  80.2039813 137.7184924 113.9400847  79.8901543 137.1305940
 113.0977936  81.1081178 137.4452176 116.4606361  77.0104508 133.0656323
 116.7559802  76.1015187 133.0123376 115.5594397  76.9892248 132.7437325
 118.1894203  74.6918606 133.1895648 117.8606909  73.8115985 133.0070754
 118.5433573  74.6366275 134.0772037 121.3036026  74.9791576 133.5571126
 121.6432098  75.5077497 132.8349734 121.7508146  75.3171982 134.3329692
 123.2904173  73.4766198 131.7564418 124.0112535  73.8547450 131.2528135
 122.6669477  74.1955074 131.8599396 127.4335296  74.1811346 132.6922751
 127.6498910  75.0635984 132.3911579 126.9529363  73.7897560 131.9628393
 123.4367796  73.0113988 134.5861955 123.5583707  72.0830634 134.7852842
 123.1469838  73.0252674 133.6740270 126.3058986  70.6968898 137.7228675
 126.3280683  70.7608231 136.7680654 126.7227045  69.8573407 137.9169181
 120.1650488  80.6233298 133.6838911 119.9196530  79.7195628 133.8819121
 120.3346402  80.6250449 132.7418389 119.4346135  76.3561656 131.1825072
 118.7415380  76.4306011 130.5265108 119.1897887  75.5921999 131.7046589
 128.1059792  67.9157257 138.5864563 128.3861546  67.2480446 139.2124990
 128.8910399  68.1086353 138.0739227 126.2940059  78.4277064 127.4905642
 127.2399164  78.2983272 127.5594060 125.9154304  77.6891726 127.9675070
 124.4782976  76.3527040 127.4260527 123.5714431  76.0560153 127.5023241
 124.7558957  76.0556858 126.5594813 115.3960916  77.6733404 137.8759574
 115.0763701  76.8198712 137.5833948 114.8494345  77.8881982 138.6317541
 126.0945042  70.8963930 133.5804769 125.2845770  70.5511015 133.9560015
 126.7829459  70.5871474 134.1692380 128.0235590  69.9741977 135.2029065
 128.5766629  70.3937430 135.8619088 128.2605676  69.0477725 135.2452021
 123.2481761  73.2113975 127.5672506 124.1100925  73.5368874 127.8268324
 123.4332105  72.4245471 127.0545572 131.4014397  72.0842502 134.7107729
 130.8213066  72.7427306 134.3285782 131.1350330  71.2619847 134.2995147
 130.1839275  74.2442592 133.7664078 129.2965130  74.5292243 133.5484272
 130.5993264  74.0836356 132.9191355 129.3282489  84.0087267 127.8612098
 130.0318339  84.2137269 128.4769753 128.6045137  84.5764029 128.1261181
 124.2011204  70.4510018 130.8552215 124.1889874  71.3951858 131.0120486
 125.0934626  70.2680164 130.5611677 128.0163323  67.0452795 135.1098152
 127.2495719  66.4911282 135.2554835 128.4274028  67.1174664 135.9712304
  83.9160771   0.7975854 117.9683922  83.2648750   1.3829934 117.5817935
  84.7105133   1.3282049 118.0278959  79.6212105   5.6647109 121.5358717
  79.5436135   6.6154934 121.6147197  79.0173749   5.3192981 122.1933643
  81.8950474   1.0229262 120.2564256  81.7596149   1.8680798 120.6849104
  82.4360287   1.2248540 119.4930190  84.4946635   5.0963468 116.6919979
  83.8208333   5.3995165 117.3004937  84.8812457   5.8992548 116.3425436
  86.4418996   1.9361642 122.9988269  86.7341970   2.4966699 122.2800635
  86.9517616   2.2290203 123.7541428  82.6937850   5.2643140 118.9067059
  82.8689605   4.7931183 119.7212681  82.0070638   5.8908906 119.1348319
  81.5616576   3.4583395 121.5951244  80.7784098   4.0005076 121.6889469
  82.2609322   3.9757375 121.9945485  84.0445854   4.4597204 122.9892873
  84.2268248   3.6418859 123.4520625  84.8678840   4.6764896 122.5517763
  84.3788019   3.3865389 120.2507921  84.9075786   2.8757843 119.6378083
  84.6416239   3.0707919 121.1153454  87.4728203   3.3582187 120.8662904
  87.6465080   2.7928609 120.1136757  87.9657094   4.1583082 120.6842394
  82.0435459   6.1920640 123.8542386  81.6040449   5.6997019 124.5475243
  82.7943576   5.6493608 123.6134462  79.0522838   0.2862573 119.4023149
  79.2010959   0.9698037 118.7489821  79.8589282   0.2667663 119.9172604
  82.5518244   2.7810703 116.8734896  81.9792211   3.4000890 116.4205368
  83.1251037   3.3310065 117.4074818  85.7715503   3.0647853 118.0043478
  86.7046177   2.9993415 118.2076354  85.6838716   3.9004120 117.5458011
  88.4003520   2.3813723 114.9647426  88.3217152   2.0473587 115.8583184
  89.2213187   2.8735491 114.9638898  96.5078444  10.6533899 126.7311041
  97.1456854  10.5340647 126.0274381  96.3899287  11.6014743 126.7898993
  93.3168151  10.6061327 126.6672566  92.9786662  10.4902392 125.7793101
  94.1857919  10.2052492 126.6473572  89.1754966  12.4596804 122.6569457
  88.6119832  12.3686741 121.8885744  89.0607361  11.6396708 123.1371949
  93.7987934  11.7596179 132.6258771  93.7876574  11.3648977 131.7539275
  93.9608573  11.0262252 133.2192543  86.7219398  13.9547995 125.4953677
  87.5140690  13.6138820 125.0799976  86.9616049  14.0642970 126.4155831
  94.7554525  16.1267771 117.9683922  94.1042505  16.7121852 117.5817935
  95.5498888  16.6573966 118.0278959  88.6810152  13.2156909 118.3671056
  89.4541028  12.6685896 118.2283932  89.0335551  14.0801158 118.5785517
  90.5195195  14.5433291 131.5737955  90.2285061  15.4478922 131.4584622
  91.1552179  14.5849818 132.2882025  91.4451402  11.9210139 128.1639315
  92.0414974  11.6966162 127.4496278  91.5026373  11.1794885 128.7664763
  91.0176430   9.3749575 115.9989506  91.2701951   8.8531096 115.2372969
  90.0800989   9.2115720 116.1016190  96.0619713   8.3785353 123.8064249
  96.8482802   7.9604776 123.4554666  96.3258417   9.2831445 123.9745898
  96.2329790  13.8158203 118.5052906  95.5975623  13.8892830 119.2173811
  95.9027197  14.4051802 117.8271985 101.4628140   8.3160586 124.7097228
 102.1953312   7.7459803 124.9435057 100.7067496   7.9282187 125.1503733
  90.7372719  11.2777681 118.2013881  90.6208977  10.6022584 118.8694965
  90.8474979  10.7910055 117.3846034  93.0804260  10.7387828 121.9060570
  92.7162467  10.2118449 122.6173492  93.9371376  10.3486297 121.7327056
  92.7209747   5.7677727 116.9021919  92.8884149   6.6357964 117.2692390
  92.5306916   5.9305009 115.9783208  95.4785080  14.2294706 128.5687749
  95.1785803  15.1319745 128.4603556  95.1336139  13.9626890 129.4208902
  88.9297561  10.6808503 124.6024453  88.0048058  10.5484717 124.8102145
  89.1781975  11.4602722 125.0994396  98.8782224   6.7477247 126.2485186
  97.9699101   6.6792655 125.9543947  98.8269820   7.2249191 127.0767012
  92.6998968   8.2235385 117.8868585  92.5798593   8.6692436 118.7254066
  92.0051556   8.5720703 117.3282124  86.2906372  10.3241777 125.4368242
  86.4198754  10.5776256 126.3507654  85.6103824  10.9169485 125.1172898
  90.4605860  20.9939027 121.5358717  90.3829889  21.9446852 121.6147197
  89.8567503  20.6484899 122.1933643  98.3984034   8.6956858 118.7148919
  99.3101890   8.9284245 118.5396617  97.8893681   9.2793902 118.1523998
  96.6824801  13.1181486 132.3510212  97.0908157  12.6763896 131.6064844
  95.9602063  12.5434113 132.6044405  93.0355872   8.0554093 129.7243769
  93.8817067   8.4793506 129.8678418  92.9754509   7.3987717 130.4182332
  97.0053616  13.6782677 126.1062501  96.3762479  13.8428391 125.4038569
  96.6179278  14.0924286 126.8773465 100.8842848  14.6137114 123.4606865
 100.1993886  14.9936016 122.9103898 100.9686697  15.2232441 124.1938812
  98.1393780  12.2597073 130.0602208  98.3510675  12.9028833 129.3836589
  98.0923528  11.4259390 129.5924138  95.7420009   4.8714894 126.9638780
  94.8804488   5.1696148 127.2555518  95.7682443   5.0885293 126.0319813
  92.5581578  13.4157085 123.3712586  93.0219924  13.6944788 122.5817209
  92.2938376  12.5140529 123.1885677  89.4505659  12.9628566 126.3092349
  90.0207016  13.3915835 125.6709834  90.0413771  12.6811151 127.0076535
  91.4950464   9.5380237 120.1802151  92.1974507   9.9901281 120.6476078
  91.1631093   8.8964056 120.8082044  85.2375798   7.7963790 125.4819285
  84.4474852   8.0521318 125.0059395  85.7287045   8.6112128 125.5871325
  99.2539608  15.1369029 128.2324566 100.0757051  14.7349216 127.9507247
  99.2502010  15.0337263 129.1840681  87.1890543   8.1608369 122.4402761
  86.3921707   8.2727063 122.9586257  86.9616136   8.4995021 121.5743652
  93.0196211  14.6853072 130.3885276  93.0840644  15.1473479 131.2243448
  92.3107135  14.0550437 130.5167586  92.7344229  16.3521180 120.2564256
  92.5989903  17.1972715 120.6849104  93.2754041  16.5540457 119.4930190
  86.1873626  13.8696618 120.8292181  86.6998147  14.6639868 120.9797746
  86.8396339  13.1722908 120.7625783  87.9968511  16.9862374 122.9114935
  88.1735139  17.9080339 122.7235919  88.7925344  16.6720793 123.3409314
  94.3612705  16.9744746 134.3864598  93.9176559  16.1881125 134.0685503
  95.0229919  17.1623897 133.7208489  89.1199826  18.5040548 128.9125277
  89.6707251  18.3757611 128.1402271  88.2811302  18.8035437 128.5620170
  96.4593943  17.2547546 132.4146000  96.4412418  18.0756427 131.9226269
  97.3813863  17.1301621 132.6396141  92.9166997  14.7691676 133.2569508
  93.4495334  14.0079964 133.0268816  92.3881078  14.4765327 133.9993663
  84.1522543  12.1985272 121.6051752  84.9897765  12.6082280 121.3885460
  84.3300811  11.2584714 121.5751946  96.0486975   9.8660353 117.2935585
  95.5333598  10.6364957 117.5323972  95.7764283   9.1925489 117.9168646
  93.6334086   4.7110053 122.3520823  92.7775682   4.3216904 122.1726462
  94.0461038   4.7902014 121.4920609 101.0221249  12.6192707 119.2288758
 100.2450692  12.2803867 118.7843921 101.7012730  12.6245330 118.5543724
  95.8373278   7.7387445 119.1195366  95.5323414   8.0533594 119.9705509
  96.7903720   7.8168865 119.1622699  94.2819710  13.8977668 120.7688320
  93.7541072  13.1630428 120.4561558  93.7807213  14.6752344 120.5228288
  99.2612556  12.0926689 125.8855366  98.6036230  12.7825950 125.9735495
 100.0652955  12.4823120 126.2289353  89.0138438   4.5597334 123.1294932
  89.5882189   4.3372516 122.3968125  89.6009420   4.6286029 123.8823533
  98.0718015  10.4471061 123.9359308  98.5849897  11.0801053 124.4381018
  98.7219239   9.8472257 123.5702668  89.3408025   6.5901795 117.1490817
  88.5045337   6.9276482 117.4700092  89.2012794   6.4550775 116.2117954
  92.4272310  11.7157878 113.7723293  91.5199372  11.4847132 113.9714442
  92.9243342  10.9195498 113.9597275  95.3340389  20.4255385 116.6919979
  94.6602088  20.7287082 117.3004937  95.7206211  21.2284466 116.3425436
  94.5498846   7.9220517 126.1817649  93.6321407   8.1435464 126.0239337
  94.9658989   7.9966827 125.3229356  95.3333893   9.3211932 121.3120329
  96.0805712   9.8333330 121.0027451  95.6025483   8.9995985 122.1724723
  93.6060544  11.8170473 118.2947283  92.6971763  11.5329506 118.3919753
  93.6355627  12.2369552 117.4350590  98.8379811  15.4277063 122.0638451
  98.3842138  14.5867973 122.1203641  98.2073778  16.0638461 122.4013231
  97.7812731   6.3569049 123.2939118  97.0435487   5.8446435 123.6249361
  98.0339504   5.9169430 122.4822395  97.2812750  17.2653559 122.9988269
  97.5735725  17.8258616 122.2800635  97.7911371  17.5582120 123.7541428
  84.1748714   9.5375987 122.2762485  83.9773114   8.9445348 121.5513552
  83.6195378   9.2328197 122.9938424  92.1545438   9.4299094 124.3957079
  92.2094047   8.4772930 124.3199555  91.3436640   9.5858533 124.8798377
  93.3036631  13.3579217 115.6335362  92.8656061  12.6415076 115.1740999
  94.0447072  13.5855332 115.0720453  90.0937798   8.0476154 122.1547457
  89.2805663   8.3470324 122.5612650  90.5896792   7.6531842 122.8721940
  92.2446375  18.0433910 124.0881722  92.2022554  18.2694757 123.1590254
  93.1609074  17.8097285 124.2367523  95.6912009   8.5117978 130.9862351
  96.0461397   8.7389451 131.8456817  96.3384140   8.8436355 130.3639607
 101.4209746  11.6336414 121.6911680 101.2827645  11.8238010 120.7632870
 101.0645965  12.3955797 122.1479732  89.5851872   5.6194509 127.7708692
  90.2251252   5.4783268 127.0731656  88.7529403   5.3329022 127.3947294
 101.4479126  13.7012941 126.7022952 101.8815632  13.6088230 127.5506006
 102.1610706  13.6770441 126.0642968  90.3612176  14.9196939 123.8843685
  91.1552775  14.4247260 123.6826260  89.6503869  14.3914803 123.5211390
  95.1807021  17.3015035 128.2356053  95.2344043  17.8705971 129.0033768
  94.3121802  17.4716920 127.8710090  86.6694940   9.0640021 119.9603438
  85.7392528   9.0024477 120.1773400  86.7652412   8.5415974 119.1640079
  86.5880489   5.5894834 122.5481679  86.8487306   6.5040167 122.4390840
  87.4097661   5.1219277 122.6978292 102.3094675  13.7436642 129.2355837
 102.5030565  14.6482452 129.4815112 102.2095293  13.2844061 130.0694422
  94.1395120  11.4675297 129.7942984  95.0687180  11.6186457 129.6211952
  93.7186150  11.5559318 128.9391631  92.9383452  15.4925961 127.5641522
  92.7994538  15.1244746 128.4367460  92.1498048  16.0073601 127.3925480
  93.5331604  20.5935058 118.9067059  93.7083360  20.1223101 119.7212681
  92.8464392  21.2200824 119.1348319  94.4888667  14.8707564 124.9530360
  94.1538500  14.8308334 125.8488010  93.9892613  14.2052280 124.4800770
  97.4247859  12.2163598 115.2267419  96.8077030  11.4910427 115.1300472
  96.9564347  12.9772959 114.8834494  91.0915212   9.9895153 129.9666621
  91.8014831   9.3488346 129.9253239  91.0484520  10.2408048 130.8892801
  99.0801991  16.9262507 132.8873200  99.0214537  16.2421727 132.2203783
  99.4821509  17.6681497 132.4353826  88.0992689  23.7424421 125.6806919
  88.3389288  24.3742945 126.3585937  87.2561886  23.3912461 125.9672278
  89.2146405   6.4349023 114.3488724  88.3375871   6.3137824 113.9850970
  89.6904158   5.6435101 114.0967612  99.0819398  14.8902091 131.1187179
  98.1946177  14.5528013 131.2413578  99.6517949  14.1585122 131.3555945
  80.7348545  11.2226183 124.4430231  81.4219585  10.9087913 123.8551246
  80.5796674  12.1267547 124.1697482  92.6120551  19.5503543 128.0848423
  92.5390723  20.3558515 128.5967727  92.1697944  19.7495509 127.2596444
  92.4010331  18.7875313 121.5951244  91.6177853  19.3296993 121.6889469
  93.1003076  19.3049293 121.9945485 103.5636738  10.3010308 125.8803741
 103.5526615  11.1835024 125.5097674 102.6954118   9.9481859 125.6858278
  95.0719235  19.4490377 130.2406581  95.7847207  20.0837842 130.1682483
  94.5809263  19.5454243 129.4246583  96.7936762  13.3541630 121.8123873
  95.8593040  13.4743092 121.6428577  96.9713430  12.4514097 121.5483883
  92.2941950   6.7387326 123.9657134  91.9239737   6.1858366 124.6538040
  92.7901042   6.1345459 123.4132134 100.1809313   9.1958949 122.3473907
 100.6469765  10.0286941 122.2734210 100.6316814   8.7303931 123.0519166
  90.1231148  17.1984821 131.0612152  90.8240608  17.8321304 131.2141546
  89.6526263  17.5399552 130.3007791  98.2485544  15.5402770 119.3460059
  98.5245388  15.4259365 120.2553933  97.3790043  15.1420255 119.3072232
  97.9232434   9.7529428 128.8864702  97.2703885  10.0005336 128.2317155
  98.3012814   8.9393566 128.5527180  94.8839608  19.7889121 122.9892873
  95.0662003  18.9710777 123.4520625  95.7072594  20.0056813 122.5517763
  95.2181774  18.7157306 120.2507921  95.7469540  18.2049761 119.6378083
  95.4809993  18.3999837 121.1153454  85.7198866  16.7321176 127.9943255
  86.3052303  15.9864864 128.1271159  85.5223705  17.0425132 128.8779919
  88.5737522  19.7672423 123.0105697  87.9047897  20.2518551 122.5269737
  88.4350391  20.0141643 123.9249076  92.7142790  21.8016167 129.6088356
  93.2661098  21.9647788 130.3737441  93.0548984  22.3920604 128.9368380
  97.5653665  16.6277424 135.4637010  98.1093569  17.2407382 134.9691965
  96.9840509  17.1857002 135.9804023  83.9425099   8.0290878 119.7901629
  84.2378540   7.1201556 119.7368683  83.0413135   8.0078617 119.4682632
  95.8511178  19.7498142 126.5952038  95.7262317  18.9487882 126.0862983
  96.5090269  20.2444335 126.1066008  87.4719346   6.1046875 125.7729178
  86.7505932   6.7182842 125.6336651  88.2612602   6.6404639 125.6945824
  97.9146086  17.5507162 128.2231588  96.9676421  17.4312513 128.1509915
  98.2628859  16.6629660 128.3057849  85.6712940   5.7104976 119.9140955
  85.3425646   4.8302355 119.7316060  86.0252311   5.6552644 120.8017344
  94.9192519  17.3459878 124.4235940  94.7717482  16.4176586 124.6043510
  95.7446013  17.3679969 123.9393015  88.7854763   5.9977945 120.2816432
  89.1250836   6.5263867 119.5595041  89.2326884   6.3358352 121.0574999
  98.5226641  18.1688437 125.5100813  99.4473189  17.9631298 125.3725264
  98.3541944  17.9204838 126.4190154  90.7722911   4.4952567 118.4809725
  91.4931273   4.8733820 117.9773442  90.1488215   5.2141444 118.5844703
  94.9154034   5.1997716 119.4168057  95.1317648   6.0822354 119.1156885
  94.4348101   4.8083929 118.6873699  89.6553255   8.1583429 125.9938802
  89.5097836   8.4723732 126.8863083  89.1778459   8.7768330 125.4409701
  91.5149638   5.1485977 126.0419691  91.5011207   4.2527071 125.7051989
  92.2322066   5.1556641 126.6757977  93.3675768   5.5823317 128.0872819
  93.1093546   6.5040388 128.0857149  92.8360809   5.1853752 128.7773283
  98.3121957  18.6874105 120.8662904  98.4858835  18.1220527 120.1136757
  98.8050848  19.4874999 120.6842394  84.1298917  10.6988774 128.9326463
  83.5852385  11.4748582 129.0646737  85.0078267  11.0459578 128.7745584
  90.9186534   4.0300358 121.3107262  91.0402445   3.1017004 121.5098149
  90.6288576   4.0439043 120.3985577 104.1661348  11.4510528 122.4853204
 104.6092494  10.7017853 122.0872327 103.2887859  11.4420664 122.1026936
  99.2997130  18.0040869 117.9659803  99.9948034  18.6247562 118.1847117
  99.6420280  17.1536220 118.2412180 101.1988553  15.4540575 119.4947133
 101.7239877  15.7927847 118.7696453 101.1110905  14.5187590 119.3110268
  92.8608602  19.3674648 131.6237010  93.1695728  19.1223795 132.4959710
  93.6584084  19.5721287 131.1355880  92.8829214  21.5212558 123.8542386
  92.4434204  21.0288936 124.5475243  93.6337331  20.9785525 123.6134462
  85.3621553  17.7124099 123.8567015  86.1879573  17.4127871 123.4765658
  85.0115605  16.9431721 124.3056803  90.3303086  17.0650567 125.9264688
  89.7083095  16.4021272 125.6266916  91.0007953  17.0911699 125.2438336
  83.5630158  15.6310425 124.8155948  82.7262066  15.2032599 124.6339949
  83.5353803  15.8242868 125.7526739  89.8916593  15.6154490 119.4023149
  90.0404713  16.2989955 118.7489821  90.6983036  15.5959580 119.9172604
 103.7094213  12.9215766 124.8775652 104.5441105  13.3605570 125.0413212
 103.8453342  12.4454419 124.0583897  87.6469226  11.6419668 120.4084218
  87.4015268  10.7381998 120.6064428  87.8165140  11.6436818 119.4663696
  86.9164873   7.3748025 117.9070379  86.2234118   7.4492380 117.2510415
  86.6716625   6.6108369 118.4291896  93.3911998  18.1102621 116.8734896
  92.8185965  18.7292808 116.4205368  93.9644792  18.6601982 117.4074818
  96.6109258  18.3939771 118.0043478  97.5439931  18.3285332 118.2076354
  96.5232471  19.2296038 117.5458011  99.2397275  17.7105641 114.9647426
  99.1610906  17.3765505 115.8583184 100.0606941  18.2027409 114.9638898
 101.9375466  10.5767380 128.1723745 101.9051786   9.6383381 128.3583428
 102.5476089  10.6551417 127.4389569  93.7758797   9.4463433 114.2150949
  94.7217901   9.3169642 114.2839367  93.3973042   8.7078095 114.6920377
  91.9601714   7.3713410 114.1505834  91.0533169   7.0746523 114.2268547
  92.2377695   7.0743228 113.2840120  82.8779654   8.6919773 124.6004880
  82.5582439   7.8385081 124.3079254  82.3313082   8.9068351 125.3562848
  86.6559562  11.4082214 128.3174387  86.8745572  12.3399322 128.3362421
  87.0685336  11.0490189 129.1029191  90.7300498   4.2300345 114.2917813
  91.5919662   4.5555243 114.5513630  90.9150843   3.4431841 113.7790879
  82.7467914  12.3122685 126.5698002  82.0531386  11.8976638 126.0567956
  83.4940905  12.3543221 125.9731421  84.6604657  12.2440938 124.4464017
  84.6375345  12.3428626 123.4945900  84.9705293  13.0906089 124.7681183
  87.3192035  14.3017094 128.5610631  88.2735288  14.2701036 128.4940563
  87.1204558  13.8407717 129.3760857  87.9091417  12.8718210 131.1281429
  88.7284306  13.3662288 131.1516266  88.1828224  11.9550178 131.0998996
  85.6742263  19.8436713 125.5780829  85.5396731  19.0837114 125.0118827
  85.2574326  20.5677613 125.1109618  96.8101226  15.0273637 114.5857404
  97.5137077  15.2323639 115.2015060  96.0863875  15.5950398 114.8506488
  97.6399037  10.7783498 120.7059674  97.5834238  11.2352049 119.8667307
  98.1927379  10.0174182 120.5282517 105.7616180   9.3069303 124.0381085
 105.2015738   9.3762492 124.8112647 105.1559684   9.1310288 123.3180582
  88.8311389  20.7406030 125.7899272  88.7143773  21.6851463 125.6877962
  88.0103836  20.4379592 126.1785071  98.7187924  15.4656166 116.6355864
  99.5533528  15.0337364 116.4533339  98.5572267  15.2938179 117.5632759
  98.3733816  11.9688279 118.0012204  98.3182620  11.8032550 117.0600648
  97.7479871  12.6764312 118.1574393  89.8565903  21.3934292 129.0055200
  90.7593150  21.4257902 129.3221695  89.6303273  20.4634743 129.0201536
  91.6119505  20.1465278 125.6665279  90.6615136  20.1467140 125.5529651
  91.9151992  19.3998013 125.1501313 107.3472199  25.9825817 126.7311041
 107.9850609  25.8632564 126.0274381 107.2293042  26.9306661 126.7898993
 104.1561905  25.9353245 126.6672566 103.8180417  25.8194310 125.7793101
 105.0251673  25.5344410 126.6473572 100.0148721  27.7888721 122.6569457
  99.4513586  27.6978658 121.8885744  99.9001116  26.9688626 123.1371949
 104.6381688  27.0888097 132.6258771 104.6270329  26.6940895 131.7539275
 104.8002328  26.3554169 133.2192543  97.5613153  29.2839913 125.4953677
  98.3534445  28.9430738 125.0799976  97.8009803  29.3934888 126.4155831
 105.5948280  31.4559689 117.9683922 104.9436259  32.0413769 117.5817935
 106.3892642  31.9865884 118.0278959  99.5203907  28.5448826 118.3671056
 100.2934783  27.9977813 118.2283932  99.8729306  29.4093076 118.5785517
 101.3588949  29.8725208 131.5737955 101.0678815  30.7770839 131.4584622
 101.9945934  29.9141736 132.2882025 102.2845156  27.2502057 128.1639315
 102.8808728  27.0258079 127.4496278 102.3420128  26.5086802 128.7664763
 101.8570185  24.7041492 115.9989506 102.1095705  24.1823014 115.2372969
 100.9194744  24.5407638 116.1016190 106.9013467  23.7077271 123.8064249
 107.6876557  23.2896694 123.4554666 107.1652172  24.6123363 123.9745898
 107.0723545  29.1450121 118.5052906 106.4369378  29.2184748 119.2173811
 106.7420951  29.7343720 117.8271985 112.3021895  23.6452504 124.7097228
 113.0347066  23.0751721 124.9435057 111.5461250  23.2574104 125.1503733
 101.5766473  26.6069598 118.2013881 101.4602731  25.9314502 118.8694965
 101.6868733  26.1201972 117.3846034 103.9198014  26.0679745 121.9060570
 103.5556222  25.5410366 122.6173492 104.7765130  25.6778214 121.7327056
 103.5603501  21.0969645 116.9021919 103.7277904  21.9649882 117.2692390
 103.3700670  21.2596927 115.9783208 106.3178834  29.5586624 128.5687749
 106.0179558  30.4611663 128.4603556 105.9729894  29.2918807 129.4208902
  99.7691316  26.0100421 124.6024453  98.8441812  25.8776635 124.8102145
 100.0175729  26.7894640 125.0994396 109.7175978  22.0769164 126.2485186
 108.8092856  22.0084573 125.9543947 109.6663574  22.5541109 127.0767012
 103.5392722  23.5527303 117.8868585 103.4192347  23.9984353 118.7254066
 102.8445311  23.9012620 117.3282124  97.1300127  25.6533694 125.4368242
  97.2592508  25.9068173 126.3507654  96.4497578  26.2461402 125.1172898
 101.2999614  36.3230944 121.5358717 101.2223644  37.2738769 121.6147197
 100.6961258  35.9776817 122.1933643 103.7916844  23.4958810 134.1920084
 103.0150178  24.0552730 134.1822948 104.4307407  23.9815593 134.7134954
 109.2377788  24.0248776 118.7148919 110.1495644  24.2576163 118.5396617
 108.7287435  24.6085820 118.1523998 102.0463216  26.3044263 133.7538051
 102.7877901  26.8429307 133.4772874 101.3400202  26.9310552 133.9109602
 107.5218556  28.4473404 132.3510212 107.9301912  28.0055814 131.6064844
 106.7995817  27.8726031 132.6044405 103.8749626  23.3846010 129.7243769
 104.7210821  23.8085424 129.8678418 103.8148264  22.7279635 130.4182332
 107.8447371  29.0074594 126.1062501 107.2156233  29.1720308 125.4038569
 107.4573033  29.4216204 126.8773465 111.7236602  29.9429032 123.4606865
 111.0387641  30.3227933 122.9103898 111.8080452  30.5524359 124.1938812
 108.9787534  27.5888991 130.0602208 109.1904429  28.2320751 129.3836589
 108.9317282  26.7551308 129.5924138 106.5813763  20.2006812 126.9638780
 105.7198242  20.4988065 127.2555518 106.6076198  20.4177211 126.0319813
 103.3975332  28.7449002 123.3712586 103.8613678  29.0236705 122.5817209
 103.1332131  27.8432447 123.1885677 100.2899414  28.2920484 126.3092349
 100.8600771  28.7207752 125.6709834 100.8807525  28.0103069 127.0076535
 102.3344219  24.8672155 120.1802151 103.0368262  25.3193198 120.6476078
 102.0024847  24.2255974 120.8082044 100.7824580  23.4583911 134.5553361
 100.1523241  24.1400192 134.7888757 100.6760668  23.3466993 133.6106499
  96.0769552  23.1255707 125.4819285  95.2868606  23.3813236 125.0059395
  96.5680800  23.9404045 125.5871325 110.0933362  30.4660947 128.2324566
 110.9150806  30.0641134 127.9507247 110.0895765  30.3629181 129.1840681
  98.0284298  23.4900287 122.4402761  97.2315461  23.6018981 122.9586257
  97.8009890  23.8286939 121.5743652 103.8589965  30.0144990 130.3885276
 103.9234398  30.4765397 131.2243448 103.1500889  29.3842355 130.5167586
  94.3607255  23.3786198 127.9134276  94.6115294  24.2633208 128.1791851
  94.8966804  23.1990799 127.1409367 103.5737983  31.6813097 120.2564256
 103.4383658  32.5264633 120.6849104 104.1147796  31.8832375 119.4930190
  97.0267381  29.1988535 120.8292181  97.5391901  29.9931786 120.9797746
  97.6790093  28.5014826 120.7625783  98.8362265  32.3154292 122.9114935
  99.0128894  33.2372256 122.7235919  99.6319099  32.0012711 123.3409314
  98.1214622  24.3618924 132.7877098  98.0068137  23.4604181 133.0884197
  97.2659140  24.6082620 132.4361914 105.2006460  32.3036664 134.3864598
 104.7570314  31.5173042 134.0685503 105.8623673  32.4915814 133.7208489
  99.9593581  33.8332465 128.9125277 100.5101006  33.7049529 128.1402271
  99.1205057  34.1327354 128.5620170 107.2987698  32.5839464 132.4146000
 107.2806173  33.4048345 131.9226269 108.2207618  32.4593539 132.6396141
 103.7560752  30.0983593 133.2569508 104.2889089  29.3371881 133.0268816
 103.2274833  29.8057245 133.9993663  94.9916297  27.5277190 121.6051752
  95.8291519  27.9374198 121.3885460  95.1694565  26.5876632 121.5751946
 106.8880729  25.1952270 117.2935585 106.3727353  25.9656875 117.5323972
 106.6158038  24.5217406 117.9168646 104.4727840  20.0401971 122.3520823
 103.6169437  19.6508821 122.1726462 104.8854792  20.1193932 121.4920609
 106.0026987  17.5748314 126.7512383 105.4991783  17.5378450 125.9380188
 106.2957594  18.4841057 126.8109040 102.2469873  17.6587044 125.7578565
 103.1122870  17.4629853 125.3984454 102.3147382  17.4297396 126.6847922
 111.8615004  27.9484625 119.2288758 111.0844446  27.6095784 118.7843921
 112.5406485  27.9537248 118.5543724 106.6767033  23.0679362 119.1195366
 106.3717168  23.3825512 119.9705509 107.6297475  23.1460782 119.1622699
 105.1213464  29.2269586 120.7688320 104.5934826  28.4922345 120.4561558
 104.6200967  30.0044262 120.5228288 110.1006310  27.4218606 125.8855366
 109.4429985  28.1117868 125.9735495 110.9046710  27.8115038 126.2289353
  99.8532192  19.8889252 123.1294932 100.4275944  19.6664433 122.3968125
 100.4403175  19.9577946 123.8823533 108.9111769  25.7762979 123.9359308
 109.4243651  26.4092971 124.4381018 109.5612993  25.1764174 123.5702668
 100.1801779  21.9193713 117.1490817  99.3439091  22.2568400 117.4700092
 100.0406549  21.7842693 116.2117954 102.1554860  16.7630501 121.8570001
 101.5019272  16.4479518 121.2326616 102.1135334  16.1406241 122.5829824
 103.2666065  27.0449796 113.7723293 102.3593126  26.8139049 113.9714442
 103.7637097  26.2487415 113.9597275 106.1734144  35.7547303 116.6919979
 105.4995842  36.0579000 117.3004937 106.5599965  36.5576384 116.3425436
 105.3892600  23.2512434 126.1817649 104.4715162  23.4727381 126.0239337
 105.8052744  23.3258745 125.3229356 106.1727648  24.6503850 121.3120329
 106.9199467  25.1625247 121.0027451 106.4419237  24.3287903 122.1724723
 104.4454298  27.1462391 118.2947283 103.5365517  26.8621424 118.3919753
 104.4749382  27.5661469 117.4350590 109.6773565  30.7568980 122.0638451
 109.2235893  29.9159890 122.1203641 109.0467532  31.3930379 122.4013231
 108.6206485  21.6860966 123.2939118 107.8829242  21.1738353 123.6249361
 108.8733259  21.2461348 122.4822395 108.1206505  32.5945477 122.9988269
 108.4129479  33.1550534 122.2800635 108.6305125  32.8874038 123.7541428
 108.7218112  14.4637218 123.8880888 109.0276989  13.6034582 123.6006803
 109.4470717  15.0554839 123.6879881  95.0142468  24.8667905 122.2762485
  94.8166868  24.2737266 121.5513552  94.4589132  24.5620115 122.9938424
 102.9939192  24.7591011 124.3957079 103.0487802  23.8064848 124.3199555
 102.1830394  24.9150451 124.8798377 104.1430386  28.6871135 115.6335362
 103.7049816  27.9706993 115.1740999 104.8840827  28.9147249 115.0720453
 100.9331552  23.3768071 122.1547457 100.1199418  23.6762242 122.5612650
 101.4290546  22.9823760 122.8721940 103.0840130  33.3725828 124.0881722
 103.0416309  33.5986674 123.1590254 104.0002829  33.1389203 124.2367523
 106.5305764  23.8409896 130.9862351 106.8855151  24.0681369 131.8456817
 107.1777895  24.1728272 130.3639607 112.2603501  26.9628332 121.6911680
 112.1221399  27.1529928 120.7632870 111.9039719  27.7247714 122.1479732
 100.4245627  20.9486427 127.7708692 101.0645006  20.8075186 127.0731656
  99.5923157  20.6620940 127.3947294 112.2872880  29.0304859 126.7022952
 112.7209387  28.9380148 127.5506006 113.0004461  29.0062359 126.0642968
 101.2005931  30.2488857 123.8843685 101.9946529  29.7539177 123.6826260
 100.4897623  29.7206720 123.5211390 106.0200775  32.6306953 128.2356053
 106.0737797  33.1997889 129.0033768 105.1515557  32.8008838 127.8710090
  97.5088694  24.3931939 119.9603438  96.5786282  24.3316394 120.1773400
  97.6046166  23.8707892 119.1640079  97.4274243  20.9186752 122.5481679
  97.6881061  21.8332085 122.4390840  98.2491416  20.4511194 122.6978292
  98.8999169  22.3324509 129.7180504  99.5722222  22.1241871 129.0693153
  98.0728955  22.1346595 129.2785736 113.1488430  29.0728559 129.2355837
 113.3424320  29.9774370 129.4815112 113.0489048  28.6135978 130.0694422
 104.9788875  26.7967215 129.7942984 105.9080935  26.9478374 129.6211952
 104.5579905  26.8851235 128.9391631 103.7777207  30.8217879 127.5641522
 103.6388292  30.4536664 128.4367460 102.9891803  31.3365519 127.3925480
 104.3725359  35.9226976 118.9067059 104.5477114  35.4515019 119.7212681
 103.6858147  36.5492742 119.1348319 105.3282422  30.1999482 124.9530360
 104.9932254  30.1600252 125.8488010 104.8286368  29.5344198 124.4800770
  99.3026666  25.6067112 130.4782941  99.1646464  24.8747351 131.0794480
 100.2131589  25.5176012 130.1967129 108.2641613  27.5455516 115.2267419
 107.6470784  26.8202344 115.1300472 107.7958102  28.3064876 114.8834494
 101.9308966  25.3187071 129.9666621 102.6408585  24.6780263 129.9253239
 101.8878275  25.5699966 130.8892801 109.9195745  32.2554425 132.8873200
 109.8608291  31.5713645 132.2203783 110.3215264  32.9973415 132.4353826
 100.6437900  22.3052289 131.7862260 100.1075257  21.8543028 132.4383856
 100.0554609  22.4398198 131.0432724  98.9386444  39.0716338 125.6806919
  99.1783042  39.7034863 126.3585937  98.0955640  38.7204378 125.9672278
 100.0540159  21.7640940 114.3488724  99.1769626  21.6429741 113.9850970
 100.5297912  20.9727019 114.0967612 109.9213152  30.2194008 131.1187179
 109.0339931  29.8819930 131.2413578 110.4911703  29.4877040 131.3555945
  91.5742300  26.5518100 124.4430231  92.2613339  26.2379830 123.8551246
  91.4190428  27.4559465 124.1697482  96.3777022  21.4408297 128.8715255
  96.2935210  20.8333966 128.1365664  95.5559728  21.9317315 128.8724751
 103.4514306  34.8795461 128.0848423 103.3784477  35.6850432 128.5967727
 103.0091699  35.0787427 127.2596444 103.2404085  34.1167231 121.5951244
 102.4571607  34.6588911 121.6889469 103.9396831  34.6341210 121.9945485
 106.5500736  19.9261860 124.2385450 107.0469435  19.1731823 123.9186520
 105.7787717  19.9626177 123.6728659 114.4030493  25.6302226 125.8803741
 114.3920369  26.5126941 125.5097674 113.5347872  25.2773777 125.6858278
 105.9112989  34.7782295 130.2406581 106.6240962  35.4129760 130.1682483
 105.4203018  34.8746161 129.4246583 107.6330516  28.6833548 121.8123873
 106.6986795  28.8035010 121.6428577 107.8107185  27.7806014 121.5483883
 103.1335704  22.0679243 123.9657134 102.7633492  21.5150284 124.6538040
 103.6294797  21.4637377 123.4132134 111.0203068  24.5250867 122.3473907
 111.4863520  25.3578858 122.2734210 111.4710568  24.0595848 123.0519166
 100.9624903  32.5276738 131.0612152 101.6634362  33.1613221 131.2141546
 100.4920018  32.8691470 130.3007791 109.0879299  30.8694688 119.3460059
 109.3639143  30.7551283 120.2553933 108.2183797  30.4712173 119.3072232
 108.7626189  25.0821346 128.8864702 108.1097639  25.3297253 128.2317155
 109.1406569  24.2685484 128.5527180 105.7233363  35.1181039 122.9892873
 105.9055757  34.3002695 123.4520625 106.5466349  35.3348731 122.5517763
 106.0575528  34.0449224 120.2507921 106.5863295  33.5341679 119.6378083
 106.3203748  33.7291754 121.1153454  96.5592621  32.0613093 127.9943255
  97.1446058  31.3156781 128.1271159  96.3617459  32.3717050 128.8779919
  99.4131276  35.0964341 123.0105697  98.7441651  35.5810468 122.5269737
  99.2744146  35.3433561 123.9249076  91.1510276  24.6318694 126.7147698
  91.1894375  24.0982284 127.5084816  90.6450568  24.1053899 126.0958675
 103.5536545  37.1308084 129.6088356 104.1054853  37.2939706 130.3737441
 103.8942738  37.7212522 128.9368380  98.5301038  19.4783234 130.2110240
  98.5942364  20.3398065 129.7987638  98.4668158  18.8657236 129.4782599
  98.0053310  21.5506367 133.8583275  98.6325349  21.1683444 134.4720799
  97.1481229  21.3320569 134.2238967 108.4047419  31.9569342 135.4637010
 108.9487323  32.5699300 134.9691965 107.8234264  32.5148920 135.9804023
  94.7818853  23.3582796 119.7901629  95.0772294  22.4493474 119.7368683
  93.8806889  23.3370535 119.4682632 106.6904932  35.0790060 126.5952038
 106.5656071  34.2779800 126.0862983 107.3484023  35.5736253 126.1066008
  98.3113100  21.4338792 125.7729178  97.5899686  22.0474760 125.6336651
  99.1006356  21.9696557 125.6945824 108.7539840  32.8799080 128.2231588
 107.8070176  32.7604431 128.1509915 109.1022614  31.9921578 128.3057849
 101.1139414  18.7693219 132.0469830 101.6373816  19.0155515 132.8096139
 100.8951747  19.6013254 131.6272967  96.5106695  21.0396893 119.9140955
  96.1819401  20.1594272 119.7316060  96.8646066  20.9844562 120.8017344
 105.7586274  32.6751796 124.4235940 105.6111236  31.7468503 124.6043510
 106.5839767  32.6971887 123.9393015  99.6248518  21.3269863 120.2816432
  99.9644590  21.8555784 119.5595041 100.0720638  21.6650269 121.0574999
 109.3620396  33.4980355 125.5100813 110.2866943  33.2923216 125.3725264
 109.1935699  33.2496756 126.4190154 102.3191959  19.7106914 129.7319500
 101.9788779  18.9114727 130.1340180 101.6130965  20.0108625 129.1596333
 102.9708431  16.7956226 128.1846823 103.7934500  16.3216704 128.0625714
 103.2146494  17.5746710 128.6845510 101.6116665  19.8244485 118.4809725
 102.3325028  20.2025738 117.9773442 100.9881969  20.5433362 118.5844703
 105.7547788  20.5289634 119.4168057 105.9711402  21.4114272 119.1156885
 105.2741855  20.1375847 118.6873699 100.4947009  23.4875347 125.9938802
 100.3491590  23.8015650 126.8863083 100.0172213  24.1060247 125.4409701
 102.3543392  20.4777895 126.0419691 102.3404961  19.5818988 125.7051989
 103.0715820  20.4848559 126.6757977 104.2069523  20.9115235 128.0872819
 103.9487301  21.8332306 128.0857149 103.6754563  20.5145670 128.7773283
 109.1515712  34.0166022 120.8662904 109.3252589  33.4512445 120.1136757
 109.6444603  34.8166917 120.6842394  94.9692672  26.0280691 128.9326463
  94.4246140  26.8040499 129.0646737  95.8472021  26.3751496 128.7745584
 101.7580288  19.3592275 121.3107262 101.8796199  18.4308921 121.5098149
 101.4682331  19.3730961 120.3985577 104.6271479  17.0447186 124.4473981
 104.6493175  17.1086519 123.4925961 105.0439538  16.2051694 124.6414488
 115.0055103  26.7802445 122.4853204 115.4486249  26.0309770 122.0872327
 114.1281613  26.7712582 122.1026936 110.1390884  33.3332787 117.9659803
 110.8341789  33.9539479 118.1847117 110.4814034  32.4828138 118.2412180
  95.7558693  25.1550588 131.8256620  95.0140429  25.3033223 132.4121250
  95.4351438  25.4158853 130.9623369 112.0382307  30.7832492 119.4947133
 112.5633631  31.1219765 118.7696453 111.9504660  29.8479508 119.3110268
 103.7002356  34.6966566 131.6237010 104.0089483  34.4515713 132.4959710
 104.4977838  34.9013204 131.1355880 103.7222968  36.8504475 123.8542386
 103.2827958  36.3580854 124.5475243 104.4731085  36.3077443 123.6134462
  96.2015307  33.0416016 123.8567015  97.0273327  32.7419788 123.4765658
  95.8509359  32.2723639 124.3056803 101.1696840  32.3942485 125.9264688
 100.5476850  31.7313190 125.6266916 101.8401707  32.4203616 125.2438336
  94.4023912  30.9602343 124.8155948  93.5655820  30.5324517 124.6339949
  94.3747558  31.1534786 125.7526739 100.7310347  30.9446408 119.4023149
 100.8798468  31.6281872 118.7489821 101.5376791  30.9251498 119.9172604
 103.4720656  21.6255645 132.2743553 102.6023966  21.9189211 132.0026141
 103.7080137  22.2096090 132.9950816 114.5487968  28.2507684 124.8775652
 115.3834859  28.6897488 125.0413212 114.6847096  27.7746337 124.0583897
  98.4862980  26.9711586 120.4084218  98.2409022  26.0673916 120.6064428
  98.6558895  26.9728736 119.4663696  97.7558628  22.7039943 117.9070379
  97.0627873  22.7784298 117.2510415  97.5110380  21.9400287 118.4291896
 106.4272284  14.2635544 125.3109870 106.7074038  13.5958734 125.9370296
 107.2122891  14.4564640 124.7984534 104.2305753  33.4394538 116.8734896
 103.6579720  34.0584725 116.4205368 104.8038546  33.9893900 117.4074818
 107.4503012  33.7231688 118.0043478 108.3833686  33.6577250 118.2076354
 107.3626225  34.5587955 117.5458011 110.0791029  33.0397559 114.9647426
 110.0004661  32.7057422 115.8583184 110.9000696  33.5319327 114.9638898
 112.7769220  25.9059298 128.1723745 112.7445540  24.9675299 128.3583428
 113.3869844  25.9843335 127.4389569 104.6152551  24.7755351 114.2150949
 105.5611656  24.6461559 114.2839367 104.2366796  24.0370013 114.6920377
 110.5874436  16.4411357 124.1777840 110.3899257  16.1326445 125.0621172
 111.1974141  17.1672996 124.3075770 104.4991244  28.8273097 135.6751606
 105.4194253  29.0051696 135.8691652 104.4640827  27.8829143 135.5231305
 102.7995468  22.7005327 114.1505834 101.8926924  22.4038440 114.2268547
 103.0771449  22.4035146 113.2840120  93.7173409  24.0211691 124.6004880
  93.3976193  23.1676999 124.3079254  93.1706837  24.2360269 125.3562848
  97.4953316  26.7374132 128.3174387  97.7139326  27.6691240 128.3362421
  97.9079090  26.3782106 129.1029191 104.4157534  17.2442217 120.3050075
 103.6058262  16.8989302 120.6805321 105.1041951  16.9349761 120.8937687
 106.3448082  16.3220264 121.9274372 106.8979121  16.7415717 122.5864395
 106.5818169  15.3956012 121.9697328 101.5694253  19.5592263 114.2917813
 102.4313417  19.8847161 114.5513630 101.7544597  18.7723759 113.7790879
  93.5861669  27.6414602 126.5698002  92.8925140  27.2268555 126.0567956
  94.3334660  27.6835139 125.9731421 109.7226889  18.4320789 121.4353036
 109.1425558  19.0905593 121.0531088 109.4562822  17.6098134 121.0240454
 108.1730456  17.8325847 123.6374356 108.6730234  17.9442381 122.8288675
 108.8166064  17.5286900 124.2775165 102.2312452  25.7404476 136.5242197
 101.7479533  26.5404837 136.7306086 102.3173391  25.7512421 135.5709641
  95.4998411  27.5732856 124.4464017  95.4769099  27.6720543 123.4945900
  95.8099048  28.4198007 124.7681183  98.1585789  29.6309011 128.5610631
  99.1129043  29.5992954 128.4940563  97.9598313  29.1699635 129.3760857
  98.7485171  28.2010127 131.1281429  99.5678060  28.6954206 131.1516266
  99.0221979  27.2842095 131.0998996 108.5051767  20.5920880 120.4909384
 107.6177622  20.8770530 120.2729579 108.9205757  20.4314643 119.6436661
 111.8566304  20.6167401 124.2063724 112.6326694  21.1063853 124.4788340
 111.1314438  21.0425455 124.6635593  96.5136018  35.1728631 125.5780829
  96.3790486  34.4129032 125.0118827  96.0968080  35.8969531 125.1109618
 107.6494981  30.3565554 114.5857404 108.3530831  30.5615557 115.2015060
 106.9257630  30.9242316 114.8506488 108.4792791  26.1075415 120.7059674
 108.4227993  26.5643967 119.8667307 109.0321134  25.3466100 120.5282517
 112.2897597  21.8965147 121.5309794 112.0334531  21.4961783 122.3618002
 111.6650465  22.6108941 121.4059933 116.6009935  24.6361221 124.0381085
 116.0409493  24.7054410 124.8112647 115.9953438  24.4602205 123.3180582
  99.6705144  36.0697948 125.7899272  99.5537528  37.0143380 125.6877962
  98.8497590  35.7671509 126.1785071 109.5581678  30.7948083 116.6355864
 110.3927282  30.3629282 116.4533339 109.3966021  30.6230097 117.5632759
 109.2127571  27.2980197 118.0012204 109.1576374  27.1324468 117.0600648
 108.5873626  28.0056230 118.1574393  94.0020086  22.5348261 131.8273626
  94.6478949  22.0247215 132.3160851  93.7937237  23.2716943 132.4017051
 102.5223696  16.7988306 117.5797522 102.5102366  17.7430146 117.7365793
 103.4147118  16.6158451 117.2856983 100.6959658  36.7226210 129.0055200
 101.5986905  36.7549820 129.3221695 100.4697028  35.7926661 129.0201536
 102.4513260  35.4757196 125.6665279 101.5008891  35.4759058 125.5529651
 102.7545746  34.7289931 125.1501313 106.3375815  13.3931082 121.8343459
 105.5708211  12.8389569 121.9800141 106.7486520  13.4652951 122.6957610
  98.3417576  19.6815878 135.9248640  99.2049038  19.3252683 136.1351965
  97.7682987  19.3429773 136.6124044 118.1865953  41.3117735 126.7311041
 118.8244363  41.1924482 126.0274381 118.0686796  42.2598578 126.7898993
 114.9955660  41.2645163 126.6672566 114.6574171  41.1486227 125.7793101
 115.8645428  40.8636328 126.6473572 110.8542475  43.1180639 122.6569457
 110.2907341  43.0270576 121.8885744 110.7394870  42.2980544 123.1371949
 115.4775443  42.4180014 132.6258771 115.4664083  42.0232813 131.7539275
 115.6396082  41.6846087 133.2192543 108.4006907  44.6131831 125.4953677
 109.1928199  44.2722655 125.0799976 108.6403557  44.7226806 126.4155831
 116.4342034  46.7851607 117.9683922 115.7830014  47.3705687 117.5817935
 117.2286397  47.3157802 118.0278959 110.3597661  43.8740744 118.3671056
 111.1328537  43.3269731 118.2283932 110.7123060  44.7384993 118.5785517
 112.1982704  45.2017126 131.5737955 111.9072570  46.1062757 131.4584622
 112.8339688  45.2433654 132.2882025 113.1238911  42.5793975 128.1639315
 113.7202483  42.3549997 127.4496278 113.1813882  41.8378720 128.7664763
 112.6963939  40.0333410 115.9989506 112.9489460  39.5114931 115.2372969
 111.7588498  39.8699555 116.1016190 117.7407222  39.0369188 123.8064249
 118.5270311  38.6188612 123.4554666 118.0045926  39.9415281 123.9745898
 117.9117299  44.4742039 118.5052906 117.2763132  44.5476665 119.2173811
 117.5814706  45.0635638 117.8271985 123.1415649  38.9744422 124.7097228
 123.8740821  38.4043638 124.9435057 122.3855005  38.5866022 125.1503733
 112.4160228  41.9361516 118.2013881 112.2996486  41.2606419 118.8694965
 112.5262488  41.4493890 117.3846034 114.7591769  41.3971663 121.9060570
 114.3949976  40.8702284 122.6173492 115.6158885  41.0070132 121.7327056
 114.3997256  36.4261563 116.9021919 114.5671658  37.2941799 117.2692390
 114.2094425  36.5888844 115.9783208 117.1572589  44.8878542 128.5687749
 116.8573312  45.7903580 128.4603556 116.8123648  44.6210725 129.4208902
 110.6085070  41.3392339 124.6024453 109.6835567  41.2068553 124.8102145
 110.8569484  42.1186558 125.0994396 120.5569733  37.4061082 126.2485186
 119.6486610  37.3376490 125.9543947 120.5057329  37.8833027 127.0767012
 114.3786477  38.8819220 117.8868585 114.2586102  39.3276271 118.7254066
 113.6839065  39.2304538 117.3282124 107.9693881  40.9825612 125.4368242
 108.0986263  41.2360091 126.3507654 107.2891333  41.5753320 125.1172898
 112.1393369  51.6522862 121.5358717 112.0617398  52.6030687 121.6147197
 111.5355012  51.3068735 122.1933643 114.6310598  38.8250727 134.1920084
 113.8543933  39.3844648 134.1822948 115.2701162  39.3107510 134.7134954
 120.0771543  39.3540693 118.7148919 120.9889399  39.5868080 118.5396617
 119.5681190  39.9377738 118.1523998 112.8856971  41.6336181 133.7538051
 113.6271655  42.1721225 133.4772874 112.1793956  42.2602470 133.9109602
 118.3612310  43.7765321 132.3510212 118.7695666  43.3347732 131.6064844
 117.6389572  43.2017949 132.6044405 114.7143380  38.7137928 129.7243769
 115.5604576  39.1377342 129.8678418 114.6542018  38.0571552 130.4182332
 118.6841125  44.3366512 126.1062501 118.0549988  44.5012226 125.4038569
 118.2966787  44.7508121 126.8773465 122.5630357  45.2720950 123.4606865
 121.8781395  45.6519851 122.9103898 122.6474206  45.8816276 124.1938812
 119.8181289  42.9180909 130.0602208 120.0298184  43.5612669 129.3836589
 119.7711037  42.0843225 129.5924138 117.4207518  35.5298729 126.9638780
 116.5591997  35.8279983 127.2555518 117.4469952  35.7469128 126.0319813
 114.2369087  44.0740920 123.3712586 114.7007432  44.3528623 122.5817209
 113.9725885  43.1724365 123.1885677 111.1293168  43.6212402 126.3092349
 111.6994525  44.0499670 125.6709834 111.7201280  43.3394986 127.0076535
 113.1737973  40.1964072 120.1802151 113.8762016  40.6485116 120.6476078
 112.8418602  39.5547891 120.8082044 111.6218335  38.7875829 134.5553361
 110.9916995  39.4692110 134.7888757 111.5154422  38.6758911 133.6106499
 106.9163307  38.4547625 125.4819285 106.1262361  38.7105154 125.0059395
 107.4074554  39.2695963 125.5871325 120.9327117  45.7952864 128.2324566
 121.7544560  45.3933051 127.9507247 120.9289519  45.6921098 129.1840681
 108.8678052  38.8192204 122.4402761 108.0709216  38.9310899 122.9586257
 108.6403645  39.1578856 121.5743652 114.6983720  45.3436907 130.3885276
 114.7628152  45.8057315 131.2243448 113.9894644  44.7134272 130.5167586
 105.2001010  38.7078115 127.9134276 105.4509048  39.5925125 128.1791851
 105.7360558  38.5282717 127.1409367 114.4131738  47.0105015 120.2564256
 114.2777412  47.8556551 120.6849104 114.9541550  47.2124293 119.4930190
 107.8661135  44.5280453 120.8292181 108.3785656  45.3223703 120.9797746
 108.5183848  43.8306743 120.7625783 109.6756020  47.6446209 122.9114935
 109.8522648  48.5664174 122.7235919 110.4712853  47.3304629 123.3409314
 108.9608376  39.6910841 132.7877098 108.8461891  38.7896098 133.0884197
 108.1052894  39.9374538 132.4361914 116.0400214  47.6328581 134.3864598
 115.5964068  46.8464960 134.0685503 116.7017428  47.8207732 133.7208489
 110.7987335  49.1624383 128.9125277 111.3494760  49.0341446 128.1402271
 109.9598811  49.4619272 128.5620170 118.1381452  47.9131381 132.4146000
 118.1199927  48.7340262 131.9226269 119.0601372  47.7885457 132.6396141
 114.5954506  45.4275511 133.2569508 115.1282843  44.6663799 133.0268816
 114.0668587  45.1349163 133.9993663 105.8310052  42.8569107 121.6051752
 106.6685274  43.2666116 121.3885460 106.0088320  41.9168549 121.5751946
 117.7274484  40.5244188 117.2935585 117.2121107  41.2948793 117.5323972
 117.4551792  39.8509324 117.9168646 115.3121595  35.3693889 122.3520823
 114.4563191  34.9800739 122.1726462 115.7248547  35.4485850 121.4920609
 116.8420742  32.9040232 126.7512383 116.3385537  32.8670367 125.9380188
 117.1351348  33.8132975 126.8109040 113.0863627  32.9878962 125.7578565
 113.9516624  32.7921770 125.3984454 113.1541136  32.7589314 126.6847922
 122.7008758  43.2776543 119.2288758 121.9238201  42.9387702 118.7843921
 123.3800239  43.2829166 118.5543724 117.5160787  38.3971280 119.1195366
 117.2110923  38.7117429 119.9705509 118.4691229  38.4752700 119.1622699
 115.9607219  44.5561503 120.7688320 115.4328581  43.8214263 120.4561558
 115.4594722  45.3336180 120.5228288 120.9400065  42.7510524 125.8855366
 120.2823739  43.4409785 125.9735495 121.7440464  43.1406956 126.2289353
 110.6925947  35.2181170 123.1294932 111.2669698  34.9956351 122.3968125
 111.2796929  35.2869864 123.8823533 119.7505524  41.1054897 123.9359308
 120.2637406  41.7384888 124.4381018 120.4006748  40.5056092 123.5702668
 111.0195534  37.2485631 117.1490817 110.1832846  37.5860317 117.4700092
 110.8800303  37.1134610 116.2117954 112.9948614  32.0922419 121.8570001
 112.3413027  31.7771436 121.2326616 112.9529088  31.4698159 122.5829824
 114.1059819  42.3741714 113.7723293 113.1986881  42.1430967 113.9714442
 114.6030851  41.5779333 113.9597275 117.0127898  51.0839221 116.6919979
 116.3389597  51.3870918 117.3004937 117.3993720  51.8868301 116.3425436
 116.2286355  38.5804352 126.1817649 115.3108916  38.8019299 126.0239337
 116.6446498  38.6550663 125.3229356 117.0121402  39.9795768 121.3120329
 117.7593221  40.4917165 121.0027451 117.2812992  39.6579821 122.1724723
 115.2848053  42.4754309 118.2947283 114.3759272  42.1913341 118.3919753
 115.3143136  42.8953387 117.4350590 120.5167320  46.0860898 122.0638451
 120.0629647  45.2451808 122.1203641 119.8861287  46.7222296 122.4013231
 119.4600240  37.0152884 123.2939118 118.7222996  36.5030270 123.6249361
 119.7127013  36.5753266 122.4822395 118.9600259  47.9237395 122.9988269
 119.2523234  48.4842452 122.2800635 119.4698880  48.2165956 123.7541428
 119.5611867  29.7929136 123.8880888 119.8670744  28.9326499 123.6006803
 120.2864472  30.3846756 123.6879881 105.8536223  40.1959823 122.2762485
 105.6560623  39.6029183 121.5513552 105.2982887  39.8912033 122.9938424
 113.8332947  40.0882929 124.3957079 113.8881556  39.1356766 124.3199555
 113.0224149  40.2442368 124.8798377 114.9824140  44.0163052 115.6335362
 114.5443570  43.2998911 115.1740999 115.7234581  44.2439167 115.0720453
 111.7725307  38.7059989 122.1547457 110.9593172  39.0054159 122.5612650
 112.2684301  38.3115678 122.8721940 113.9233884  48.7017746 124.0881722
 113.8810063  48.9278592 123.1590254 114.8396583  48.4681120 124.2367523
 117.3699518  39.1701813 130.9862351 117.7248906  39.3973286 131.8456817
 118.0171649  39.5020190 130.3639607 123.0997255  42.2920249 121.6911680
 122.9615154  42.4821845 120.7632870 122.7433474  43.0539632 122.1479732
 111.2639381  36.2778344 127.7708692 111.9038761  36.1367103 127.0731656
 110.4316912  35.9912858 127.3947294 123.1266635  44.3596776 126.7022952
 123.5603141  44.2672065 127.5506006 123.8398215  44.3354277 126.0642968
 112.0399685  45.5780775 123.8843685 112.8340284  45.0831095 123.6826260
 111.3291378  45.0498638 123.5211390 116.8594530  47.9598870 128.2356053
 116.9131552  48.5289807 129.0033768 115.9909311  48.1300755 127.8710090
 108.3482449  39.7223857 119.9603438 107.4180037  39.6608312 120.1773400
 108.4439921  39.1999809 119.1640079 108.2667998  36.2478669 122.5481679
 108.5274815  37.1624003 122.4390840 109.0885170  35.7803112 122.6978292
 109.7392923  37.6616427 129.7180504 110.4115976  37.4533789 129.0693153
 108.9122710  37.4638513 129.2785736 123.9882184  44.4020477 129.2355837
 124.1818074  45.3066287 129.4815112 123.8882802  43.9427896 130.0694422
 115.8182629  42.1259132 129.7942984 116.7474689  42.2770292 129.6211952
 115.3973659  42.2143153 128.9391631 114.6170961  46.1509797 127.5641522
 114.4782047  45.7828581 128.4367460 113.8285557  46.6657436 127.3925480
 115.2119113  51.2518893 118.9067059 115.3870869  50.7806936 119.7212681
 114.5251901  51.8784659 119.1348319 116.1676176  45.5291399 124.9530360
 115.8326009  45.4892169 125.8488010 115.6680122  44.8636115 124.4800770
 110.1420420  40.9359030 130.4782941 110.0040218  40.2039268 131.0794480
 111.0525344  40.8467930 130.1967129 119.1035368  42.8747434 115.2267419
 118.4864539  42.1494262 115.1300472 118.6351856  43.6356794 114.8834494
 112.7702721  40.6478989 129.9666621 113.4802339  40.0072181 129.9253239
 112.7272029  40.8991884 130.8892801 120.7589500  47.5846342 132.8873200
 120.7002046  46.9005562 132.2203783 121.1609018  48.3265332 132.4353826
 111.4831655  37.6344207 131.7862260 110.9469012  37.1834945 132.4383856
 110.8948363  37.7690116 131.0432724 109.7780198  54.4008256 125.6806919
 110.0176797  55.0326780 126.3585937 108.9349395  54.0496296 125.9672278
 110.8933914  37.0932858 114.3488724 110.0163380  36.9721659 113.9850970
 111.3691667  36.3018936 114.0967612 120.7606907  45.5485926 131.1187179
 119.8733686  45.2111848 131.2413578 121.3305458  44.8168957 131.3555945
 102.4136054  41.8810018 124.4430231 103.1007094  41.5671748 123.8551246
 102.2584183  42.7851383 124.1697482 107.2170776  36.7700214 128.8715255
 107.1328965  36.1625884 128.1365664 106.3953483  37.2609233 128.8724751
 114.2908060  50.2087378 128.0848423 114.2178232  51.0142350 128.5967727
 113.8485453  50.4079344 127.2596444 114.0797840  49.4459148 121.5951244
 113.2965362  49.9880829 121.6889469 114.7790585  49.9633128 121.9945485
 117.3894490  35.2553778 124.2385450 117.8863190  34.5023740 123.9186520
 116.6181472  35.2918095 123.6728659 125.2424247  40.9594143 125.8803741
 125.2314124  41.8418859 125.5097674 124.3741627  40.6065694 125.6858278
 116.7506744  50.1074212 130.2406581 117.4634716  50.7421677 130.1682483
 116.2596772  50.2038078 129.4246583 118.4724271  44.0125465 121.8123873
 117.5380549  44.1326928 121.6428577 118.6500939  43.1097932 121.5483883
 113.9729459  37.3971161 123.9657134 113.6027246  36.8442201 124.6538040
 114.4688551  36.7929294 123.4132134 121.8596822  39.8542784 122.3473907
 122.3257274  40.6870776 122.2734210 122.3104323  39.3887766 123.0519166
 111.8018657  47.8568656 131.0612152 112.5028117  48.4905139 131.2141546
 111.3313772  48.1983388 130.3007791 119.9273053  46.1986606 119.3460059
 120.2032897  46.0843200 120.2553933 119.0577552  45.8004091 119.3072232
 119.6019943  40.4113263 128.8864702 118.9491394  40.6589171 128.2317155
 119.9800323  39.5977402 128.5527180 116.5627117  50.4472957 122.9892873
 116.7449512  49.6294613 123.4520625 117.3860103  50.6640649 122.5517763
 116.8969283  49.3741142 120.2507921 117.4257049  48.8633596 119.6378083
 117.1597502  49.0583672 121.1153454 107.3986375  47.3905011 127.9943255
 107.9839812  46.6448699 128.1271159 107.2011214  47.7008968 128.8779919
 110.2525031  50.4256258 123.0105697 109.5835406  50.9102386 122.5269737
 110.1137900  50.6725479 123.9249076 101.9904030  39.9610611 126.7147698
 102.0288130  39.4274202 127.5084816 101.4844323  39.4345817 126.0958675
 114.3930299  52.4600002 129.6088356 114.9448607  52.6231623 130.3737441
 114.7336493  53.0504440 128.9368380 109.3694792  34.8075152 130.2110240
 109.4336119  35.6689983 129.7987638 109.3061913  34.1949153 129.4782599
 108.8447065  36.8798284 133.8583275 109.4719104  36.4975362 134.4720799
 107.9874984  36.6612486 134.2238967 119.2441174  47.2861259 135.4637010
 119.7881078  47.8991218 134.9691965 118.6628018  47.8440838 135.9804023
 105.6212608  38.6874713 119.7901629 105.9166049  37.7785392 119.7368683
 104.7200643  38.6662453 119.4682632 117.5298686  50.4081977 126.5952038
 117.4049826  49.6071717 126.0862983 118.1877778  50.9028171 126.1066008
 109.1506855  36.7630710 125.7729178 108.4293440  37.3766678 125.6336651
 109.9400110  37.2988475 125.6945824 119.5933595  48.2090998 128.2231588
 118.6463930  48.0896349 128.1509915 119.9416368  47.3213496 128.3057849
 111.9533168  34.0985136 132.0469830 112.4767570  34.3447433 132.8096139
 111.7345502  34.9305171 131.6272967 107.3500449  36.3688811 119.9140955
 107.0213155  35.4886190 119.7316060 107.7039820  36.3136480 120.8017344
 116.5980028  48.0043714 124.4235940 116.4504991  47.0760421 124.6043510
 117.4233522  48.0263804 123.9393015 110.4642272  36.6561781 120.2816432
 110.8038345  37.1847702 119.5595041 110.9114393  36.9942187 121.0574999
 120.2014150  48.8272272 125.5100813 121.1260698  48.6215134 125.3725264
 120.0329453  48.5788674 126.4190154 113.1585713  35.0398832 129.7319500
 112.8182534  34.2406645 130.1340180 112.4524720  35.3400542 129.1596333
 113.8102185  32.1248144 128.1846823 114.6328254  31.6508622 128.0625714
 114.0540249  32.9038628 128.6845510 112.4510420  35.1536402 118.4809725
 113.1718782  35.5317655 117.9773442 111.8275724  35.8725279 118.5844703
 116.5941542  35.8581551 119.4168057 116.8105157  36.7406189 119.1156885
 116.1135610  35.4667765 118.6873699 111.3340764  38.8167265 125.9938802
 111.1885345  39.1307568 126.8863083 110.8565968  39.4352165 125.4409701
 113.1937147  35.8069813 126.0419691 113.1798716  34.9110906 125.7051989
 113.9109575  35.8140476 126.6757977 115.0463277  36.2407153 128.0872819
 114.7881055  37.1624223 128.0857149 114.5148318  35.8437587 128.7773283
 119.9909466  49.3457940 120.8662904 120.1646344  48.7804362 120.1136757
 120.4838357  50.1458835 120.6842394 105.8086426  41.3572609 128.9326463
 105.2639894  42.1332417 129.0646737 106.6865776  41.7043413 128.7745584
 112.5974043  34.6884193 121.3107262 112.7189954  33.7600839 121.5098149
 112.3076085  34.7022879 120.3985577 115.4665233  32.3739103 124.4473981
 115.4886930  32.4378436 123.4925961 115.8833292  31.5343612 124.6414488
 125.8448857  42.1094363 122.4853204 126.2880003  41.3601688 122.0872327
 124.9675368  42.1004499 122.1026936 120.9784639  48.6624704 117.9659803
 121.6735543  49.2831397 118.1847117 121.3207789  47.8120056 118.2412180
 106.5952448  40.4842505 131.8256620 105.8534184  40.6325141 132.4121250
 106.2745192  40.7450771 130.9623369 122.8776062  46.1124410 119.4947133
 123.4027386  46.4511683 118.7696453 122.7898414  45.1771425 119.3110268
 114.5396111  50.0258484 131.6237010 114.8483237  49.7807630 132.4959710
 115.3371593  50.2305122 131.1355880 114.5616723  52.1796393 123.8542386
 114.1221713  51.6872772 124.5475243 115.3124840  51.6369361 123.6134462
 107.0409062  48.3707934 123.8567015 107.8667081  48.0711706 123.4765658
 106.6903114  47.6015556 124.3056803 112.0090595  47.7234402 125.9264688
 111.3870604  47.0605107 125.6266916 112.6795462  47.7495534 125.2438336
 105.2417667  46.2894260 124.8155948 104.4049575  45.8616435 124.6339949
 105.2141312  46.4826704 125.7526739 111.5704102  46.2738326 119.4023149
 111.7192222  46.9573790 118.7489821 112.3770545  46.2543416 119.9172604
 114.3114411  36.9547563 132.2743553 113.4417720  37.2481129 132.0026141
 114.5473891  37.5388008 132.9950816 125.3881722  43.5799601 124.8775652
 126.2228613  44.0189405 125.0413212 125.5240851  43.1038254 124.0583897
 109.3256735  42.3003503 120.4084218 109.0802777  41.3965833 120.6064428
 109.4952649  42.3020654 119.4663696 108.5952382  38.0331861 117.9070379
 107.9021627  38.1076216 117.2510415 108.3504134  37.2692204 118.4291896
 117.2666039  29.5927462 125.3109870 117.5467792  28.9250651 125.9370296
 118.0516646  29.7856558 124.7984534 115.0699507  48.7686456 116.8734896
 114.4973474  49.3876643 116.4205368 115.6432301  49.3185818 117.4074818
 118.2896767  49.0523606 118.0043478 119.2227440  48.9869168 118.2076354
 118.2019980  49.8879873 117.5458011 120.9184784  48.3689476 114.9647426
 120.8398415  48.0349340 115.8583184 121.7394450  48.8611244 114.9638898
 123.6162975  41.2351216 128.1723745 123.5839295  40.2967217 128.3583428
 124.2263598  41.3135253 127.4389569 115.4546306  40.1047269 114.2150949
 116.4005410  39.9753477 114.2839367 115.0760551  39.3661931 114.6920377
 121.4268190  31.7703275 124.1777840 121.2293011  31.4618363 125.0621172
 122.0367896  32.4964914 124.3075770 115.3384998  44.1565015 135.6751606
 116.2588008  44.3343614 135.8691652 115.3034581  43.2121060 135.5231305
 113.6389223  38.0297245 114.1505834 112.7320678  37.7330358 114.2268547
 113.9165204  37.7327063 113.2840120 104.5567163  39.3503609 124.6004880
 104.2369948  38.4968917 124.3079254 104.0100591  39.5652187 125.3562848
 108.3347071  42.0666050 128.3174387 108.5533081  42.9983157 128.3362421
 108.7472845  41.7074024 129.1029191 115.2551289  32.5734135 120.3050075
 114.4452017  32.2281220 120.6805321 115.9435705  32.2641679 120.8937687
 117.1841837  31.6512182 121.9274372 117.7372875  32.0707635 122.5864395
 117.4211923  30.7247930 121.9697328 112.4088007  34.8884180 114.2917813
 113.2707171  35.2139079 114.5513630 112.5938352  34.1015676 113.7790879
 104.4255423  42.9706520 126.5698002 103.7318895  42.5560473 126.0567956
 105.1728414  43.0127057 125.9731421 120.5620644  33.7612707 121.4353036
 119.9819313  34.4197511 121.0531088 120.2956577  32.9390051 121.0240454
 119.0124210  33.1617765 123.6374356 119.5123989  33.2734299 122.8288675
 119.6559818  32.8578817 124.2775165 113.0706206  41.0696394 136.5242197
 112.5873288  41.8696754 136.7306086 113.1567145  41.0804339 135.5709641
 106.3392166  42.9024774 124.4464017 106.3162854  43.0012461 123.4945900
 106.6492802  43.7489925 124.7681183 108.9979544  44.9600929 128.5610631
 109.9522797  44.9284871 128.4940563 108.7992067  44.4991553 129.3760857
 109.5878926  43.5302045 131.1281429 110.4071815  44.0246124 131.1516266
 109.8615733  42.6134013 131.0998996 119.3445522  35.9212797 120.4909384
 118.4571377  36.2062448 120.2729579 119.7599511  35.7606561 119.6436661
 122.6960058  35.9459318 124.2063724 123.4720448  36.4355771 124.4788340
 121.9708192  36.3717372 124.6635593 107.3529772  50.5020548 125.5780829
 107.2184240  49.7420949 125.0118827 106.9361835  51.2261448 125.1109618
 118.4888735  45.6857472 114.5857404 119.1924586  45.8907474 115.2015060
 117.7651384  46.2534234 114.8506488 119.3186546  41.4367333 120.7059674
 119.2621747  41.8935885 119.8667307 119.8714888  40.6758018 120.5282517
 123.1291352  37.2257065 121.5309794 122.8728286  36.8253701 122.3618002
 122.5044220  37.9400859 121.4059933 127.4403689  39.9653138 124.0381085
 126.8803247  40.0346328 124.8112647 126.8347193  39.7894123 123.3180582
 110.5098898  51.3989865 125.7899272 110.3931282  52.3435298 125.6877962
 109.6891345  51.0963427 126.1785071 120.3975433  46.1240001 116.6355864
 121.2321037  45.6921200 116.4533339 120.2359776  45.9522015 117.5632759
 120.0521325  42.6272114 118.0012204 119.9970129  42.4616386 117.0600648
 119.4267380  43.3348147 118.1574393 104.8413840  37.8640179 131.8273626
 105.4872704  37.3539133 132.3160851 104.6330991  38.6008860 132.4017051
 113.3617450  32.1280223 117.5797522 113.3496120  33.0722063 117.7365793
 114.2540872  31.9450369 117.2856983 111.5353412  52.0518127 129.0055200
 112.4380659  52.0841738 129.3221695 111.3090782  51.1218578 129.0201536
 113.2907014  50.8049114 125.6665279 112.3402645  50.8050975 125.5529651
 113.5939501  50.0581848 125.1501313 117.1769570  28.7223000 121.8343459
 116.4101966  28.1681487 121.9800141 117.5880275  28.7944869 122.6957610
 109.1811331  35.0107796 135.9248640 110.0442793  34.6544601 136.1351965
 108.6076742  34.6721691 136.6124044 129.0259708  56.6409652 126.7311041
 129.6638118  56.5216400 126.0274381 128.9080551  57.5890496 126.7898993
 125.8349414  56.5937080 126.6672566 125.4967926  56.4778145 125.7793101
 126.7039182  56.1928245 126.6473572 121.6936230  58.4472557 122.6569457
 121.1301095  58.3562494 121.8885744 121.5788625  57.6272461 123.1371949
 126.3169197  57.7471932 132.6258771 126.3057838  57.3524730 131.7539275
 126.4789837  57.0138005 133.2192543 119.2400662  59.9423748 125.4953677
 120.0321954  59.6014573 125.0799976 119.4797312  60.0518723 126.4155831
 127.2735789  62.1143524 117.9683922 126.6223768  62.6997605 117.5817935
 128.0680151  62.6449719 118.0278959 121.1991416  59.2032662 118.3671056
 121.9722292  58.6561649 118.2283932 121.5516815  60.0676911 118.5785517
 123.0376458  60.5309044 131.5737955 122.7466324  61.4354675 131.4584622
 123.6733443  60.5725571 132.2882025 123.9632665  57.9085892 128.1639315
 124.5596237  57.6841915 127.4496278 124.0207637  57.1670638 128.7664763
 123.5357694  55.3625328 115.9989506 123.7883214  54.8406849 115.2372969
 122.5982253  55.1991473 116.1016190 128.5800976  54.3661106 123.8064249
 129.3664066  53.9480529 123.4554666 128.8439681  55.2707198 123.9745898
 128.7511054  59.8033956 118.5052906 128.1156887  59.8768583 119.2173811
 128.4208460  60.3927555 117.8271985 133.9809404  54.3036339 124.7097228
 134.7134575  53.7335556 124.9435057 133.2248759  53.9157940 125.1503733
 123.2553982  57.2653434 118.2013881 123.1390240  56.5898337 118.8694965
 123.3656242  56.7785808 117.3846034 125.5985523  56.7263581 121.9060570
 125.2343730  56.1994202 122.6173492 126.4552639  56.3362050 121.7327056
 125.2391010  51.7553480 116.9021919 125.4065413  52.6233717 117.2692390
 125.0488179  51.9180762 115.9783208 127.9966343  60.2170459 128.5687749
 127.6967067  61.1195498 128.4603556 127.6517403  59.9502643 129.4208902
 121.4478825  56.6684256 124.6024453 120.5229321  56.5360470 124.8102145
 121.6963238  57.4478475 125.0994396 131.3963487  52.7353000 126.2485186
 130.4880365  52.6668408 125.9543947 131.3451083  53.2124944 127.0767012
 125.2180231  54.2111138 117.8868585 125.0979856  54.6568189 118.7254066
 124.5232819  54.5596456 117.3282124 118.8087636  56.3117530 125.4368242
 118.9380017  56.5652009 126.3507654 118.1285087  56.9045238 125.1172898
 122.9787123  66.9814780 121.5358717 122.9011153  67.9322605 121.6147197
 122.3748767  66.6360652 122.1933643 125.4704353  54.1542645 134.1920084
 124.6937687  54.7136565 134.1822948 126.1094916  54.6399428 134.7134954
 130.9165297  54.6832611 118.7148919 131.8283153  54.9159998 118.5396617
 130.4074944  55.2669655 118.1523998 123.7250725  56.9628098 133.7538051
 124.4665410  57.5013142 133.4772874 123.0187711  57.5894387 133.9109602
 129.2006065  59.1057239 132.3510212 129.6089421  58.6639649 131.6064844
 128.4783326  58.5309866 132.6044405 125.5537135  54.0429846 129.7243769
 126.3998330  54.4669259 129.8678418 125.4935773  53.3863470 130.4182332
 129.5234880  59.6658430 126.1062501 128.8943742  59.8304144 125.4038569
 129.1360542  60.0800039 126.8773465 133.4024111  60.6012867 123.4606865
 132.7175150  60.9811769 122.9103898 133.4867961  61.2108194 124.1938812
 130.6575043  58.2472826 130.0602208 130.8691938  58.8904586 129.3836589
 130.6104791  57.4135143 129.5924138 128.2601272  50.8590647 126.9638780
 127.3985751  51.1571901 127.2555518 128.2863707  51.0761046 126.0319813
 125.0762841  59.4032838 123.3712586 125.5401187  59.6820541 122.5817209
 124.8119640  58.5016282 123.1885677 121.9686923  58.9504319 126.3092349
 122.5388280  59.3791588 125.6709834 122.5595034  58.6686904 127.0076535
 124.0131728  55.5255990 120.1802151 124.7155771  55.9777034 120.6476078
 123.6812356  54.8839809 120.8082044 122.4612089  54.1167747 134.5553361
 121.8310750  54.7984028 134.7888757 122.3548177  54.0050828 133.6106499
 117.7557061  53.7839543 125.4819285 116.9656115  54.0397071 125.0059395
 118.2468309  54.5987881 125.5871325 131.7720871  61.1244782 128.2324566
 132.5938315  60.7224969 127.9507247 131.7683274  61.0213016 129.1840681
 119.7071807  54.1484122 122.4402761 118.9102970  54.2602816 122.9586257
 119.4797399  54.4870774 121.5743652 125.5377474  60.6728825 130.3885276
 125.6021907  61.1349232 131.2243448 124.8288398  60.0426190 130.5167586
 116.0394764  54.0370033 127.9134276 116.2902803  54.9217043 128.1791851
 116.5754313  53.8574635 127.1409367 125.2525492  62.3396933 120.2564256
 125.1171167  63.1848468 120.6849104 125.7935305  62.5416210 119.4930190
 118.7054890  59.8572371 120.8292181 119.2179410  60.6515621 120.9797746
 119.3577602  59.1598661 120.7625783 120.5149774  62.9738127 122.9114935
 120.6916403  63.8956092 122.7235919 121.3106608  62.6596546 123.3409314
 119.8002131  55.0202759 132.7877098 119.6855646  54.1188016 133.0884197
 118.9446649  55.2666456 132.4361914 126.8793969  62.9620499 134.3864598
 126.4357823  62.1756878 134.0685503 127.5411182  63.1499650 133.7208489
 121.6381090  64.4916301 128.9125277 122.1888515  64.3633364 128.1402271
 120.7992566  64.7911190 128.5620170 128.9775207  63.2423299 132.4146000
 128.9593682  64.0632180 131.9226269 129.8995127  63.1177374 132.6396141
 125.4348261  60.7567429 133.2569508 125.9676598  59.9955717 133.0268816
 124.9062342  60.4641080 133.9993663 116.6703806  58.1861025 121.6051752
 117.5079028  58.5958033 121.3885460 116.8482074  57.2460467 121.5751946
 128.5668238  55.8536106 117.2935585 128.0514862  56.6240710 117.5323972
 128.2945547  55.1801242 117.9168646 126.1515349  50.6985806 122.3520823
 125.2956946  50.3092657 122.1726462 126.5642301  50.7777767 121.4920609
 127.6814496  48.2332150 126.7512383 127.1779292  48.1962285 125.9380188
 127.9745103  49.1424892 126.8109040 123.9257382  48.3170879 125.7578565
 124.7910379  48.1213688 125.3984454 123.9934891  48.0881231 126.6847922
 133.5402513  58.6068460 119.2288758 132.7631955  58.2679620 118.7843921
 134.2193994  58.6121083 118.5543724 128.3554542  53.7263198 119.1195366
 128.0504677  54.0409347 119.9705509 129.3084984  53.8044618 119.1622699
 126.8000973  59.8853421 120.7688320 126.2722335  59.1506181 120.4561558
 126.2988476  60.6628097 120.5228288 131.7793819  58.0802442 125.8855366
 131.1217494  58.7701703 125.9735495 132.5834219  58.4698873 126.2289353
 121.5319701  50.5473087 123.1294932 122.1063453  50.3248269 122.3968125
 122.1190683  50.6161782 123.8823533 130.5899278  56.4346814 123.9359308
 131.1031160  57.0676806 124.4381018 131.2400502  55.8348010 123.5702668
 121.8589288  52.5777548 117.1490817 121.0226600  52.9152235 117.4700092
 121.7194058  52.4426528 116.2117954 123.8342369  47.4214336 121.8570001
 123.1806781  47.1063353 121.2326616 123.7922843  46.7990077 122.5829824
 124.9453574  57.7033631 113.7723293 124.0380635  57.4722885 113.9714442
 125.4424606  56.9071251 113.9597275 127.8521652  66.4131139 116.6919979
 127.1783351  66.7162835 117.3004937 128.2387474  67.2160219 116.3425436
 127.0680109  53.9096270 126.1817649 126.1502670  54.1311217 126.0239337
 127.4840253  53.9842580 125.3229356 127.8515157  55.3087685 121.3120329
 128.5986976  55.8209083 121.0027451 128.1206746  54.9871738 122.1724723
 126.1241807  57.8046226 118.2947283 125.2153026  57.5205259 118.3919753
 126.1536891  58.2245305 117.4350590 131.3561074  61.4152816 122.0638451
 130.9023402  60.5743726 122.1203641 130.7255041  62.0514214 122.4013231
 130.2993994  52.3444802 123.2939118 129.5616751  51.8322188 123.6249361
 130.5520768  51.9045183 122.4822395 129.7994014  63.2529312 122.9988269
 130.0916988  63.8134369 122.2800635 130.3092634  63.5457873 123.7541428
 130.4005621  45.1221054 123.8880888 130.7064498  44.2618417 123.6006803
 131.1258226  45.7138674 123.6879881 116.6929977  55.5251740 122.2762485
 116.4954377  54.9321101 121.5513552 116.1376641  55.2203951 122.9938424
 124.6726701  55.4174847 124.3957079 124.7275311  54.4648683 124.3199555
 123.8617903  55.5734286 124.8798377 125.8217895  59.3454970 115.6335362
 125.3837325  58.6290829 115.1740999 126.5628336  59.5731085 115.0720453
 122.6119061  54.0351907 122.1547457 121.7986927  54.3346077 122.5612650
 123.1078055  53.6407595 122.8721940 124.7627639  64.0309663 124.0881722
 124.7203818  64.2570510 123.1590254 125.6790338  63.7973038 124.2367523
 128.2093273  54.4993731 130.9862351 128.5642660  54.7265204 131.8456817
 128.8565404  54.8312108 130.3639607 133.9391010  57.6212167 121.6911680
 133.8008908  57.8113763 120.7632870 133.5827228  58.3831550 122.1479732
 122.1033136  51.6070262 127.7708692 122.7432515  51.4659021 127.0731656
 121.2710666  51.3204775 127.3947294 133.9660389  59.6888694 126.7022952
 134.3996896  59.5963983 127.5506006 134.6791970  59.6646194 126.0642968
 122.8793440  60.9072692 123.8843685 123.6734038  60.4123013 123.6826260
 122.1685132  60.3790556 123.5211390 127.6988284  63.2890788 128.2356053
 127.7525306  63.8581724 129.0033768 126.8303066  63.4592673 127.8710090
 119.1876203  55.0515774 119.9603438 118.2573791  54.9900230 120.1773400
 119.2833675  54.5291727 119.1640079 119.1061752  51.5770587 122.5481679
 119.3668569  52.4915920 122.4390840 119.9278925  51.1095030 122.6978292
 120.5786678  52.9908344 129.7180504 121.2509731  52.7825706 129.0693153
 119.7516464  52.7930430 129.2785736 134.8275939  59.7312395 129.2355837
 135.0211829  60.6358205 129.4815112 134.7276557  59.2719814 130.0694422
 126.6576384  57.4551050 129.7942984 127.5868444  57.6062210 129.6211952
 126.2367414  57.5435071 128.9391631 125.4564716  61.4801714 127.5641522
 125.3175801  61.1120499 128.4367460 124.6679312  61.9949354 127.3925480
 126.0512868  66.5810811 118.9067059 126.2264623  66.1098854 119.7212681
 125.3645656  67.2076577 119.1348319 127.0069931  60.8583317 124.9530360
 126.6719763  60.8184087 125.8488010 126.5073877  60.1928033 124.4800770
 120.9814175  56.2650947 130.4782941 120.8433973  55.5331186 131.0794480
 121.8919098  56.1759847 130.1967129 129.9429122  58.2039352 115.2267419
 129.3258293  57.4786180 115.1300472 129.4745611  58.9648712 114.8834494
 123.6096475  55.9770907 129.9666621 124.3196094  55.3364099 129.9253239
 123.5665784  56.2283801 130.8892801 131.5983254  62.9138260 132.8873200
 131.5395800  62.2297480 132.2203783 132.0002773  63.6557250 132.4353826
 122.3225409  52.9636124 131.7862260 121.7862766  52.5126863 132.4383856
 121.7342118  53.0982033 131.0432724 120.6173953  69.7300174 125.6806919
 120.8570551  70.3618698 126.3585937 119.7743149  69.3788214 125.9672278
 121.7327668  52.4224776 114.3488724 120.8557135  52.3013577 113.9850970
 122.2085421  51.6310854 114.0967612 131.6000661  60.8777844 131.1187179
 130.7127440  60.5403766 131.2413578 132.1699212  60.1460875 131.3555945
 113.2529809  57.2101936 124.4430231 113.9400848  56.8963666 123.8551246
 113.0977937  58.1143300 124.1697482 118.0564531  52.0992132 128.8715255
 117.9722719  51.4917802 128.1365664 117.2347237  52.5901150 128.8724751
 125.1301815  65.5379296 128.0848423 125.0571986  66.3434268 128.5967727
 124.6879208  65.7371262 127.2596444 124.9191594  64.7751066 121.5951244
 124.1359116  65.3172746 121.6889469 125.6184340  65.2925046 121.9945485
 128.2288245  50.5845696 124.2385450 128.7256944  49.8315658 123.9186520
 127.4575226  50.6210012 123.6728659 136.0818002  56.2886061 125.8803741
 136.0707878  57.1710777 125.5097674 135.2135381  55.9357612 125.6858278
 127.5900498  65.4366130 130.2406581 128.3028471  66.0713595 130.1682483
 127.0990527  65.5329996 129.4246583 129.3118025  59.3417383 121.8123873
 128.3774304  59.4618845 121.6428577 129.4894694  58.4389850 121.5483883
 124.8123213  52.7263079 123.9657134 124.4421001  52.1734119 124.6538040
 125.3082306  52.1221212 123.4132134 132.6990577  55.1834702 122.3473907
 133.1651029  56.0162694 122.2734210 133.1498077  54.7179684 123.0519166
 122.6412412  63.1860574 131.0612152 123.3421871  63.8197057 131.2141546
 122.1707527  63.5275305 130.3007791 130.7666808  61.5278523 119.3460059
 131.0426652  61.4135118 120.2553933 129.8971306  61.1296008 119.3072232
 130.4413698  55.7405181 128.8864702 129.7885148  55.9881089 128.2317155
 130.8194078  54.9269319 128.5527180 127.4020872  65.7764874 122.9892873
 127.5843266  64.9586530 123.4520625 128.2253858  65.9932567 122.5517763
 127.7363037  64.7033059 120.2507921 128.2650804  64.1925514 119.6378083
 127.9991257  64.3875590 121.1153454 118.2380130  62.7196929 127.9943255
 118.8233567  61.9740617 128.1271159 118.0404968  63.0300885 128.8779919
 121.0918785  65.7548176 123.0105697 120.4229160  66.2394304 122.5269737
 120.9531655  66.0017397 123.9249076 112.8297785  55.2902529 126.7147698
 112.8681884  54.7566120 127.5084816 112.3238077  54.7637734 126.0958675
 125.2324054  67.7891920 129.6088356 125.7842362  67.9523541 130.3737441
 125.5730247  68.3796357 128.9368380 120.2088547  50.1367069 130.2110240
 120.2729873  50.9981900 129.7987638 120.1455667  49.5241071 129.4782599
 119.6840819  52.2090202 133.8583275 120.3112858  51.8267279 134.4720799
 118.8268738  51.9904404 134.2238967 130.0834928  62.6153177 135.4637010
 130.6274832  63.2283135 134.9691965 129.5021773  63.1732756 135.9804023
 116.4606362  54.0166631 119.7901629 116.7559803  53.1077309 119.7368683
 115.5594398  53.9954370 119.4682632 128.3692441  65.7373895 126.5952038
 128.2443580  64.9363635 126.0862983 129.0271532  66.2320088 126.1066008
 119.9900609  52.0922628 125.7729178 119.2687195  52.7058595 125.6336651
 120.7793865  52.6280392 125.6945824 130.4327349  63.5382915 128.2231588
 129.4857685  63.4188266 128.1509915 130.7810122  62.6505413 128.3057849
 122.7926923  49.4277054 132.0469830 123.3161325  49.6739351 132.8096139
 122.5739256  50.2597089 131.6272967 118.1894204  51.6980729 119.9140955
 117.8606910  50.8178108 119.7316060 118.5433574  51.6428397 120.8017344
 127.4373783  63.3335631 124.4235940 127.2898745  62.4052339 124.6043510
 128.2627276  63.3555722 123.9393015 121.3036027  51.9853699 120.2816432
 121.6432099  52.5139620 119.5595041 121.7508147  52.3234105 121.0574999
 131.0407905  64.1564190 125.5100813 131.9654452  63.9507051 125.3725264
 130.8723208  63.9080591 126.4190154 123.9979468  50.3690749 129.7319500
 123.6576288  49.5698562 130.1340180 123.2918474  50.6692460 129.1596333
 124.6495940  47.4540062 128.1846823 125.4722009  46.9800540 128.0625714
 124.8934003  48.2330545 128.6845510 123.2904174  50.4828320 118.4809725
 124.0112537  50.8609573 117.9773442 122.6669478  51.2017197 118.5844703
 127.4335297  51.1873469 119.4168057 127.6498911  52.0698107 119.1156885
 126.9529364  50.7959682 118.6873699 122.1734518  54.1459182 125.9938802
 122.0279099  54.4599485 126.8863083 121.6959722  54.7644083 125.4409701
 124.0330901  51.1361730 126.0419691 124.0192470  50.2402824 125.7051989
 124.7503329  51.1432394 126.6757977 125.8857032  51.5699070 128.0872819
 125.6274810  52.4916141 128.0857149 125.3542072  51.1729505 128.7773283
 130.8303221  64.6749858 120.8662904 131.0040098  64.1096280 120.1136757
 131.3232112  65.4750752 120.6842394 116.6480181  56.6864527 128.9326463
 116.1033649  57.4624335 129.0646737 117.5259530  57.0335331 128.7745584
 123.4367797  50.0176111 121.3107262 123.5583708  49.0892757 121.5098149
 123.1469840  50.0314797 120.3985577 126.3058988  47.7031021 124.4473981
 126.3280684  47.7670354 123.4925961 126.7227047  46.8635530 124.6414488
 136.6842612  57.4386281 122.4853204 137.1273758  56.6893606 122.0872327
 135.8069122  57.4296417 122.1026936 131.8178393  63.9916622 117.9659803
 132.5129298  64.6123315 118.1847117 132.1601543  63.1411973 118.2412180
 117.4346202  55.8134423 131.8256620 116.6927938  55.9617058 132.4121250
 117.1138947  56.0742689 130.9623369 133.7169816  61.4416328 119.4947133
 134.2421140  61.7803600 118.7696453 133.6292169  60.5063343 119.3110268
 125.3789865  65.3550401 131.6237010 125.6876991  65.1099548 132.4959710
 126.1765347  65.5597040 131.1355880 125.4010477  67.5088311 123.8542386
 124.9615467  67.0164690 124.5475243 126.1518594  66.9661278 123.6134462
 117.8802816  63.6999852 123.8567015 118.7060836  63.4003624 123.4765658
 117.5296868  62.9307474 124.3056803 122.8484349  63.0526320 125.9264688
 122.2264359  62.3897025 125.6266916 123.5189216  63.0787452 125.2438336
 116.0811421  61.6186178 124.8155948 115.2443329  61.1908352 124.6339949
 116.0535067  61.8118621 125.7526739 122.4097856  61.6030243 119.4023149
 122.5585977  62.2865708 118.7489821 123.2164300  61.5835333 119.9172604
 125.1508165  52.2839480 132.2743553 124.2811475  52.5773046 132.0026141
 125.3867646  52.8679925 132.9950816 136.2275477  58.9091519 124.8775652
 137.0622368  59.3481323 125.0413212 136.3634605  58.4330172 124.0583897
 120.1650489  57.6295421 120.4084218 119.9196531  56.7257751 120.6064428
 120.3346404  57.6312571 119.4663696 119.4346137  53.3623778 117.9070379
 118.7415382  53.4368133 117.2510415 119.1897889  52.5984122 118.4291896
 128.1059793  44.9219380 125.3109870 128.3861547  44.2542569 125.9370296
 128.8910400  45.1148475 124.7984534 125.9093262  64.0978374 116.8734896
 125.3367229  64.7168561 116.4205368 126.4826055  64.6477735 117.4074818
 129.1290521  64.3815524 118.0043478 130.0621195  64.3161086 118.2076354
 129.0413734  65.2171791 117.5458011 131.7578538  63.6981394 114.9647426
 131.6792170  63.3641258 115.8583184 132.5788205  64.1903162 114.9638898
 134.4556729  56.5643133 128.1723745 134.4233049  55.6259134 128.3583428
 135.0657353  56.6427170 127.4389569 126.2940060  55.4339186 114.2150949
 127.2399165  55.3045395 114.2839367 125.9154305  54.6953848 114.6920377
 132.2661945  47.0995192 124.1777840 132.0686766  46.7910281 125.0621172
 132.8761650  47.8256831 124.3075770 126.1778753  59.4856933 135.6751606
 127.0981762  59.6635532 135.8691652 126.1428336  58.5412978 135.5231305
 124.4782977  53.3589163 114.1505834 123.5714433  53.0622276 114.2268547
 124.7558958  53.0618981 113.2840120 115.3960918  54.6795526 124.6004880
 115.0763702  53.8260834 124.3079254 114.8494346  54.8944104 125.3562848
 119.1740825  57.3957967 128.3174387 119.3926835  58.3275075 128.3362421
 119.5866599  57.0365942 129.1029191 126.0945043  47.9026053 120.3050075
 125.2845771  47.5573138 120.6805321 126.7829460  47.5933596 120.8937687
 128.0235591  46.9804099 121.9274372 128.5766630  47.3999553 122.5864395
 128.2605678  46.0539847 121.9697328 123.2481762  50.2176098 114.2917813
 124.1100926  50.5430996 114.5513630 123.4332106  49.4307594 113.7790879
 115.2649178  58.2998438 126.5698002 114.5712649  57.8852391 126.0567956
 116.0122169  58.3418974 125.9731421 131.4014398  49.0904625 121.4353036
 130.8213067  49.7489429 121.0531088 131.1350331  48.2681969 121.0240454
 129.8517965  48.4909682 123.6374356 130.3517743  48.6026217 122.8288675
 130.4953573  48.1870735 124.2775165 123.9099961  56.3988312 136.5242197
 123.4267042  57.1988672 136.7306086 123.9960900  56.4096257 135.5709641
 117.1785920  58.2316692 124.4464017 117.1556608  58.3304379 123.4945900
 117.4886557  59.0781842 124.7681183 119.8373298  60.2892847 128.5610631
 120.7916552  60.2576789 128.4940563 119.6385822  59.8283470 129.3760857
 120.4272680  58.8593963 131.1281429 121.2465569  59.3538041 131.1516266
 120.7009488  57.9425931 131.0998996 130.1839276  51.2504715 120.4909384
 129.2965131  51.5354366 120.2729579 130.5993266  51.0898478 119.6436661
 133.5353813  51.2751236 124.2063724 134.3114203  51.7647688 124.4788340
 132.8101947  51.7009290 124.6635593 118.1923527  65.8312466 125.5780829
 118.0577995  65.0712867 125.0118827 117.7755589  66.5553366 125.1109618
 129.3282490  61.0149390 114.5857404 130.0318340  61.2199392 115.2015060
 128.6045139  61.5826151 114.8506488 130.1580300  56.7659251 120.7059674
 130.1015502  57.2227802 119.8667307 130.7108643  56.0049935 120.5282517
 133.9685106  52.5548983 121.5309794 133.7122040  52.1545618 122.3618002
 133.3437974  53.2692777 121.4059933 138.2797444  55.2945056 124.0381085
 137.7197002  55.3638245 124.8112647 137.6740947  55.1186041 123.3180582
 121.3492653  66.7281783 125.7899272 121.2325037  67.6727216 125.6877962
 120.5285099  66.4255345 126.1785071 131.2369187  61.4531919 116.6355864
 132.0714791  61.0213117 116.4533339 131.0753530  61.2813932 117.5632759
 130.8915080  57.9564032 118.0012204 130.8363883  57.7908304 117.0600648
 130.2661135  58.6640065 118.1574393 115.6807594  53.1932096 131.8273626
 116.3266458  52.6831050 132.3160851 115.4724746  53.9300778 132.4017051
 124.2011205  47.4572141 117.5797522 124.1889875  48.4013981 117.7365793
 125.0934627  47.2742286 117.2856983 122.3747167  67.3810045 129.0055200
 123.2774414  67.4133655 129.3221695 122.1484537  66.4510496 129.0201536
 124.1300769  66.1341031 125.6665279 123.1796400  66.1342893 125.5529651
 124.4333255  65.3873766 125.1501313 128.0163324  44.0514918 121.8343459
 127.2495720  43.4973404 121.9800141 128.4274029  44.1236786 122.6957610
 120.0205085  50.3399714 135.9248640 120.8836547  49.9836518 136.1351965
 119.4470496  50.0013608 136.6124044 139.8653462  71.9701570 126.7311041
 140.5031872  71.8508317 126.0274381 139.7474305  72.9182414 126.7898993
 136.6743169  71.9228998 126.6672566 136.3361680  71.8070063 125.7793101
 137.5432937  71.5220163 126.6473572 132.5329984  73.7764474 122.6569457
 131.9694850  73.6854411 121.8885744 132.4182379  72.9564379 123.1371949
 130.0794416  75.2715666 125.4953677 130.8715708  74.9306491 125.0799976
 130.3191066  75.3810641 126.4155831 138.1129543  77.4435442 117.9683922
 137.4617523  78.0289523 117.5817935 138.9073906  77.9741637 118.0278959
 132.0385170  74.5324579 118.3671056 132.8116046  73.9853566 118.2283932
 132.3910569  75.3968829 118.5785517 134.8026420  73.2377810 128.1639315
 135.3989992  73.0133832 127.4496278 134.8601391  72.4962556 128.7664763
 134.3751448  70.6917245 115.9989506 134.6276969  70.1698767 115.2372969
 133.4376007  70.5283391 116.1016190 139.4194731  69.6953024 123.8064249
 140.2057820  69.2772447 123.4554666 139.6833435  70.5999116 123.9745898
 139.5904808  75.1325874 118.5052906 138.9550641  75.2060501 119.2173811
 139.2602215  75.7219473 117.8271985 134.0947737  72.5945351 118.2013881
 133.9783995  71.9190255 118.8694965 134.2049997  72.1077725 117.3846034
 136.4379278  72.0555498 121.9060570 136.0737485  71.5286119 122.6173492
 137.2946394  71.6653967 121.7327056 136.0784765  67.0845398 116.9021919
 136.2459167  67.9525635 117.2692390 135.8881934  67.2472680 115.9783208
 138.8360098  75.5462377 128.5687749 138.5360821  76.4487416 128.4603556
 138.4911157  75.2794560 129.4208902 132.2872579  71.9976174 124.6024453
 131.3623076  71.8652388 124.8102145 132.5356993  72.7770393 125.0994396
 142.2357242  68.0644917 126.2485186 141.3274119  67.9960326 125.9543947
 142.1844837  68.5416862 127.0767012 136.0573986  69.5403056 117.8868585
 135.9373611  69.9860106 118.7254066 135.3626574  69.8888373 117.3282124
 129.6481390  71.6409447 125.4368242 129.7773772  71.8943926 126.3507654
 128.9678842  72.2337155 125.1172898 133.8180878  82.3106697 121.5358717
 133.7404907  83.2614522 121.6147197 133.2142521  81.9652570 122.1933643
 141.7559052  70.0124529 118.7148919 142.6676908  70.2451916 118.5396617
 141.2468699  70.5961573 118.1523998 134.5644480  72.2920016 133.7538051
 135.3059164  72.8305060 133.4772874 133.8581465  72.9186305 133.9109602
 136.3930889  69.3721763 129.7243769 137.2392085  69.7961177 129.8678418
 136.3329527  68.7155388 130.4182332 140.3628634  74.9950347 126.1062501
 139.7337497  75.1596061 125.4038569 139.9754296  75.4091957 126.8773465
 141.4968798  73.5764744 130.0602208 141.7085693  74.2196504 129.3836589
 141.4498546  72.7427061 129.5924138 139.0995027  66.1882565 126.9638780
 138.2379506  66.4863818 127.2555518 139.1257461  66.4052964 126.0319813
 135.9156596  74.7324755 123.3712586 136.3794941  75.0112458 122.5817209
 135.6513394  73.8308200 123.1885677 132.8080677  74.2796237 126.3092349
 133.3782034  74.7083505 125.6709834 133.3988789  73.9978822 127.0076535
 134.8525482  70.8547908 120.1802151 135.5549525  71.3068951 120.6476078
 134.5206110  70.2131727 120.8082044 133.3005844  69.4459664 134.5553361
 132.6704504  70.1275945 134.7888757 133.1941931  69.3342746 133.6106499
 128.5950816  69.1131460 125.4819285 127.8049870  69.3688989 125.0059395
 129.0862063  69.9279798 125.5871325 130.5465561  69.4776040 122.4402761
 129.7496725  69.5894734 122.9586257 130.3191154  69.8162692 121.5743652
 126.8788519  69.3661951 127.9134276 127.1296557  70.2508961 128.1791851
 127.4148067  69.1866552 127.1409367 136.0919247  77.6688850 120.2564256
 135.9564921  78.5140386 120.6849104 136.6329059  77.8708128 119.4930190
 129.5448644  75.1864288 120.8292181 130.0573165  75.9807539 120.9797746
 130.1971357  74.4890579 120.7625783 131.3543529  78.3030045 122.9114935
 131.5310157  79.2248009 122.7235919 132.1500362  77.9888464 123.3409314
 130.6395885  70.3494677 132.7877098 130.5249400  69.4479934 133.0884197
 129.7840403  70.5958373 132.4361914 132.4774844  79.8208218 128.9125277
 133.0282269  79.6925282 128.1402271 131.6386320  80.1203107 128.5620170
 127.5097561  73.5152943 121.6051752 128.3472783  73.9249951 121.3885460
 127.6875828  72.5752385 121.5751946 139.4061993  71.1828023 117.2935585
 138.8908616  71.9532628 117.5323972 139.1339301  70.5093159 117.9168646
 136.9909104  66.0277724 122.3520823 136.1350700  65.6384574 122.1726462
 137.4036056  66.1069685 121.4920609 138.5208251  63.5624067 126.7512383
 138.0173046  63.5254203 125.9380188 138.8138857  64.4716810 126.8109040
 134.7651136  63.6462797 125.7578565 135.6304133  63.4505606 125.3984454
 134.8328645  63.4173149 126.6847922 139.1948296  69.0555115 119.1195366
 138.8898432  69.3701265 119.9705509 140.1478738  69.1336535 119.1622699
 137.6394728  75.2145339 120.7688320 137.1116089  74.4798098 120.4561558
 137.1382231  75.9920015 120.5228288 142.6187574  73.4094359 125.8855366
 141.9611248  74.0993621 125.9735495 143.4227973  73.7990791 126.2289353
 132.3713456  65.8765005 123.1294932 132.9457207  65.6540187 122.3968125
 132.9584438  65.9453700 123.8823533 141.4293033  71.7638732 123.9359308
 141.9424914  72.3968724 124.4381018 142.0794257  71.1639927 123.5702668
 132.6983043  67.9069466 117.1490817 131.8620355  68.2444153 117.4700092
 132.5587812  67.7718446 116.2117954 134.6736123  62.7506254 121.8570001
 134.0200536  62.4355271 121.2326616 134.6316597  62.1281994 122.5829824
 135.7847328  73.0325549 113.7723293 134.8774390  72.8014802 113.9714442
 136.2818360  72.2363168 113.9597275 138.6915407  81.7423056 116.6919979
 138.0177106  82.0454753 117.3004937 139.0781229  82.5452137 116.3425436
 137.9073864  69.2388187 126.1817649 136.9896425  69.4603134 126.0239337
 138.3234007  69.3134498 125.3229356 138.6908911  70.6379603 121.3120329
 139.4380730  71.1501000 121.0027451 138.9600501  70.3163656 122.1724723
 136.9635562  73.1338144 118.2947283 136.0546781  72.8497177 118.3919753
 136.9930645  73.5537222 117.4350590 142.1954829  76.7444733 122.0638451
 141.7417156  75.9035643 122.1203641 141.5648796  77.3806132 122.4013231
 141.1387749  67.6736719 123.2939118 140.4010505  67.1614106 123.6249361
 141.3914522  67.2337101 122.4822395 140.6387768  78.5821230 122.9988269
 140.9310743  79.1426287 122.2800635 141.1486389  78.8749791 123.7541428
 141.2399376  60.4512971 123.8880888 141.5458253  59.5910335 123.6006803
 141.9651981  61.0430592 123.6879881 127.5323732  70.8543658 122.2762485
 127.3348132  70.2613019 121.5513552 126.9770396  70.5495868 122.9938424
 135.5120456  70.7466764 124.3957079 135.5669065  69.7940601 124.3199555
 134.7011658  70.9026204 124.8798377 136.6611649  74.6746888 115.6335362
 136.2231079  73.9582746 115.1740999 137.4022090  74.9023002 115.0720453
 133.4512816  69.3643824 122.1547457 132.6380681  69.6637995 122.5612650
 133.9471810  68.9699513 122.8721940 135.6021393  79.3601581 124.0881722
 135.5597572  79.5862427 123.1590254 136.5184092  79.1264956 124.2367523
 139.0487027  69.8285649 130.9862351 139.4036415  70.0557122 131.8456817
 139.6959158  70.1604025 130.3639607 132.9426890  66.9362180 127.7708692
 133.5826270  66.7950939 127.0731656 132.1104421  66.6496693 127.3947294
 133.7187194  76.2364610 123.8843685 134.5127793  75.7414930 123.6826260
 133.0078887  75.7082473 123.5211390 130.0269958  70.3807692 119.9603438
 129.0967546  70.3192147 120.1773400 130.1227430  69.8583645 119.1640079
 129.9455507  66.9062505 122.5481679 130.2062324  67.8207838 122.4390840
 130.7672679  66.4386947 122.6978292 131.4180432  68.3200262 129.7180504
 132.0903485  68.1117624 129.0693153 130.5910219  68.1222348 129.2785736
 137.4970138  72.7842968 129.7942984 138.4262198  72.9354127 129.6211952
 137.0761168  72.8726989 128.9391631 136.2958470  76.8093632 127.5641522
 136.1569556  76.4412417 128.4367460 135.5073066  77.3241272 127.3925480
 136.8906622  81.9102729 118.9067059 137.0658378  81.4390772 119.7212681
 136.2039410  82.5368495 119.1348319 137.8463685  76.1875235 124.9530360
 137.5113518  76.1476005 125.8488010 137.3467631  75.5219951 124.4800770
 131.8207929  71.5942865 130.4782941 131.6827727  70.8623104 131.0794480
 132.7312853  71.5051765 130.1967129 140.7822877  73.5331269 115.2267419
 140.1652048  72.8078097 115.1300472 140.3139365  74.2940629 114.8834494
 134.4490230  71.3062824 129.9666621 135.1589848  70.6656016 129.9253239
 134.4059538  71.5575719 130.8892801 133.1619164  68.2928042 131.7862260
 132.6256521  67.8418781 132.4383856 132.5735872  68.4273951 131.0432724
 131.4567707  85.0592091 125.6806919 131.6964306  85.6910616 126.3585937
 130.6136904  84.7080131 125.9672278 132.5721423  67.7516693 114.3488724
 131.6950889  67.6305494 113.9850970 133.0479176  66.9602772 114.0967612
 124.0923563  72.5393853 124.4430231 124.7794603  72.2255583 123.8551246
 123.9371692  73.4435218 124.1697482 128.8958285  67.4284050 128.8715255
 128.8116474  66.8209719 128.1365664 128.0740992  67.9193068 128.8724751
 135.7585349  80.1042984 121.5951244 134.9752871  80.6464664 121.6889469
 136.4578094  80.6216963 121.9945485 139.0681999  65.9137613 124.2385450
 139.5650699  65.1607576 123.9186520 138.2968981  65.9501930 123.6728659
 140.1511780  74.6709301 121.8123873 139.2168058  74.7910763 121.6428577
 140.3288448  73.7681767 121.5483883 135.6516968  68.0554996 123.9657134
 135.2814755  67.5026037 124.6538040 136.1476060  67.4513130 123.4132134
 141.6060562  76.8570441 119.3460059 141.8820406  76.7427036 120.2553933
 140.7365061  76.4587926 119.3072232 141.2807452  71.0697099 128.8864702
 140.6278903  71.3173006 128.2317155 141.6587832  70.2561237 128.5527180
 138.2414626  81.1056792 122.9892873 138.4237021  80.2878448 123.4520625
 139.0647612  81.3224484 122.5517763 138.5756792  80.0324977 120.2507921
 139.1044558  79.5217432 119.6378083 138.8385011  79.7167507 121.1153454
 129.0773884  78.0488846 127.9943255 129.6627321  77.3032534 128.1271159
 128.8798723  78.3592803 128.8779919 131.9312540  81.0840094 123.0105697
 131.2622915  81.5686221 122.5269737 131.7925409  81.3309314 123.9249076
 123.6691539  70.6194447 126.7147698 123.7075639  70.0858037 127.5084816
 123.1631832  70.0929652 126.0958675 131.0482301  65.4658987 130.2110240
 131.1123628  66.3273818 129.7987638 130.9849422  64.8532989 129.4782599
 130.5234574  67.5382120 133.8583275 131.1506613  67.1559197 134.4720799
 129.6662493  67.3196322 134.2238967 127.3000117  69.3458549 119.7901629
 127.5953558  68.4369227 119.7368683 126.3988152  69.3246288 119.4682632
 139.2086195  81.0665813 126.5952038 139.0837335  80.2655553 126.0862983
 139.8665287  81.5612006 126.1066008 130.8294364  67.4214545 125.7729178
 130.1080949  68.0350513 125.6336651 131.6187619  67.9572310 125.6945824
 133.6320677  64.7568972 132.0469830 134.1555079  65.0031268 132.8096139
 133.4133011  65.5889007 131.6272967 129.0287958  67.0272646 119.9140955
 128.7000664  66.1470025 119.7316060 129.3827329  66.9720315 120.8017344
 138.2767537  78.6627549 124.4235940 138.1292500  77.7344257 124.6043510
 139.1021031  78.6847640 123.9393015 132.1429781  67.3145616 120.2816432
 132.4825854  67.8431537 119.5595041 132.5901902  67.6526022 121.0574999
 141.8801659  79.4856108 125.5100813 142.8048206  79.2798969 125.3725264
 141.7116962  79.2372509 126.4190154 134.8373222  65.6982667 129.7319500
 134.4970043  64.8990480 130.1340180 134.1312229  65.9984378 129.1596333
 135.4889694  62.7831979 128.1846823 136.3115763  62.3092458 128.0625714
 135.7327758  63.5622463 128.6845510 134.1297929  65.8120238 118.4809725
 134.8506291  66.1901491 117.9773442 133.5063233  66.5309115 118.5844703
 138.2729051  66.5165387 119.4168057 138.4892666  67.3990025 119.1156885
 137.7923119  66.1251600 118.6873699 133.0128273  69.4751100 125.9938802
 132.8672854  69.7891403 126.8863083 132.5353476  70.0936000 125.4409701
 134.8724656  66.4653648 126.0419691 134.8586225  65.5694741 125.7051989
 135.5897084  66.4724312 126.6757977 136.7250786  66.8990988 128.0872819
 136.4668564  67.8208059 128.0857149 136.1935827  66.5021423 128.7773283
 141.6696975  80.0041775 120.8662904 141.8433853  79.4388198 120.1136757
 142.1625866  80.8042670 120.6842394 127.4873935  72.0156444 128.9326463
 126.9427403  72.7916252 129.0646737 128.3653285  72.3627249 128.7745584
 134.2761552  65.3468028 121.3107262 134.3977463  64.4184674 121.5098149
 133.9863594  65.3606714 120.3985577 137.1452742  63.0322939 124.4473981
 137.1674439  63.0962272 123.4925961 137.5620801  62.1927447 124.6414488
 142.6572148  79.3208540 117.9659803 143.3523052  79.9415232 118.1847117
 142.9995298  78.4703891 118.2412180 128.2739957  71.1426341 131.8256620
 127.5321693  71.2908976 132.4121250 127.9532701  71.4034606 130.9623369
 136.2404232  82.8380228 123.8542386 135.8009222  82.3456607 124.5475243
 136.9912349  82.2953196 123.6134462 128.7196571  79.0291769 123.8567015
 129.5454590  78.7295541 123.4765658 128.3690623  78.2599392 124.3056803
 133.6878104  78.3818238 125.9264688 133.0658113  77.7188943 125.6266916
 134.3582971  78.4079369 125.2438336 126.9205176  76.9478096 124.8155948
 126.0837084  76.5200270 124.6339949 126.8928821  77.1410539 125.7526739
 133.2491611  76.9322161 119.4023149 133.3979731  77.6157625 118.7489821
 134.0558054  76.9127251 119.9172604 135.9901920  67.6131398 132.2743553
 135.1205229  67.9064964 132.0026141 136.2261400  68.1971843 132.9950816
 131.0044244  72.9587339 120.4084218 130.7590286  72.0549669 120.6064428
 131.1740158  72.9604489 119.4663696 130.2739891  68.6915696 117.9070379
 129.5809136  68.7660051 117.2510415 130.0291643  67.9276040 118.4291896
 138.9453548  60.2511297 125.3109870 139.2255301  59.5834487 125.9370296
 139.7304155  60.4440393 124.7984534 136.7487016  79.4270291 116.8734896
 136.1760983  80.0460479 116.4205368 137.3219810  79.9769653 117.4074818
 139.9684276  79.7107442 118.0043478 140.9014949  79.6453003 118.2076354
 139.8807489  80.5463708 117.5458011 142.5972293  79.0273312 114.9647426
 142.5185924  78.6933175 115.8583184 143.4181959  79.5195080 114.9638898
 137.1333815  70.7631104 114.2150949 138.0792919  70.6337312 114.2839367
 136.7548060  70.0245766 114.6920377 135.3176732  68.6881081 114.1505834
 134.4108187  68.3914193 114.2268547 135.5952713  68.3910899 113.2840120
 126.2354672  70.0087444 124.6004880 125.9157457  69.1552752 124.3079254
 125.6888100  70.2236022 125.3562848 130.0134580  72.7249885 128.3174387
 130.2320590  73.6566993 128.3362421 130.4260354  72.3657859 129.1029191
 136.9338798  63.2317970 120.3050075 136.1239526  62.8865055 120.6805321
 137.6223214  62.9225514 120.8937687 138.8629346  62.3096017 121.9274372
 139.4160384  62.7291470 122.5864395 139.0999432  61.3831765 121.9697328
 134.0875516  65.5468016 114.2917813 134.9494680  65.8722914 114.5513630
 134.2725861  64.7599512 113.7790879 126.1042932  73.6290355 126.5698002
 125.4106404  73.2144308 126.0567956 126.8515923  73.6710892 125.9731421
 142.2408153  64.4196542 121.4353036 141.6606822  65.0781346 121.0531088
 141.9744086  63.5973887 121.0240454 140.6911719  63.8201600 123.6374356
 141.1911498  63.9318134 122.8288675 141.3347327  63.5162653 124.2775165
 128.0179675  73.5608609 124.4464017 127.9950363  73.6596296 123.4945900
 128.3280311  74.4073760 124.7681183 130.6767053  75.6184764 128.5610631
 131.6310306  75.5868707 128.4940563 130.4779576  75.1575388 129.3760857
 131.2666435  74.1885880 131.1281429 132.0859324  74.6829959 131.1516266
 131.5403242  73.2717848 131.0998996 141.0233031  66.5796633 120.4909384
 140.1358886  66.8646283 120.2729579 141.4387020  66.4190396 119.6436661
 129.0317281  81.1604384 125.5780829 128.8971749  80.4004785 125.0118827
 128.6149344  81.8845284 125.1109618 140.1676244  76.3441307 114.5857404
 140.8712095  76.5491310 115.2015060 139.4438893  76.9118069 114.8506488
 140.9974055  72.0951169 120.7059674 140.9409256  72.5519720 119.8667307
 141.5502397  71.3341853 120.5282517 132.1886407  82.0573701 125.7899272
 132.0718791  83.0019133 125.6877962 131.3678854  81.7547262 126.1785071
 142.0762942  76.7823836 116.6355864 142.9108546  76.3505035 116.4533339
 141.9147285  76.6105850 117.5632759 141.7308834  73.2855950 118.0012204
 141.6757638  73.1200221 117.0600648 141.1054889  73.9931983 118.1574393
 126.5201349  68.5224014 131.8273626 127.1660213  68.0122968 132.3160851
 126.3118500  69.2592696 132.4017051 135.0404959  62.7864059 117.5797522
 135.0283629  63.7305899 117.7365793 135.9328381  62.6034204 117.2856983
 134.9694523  81.4632949 125.6665279 134.0190154  81.4634811 125.5529651
 135.2727010  80.7165684 125.1501313 138.8557079  59.3806835 121.8343459
 138.0889475  58.8265322 121.9800141 139.2667784  59.4528704 122.6957610
 130.8598840  65.6691631 135.9248640 131.7230302  65.3128436 136.1351965
 130.2864251  65.3305526 136.6124044 141.3859316  84.8067957 122.4402761
 140.5890479  84.9186652 122.9586257 141.1584908  85.1454610 121.5743652
 138.3491315  88.8444860 121.6051752 139.1866537  89.2541869 121.3885460
 138.5269583  87.9044303 121.5751946 138.3717486  86.1835576 122.2762485
 138.1741886  85.5904936 121.5513552 137.8164150  85.8787786 122.9938424
 140.8663712  85.7099610 119.9603438 139.9361300  85.6484065 120.1773400
 140.9621184  85.1875562 119.1640079 140.7849261  82.2354422 122.5481679
 141.0456078  83.1499756 122.4390840 141.6066434  81.7678865 122.6978292
 134.9317317  87.8685771 124.4430231 135.6188357  87.5547501 123.8551246
 134.7765446  88.7727136 124.1697482 138.1393871  84.6750466 119.7901629
 138.4347312  83.7661145 119.7368683 137.2381907  84.6538206 119.4682632
 139.8681713  82.3564564 119.9140955 139.5394419  81.4761943 119.7316060
 140.2221083  82.3012233 120.8017344 142.9823536  82.6437534 120.2816432
 143.3219608  83.1723455 119.5595041 143.4295656  82.9817940 121.0574999
 141.8437998  88.2879256 120.4084218 141.5984040  87.3841586 120.6064428
 142.0133913  88.2896407 119.4663696 141.1133646  84.0207614 117.9070379
 140.4202891  84.0951969 117.2510415 140.8685398  83.2567957 118.4291896
 137.0748427  85.3379362 124.6004880 136.7551211  84.4844670 124.3079254
 136.5281855  85.5527940 125.3562848  97.5613154   6.2902036 112.2198984
  98.3534446   5.9492860 111.8045283  97.8009804   6.3997011 113.1401137
 105.5948281   8.4621812 104.6929228 104.9436261   9.0475892 104.3063242
 106.3892644   8.9928007 104.7524266 101.3588951   6.8787331 118.2983262
 101.0678817   7.7832962 118.1829928 101.9945935   6.9203859 119.0127331
 101.2999615  13.3293067 108.2604023 101.2223645  14.2800892 108.3392504
 100.6961259  12.9838939 108.9178950 103.5737984   8.6875220 106.9809563
 103.4383659   9.5326756 107.4094411 104.1147797   8.8894498 106.2175497
  97.0267382   6.2050658 107.5537488  97.5391902   6.9993908 107.7043053
  97.6790095   5.5076948 107.4871090  98.8362267   9.3216414 109.6360241
  99.0128895  10.2434379 109.4481225  99.6319100   9.0074833 110.0654621
 105.2006461   9.3098786 121.1109905 104.7570315   8.5235165 120.7930810
 105.8623674   9.4977937 120.4453796  99.9593582  10.8394588 115.6370584
 100.5101007  10.7111651 114.8647578  99.1205058  11.1389477 115.2865476
 107.2987699   9.5901586 119.1391306 107.2806174  10.4110467 118.6471576
 108.2207619   9.4655662 119.3641448 106.1734145  12.7609426 103.4165286
 105.4995844  13.0641123 104.0250244 106.5599967  13.5638506 103.0670743
 108.1206506   9.6007600 109.7233576 108.4129480  10.1612657 109.0045941
 108.6305127   9.8936161 110.4786735 103.0840131  10.3787951 110.8127029
 103.0416310  10.6048797 109.8835561 104.0002830  10.1451325 110.9612830
 106.0200776   9.6369075 114.9601359 106.0737799  10.2060012 115.7279075
 105.1515558   9.8070960 114.5955396 103.7777208   7.8280002 114.2886829
 103.6388294   7.4598786 115.1612767 102.9891804   8.3427641 114.1170786
 104.3725360  12.9289098 105.6312365 104.5477116  12.4577141 106.4457988
 103.6858148  13.5554864 105.8593626  98.9386445  16.0778461 112.4052225
  99.1783043  16.7096985 113.0831244  98.0955642  15.7266501 112.6917585
 103.4514307  11.8857583 114.8093729 103.3784479  12.6912555 115.3213034
 103.0091700  12.0849549 113.9841751 103.2404087  11.1229353 108.3196551
 102.4571609  11.6651034 108.4134775 103.9396832  11.6403333 108.7190792
 105.9112991  11.7844417 116.9651888 106.6240963  12.4191882 116.8927789
 105.4203019  11.8808283 116.1491890 100.9624904   9.5338861 117.7857459
 101.6634364  10.1675344 117.9386853 100.4920019   9.8753592 117.0253098
 105.7233364  12.1243162 109.7138179 105.9055759  11.3064817 110.1765932
 106.5466350  12.3410854 109.2763069 106.0575529  11.0511347 106.9753228
 106.5863296  10.5403801 106.3623390 106.3203749  10.7353877 107.8398761
  96.5592622   9.0675216 114.7188561  97.1446059   8.3218904 114.8516466
  96.3617461   9.3779173 115.6025225  99.4131277  12.1026463 109.7351004
  98.7441653  12.5872591 109.2515044  99.2744147  12.3495684 110.6494382
 103.5536546  14.1370207 116.3333662 104.1054854  14.3001828 117.0982747
 103.8942739  14.7274645 115.6613687 106.6904933  12.0852182 113.3197344
 106.5656073  11.2841922 112.8108290 107.3484024  12.5798376 112.8311314
 105.7586275   9.6813919 111.1481247 105.6111237   8.7530626 111.3288817
 106.5839768   9.7034009 110.6638322 109.3620397  10.5042477 112.2346119
 110.2866944  10.2985339 112.0970571 109.1935700  10.2558879 113.1435461
 109.1515713  11.0228145 107.5908211 109.3252591  10.4574567 106.8382063
 109.6444604  11.8229040 107.4087701 103.7002357  11.7028688 118.3482317
 104.0089484  11.4577835 119.2205016 104.4977839  11.9075327 117.8601187
 103.7222969  13.8566598 110.5787693 103.2827960  13.3642977 111.2720550
 104.4731086  13.3139566 110.3379768  96.2015308  10.0478139 110.5812321
  97.0273328   9.7481911 110.2010965  95.8509360   9.2785761 111.0302110
 101.1696842   9.4004607 112.6509995 100.5476851   8.7375312 112.3512223
 101.8401708   9.4265739 111.9683643  94.4023913   7.9664465 111.5401255
  93.5655822   7.5386640 111.3585256  94.3747559   8.1596909 112.4772046
 100.7310348   7.9508530 106.1268455 100.8798469   8.6343995 105.4735128
 101.5376792   7.9313621 106.6417911 104.2305754  10.4456661 103.5980203
 103.6579721  11.0646848 103.1450675 104.8038548  10.9956023 104.1320125
 107.4503014  10.7293811 104.7288785 108.3833687  10.6639373 104.9321661
 107.3626227  11.5650078 104.2703318 110.0791030  10.0459681 101.6892733
 110.0004662   9.7119545 102.5828491 110.9000697  10.5381449 101.6884205
  93.5861670   4.6476725 113.2943308  92.8925141   4.2330678 112.7813263
  94.3334661   4.6897261 112.6976727  95.4998413   4.5794979 111.1709323
  95.4769101   4.6782666 110.2191206  95.8099049   5.4260130 111.4926489
  98.1585790   6.6371134 115.2855938  99.1129044   6.6055076 115.2185869
  97.9598314   6.1761758 116.1006164  96.5136019  12.1790753 112.3026136
  96.3790487  11.4191154 111.7364134  96.0968081  12.9031653 111.8354925
  99.6705145  13.0760070 112.5144578  99.5537529  14.0205503 112.4123269
  98.8497591  12.7733632 112.9030377 100.6959659  13.7288332 115.7300507
 101.5986906  13.7611942 116.0467002 100.4697029  12.7988783 115.7446842
 102.4513261  12.4819319 112.3910585 101.5008892  12.4821180 112.2774958
 102.7545747  11.7352053 111.8746620 118.1865955  18.3179857 113.4556348
 118.8244365  18.1986604 112.7519688 118.0686798  19.2660701 113.5144300
 114.9955661  18.2707285 113.3917872 114.6574172  18.1548350 112.5038407
 115.8645429  17.8698450 113.3718879 110.8542477  20.1242762 109.3814763
 110.2907342  20.0332699 108.6131051 110.7394872  19.3042666 109.8617256
 115.4775444  19.4242137 119.3504078 115.4664085  19.0294935 118.4784582
 115.6396083  18.6908210 119.9437849 108.4006909  21.6193953 112.2198984
 109.1928201  21.2784778 111.8045283 108.6403559  21.7288928 113.1401137
 116.4342035  23.7913729 104.6929228 115.7830015  24.3767810 104.3063242
 117.2286398  24.3219924 104.7524266 110.3597663  20.8802866 105.0916363
 111.1328539  20.3331854 104.9529238 110.7123061  21.7447116 105.3030824
 112.1982705  22.2079249 118.2983262 111.9072571  23.1124880 118.1829928
 112.8339689  22.2495776 119.0127331 113.1238912  19.5856097 114.8884622
 113.7202484  19.3612120 114.1741585 113.1813883  18.8440843 115.4910069
 112.6963940  17.0395533 102.7234813 112.9489461  16.5177054 101.9618276
 111.7588499  16.8761678 102.8261496 117.7407223  16.0431311 110.5309556
 118.5270312  15.6250734 110.1799973 118.0045927  16.9477403 110.6991204
 117.9117301  21.4804161 105.2298213 117.2763134  21.5538788 105.9419117
 117.5814707  22.0697760 104.5517292 123.1415650  15.9806544 111.4342534
 123.8740822  15.4105761 111.6680364 122.3855006  15.5928145 111.8749040
 112.4160229  18.9423639 104.9259187 112.2996487  18.2668542 105.5940272
 112.5262489  18.4556012 104.1091341 114.7591770  18.4033786 108.6305877
 114.3949977  17.8764407 109.3418798 115.6158886  18.0132255 108.4572362
 114.3997257  13.4323685 103.6267225 114.5671659  14.3003922 103.9937696
 114.2094426  13.5950967 102.7028515 117.1572590  21.8940664 115.2933056
 116.8573313  22.7965703 115.1848863 116.8123650  21.6272847 116.1454209
 110.6085072  18.3454461 111.3269760 109.6835568  18.2130675 111.5347452
 110.8569485  19.1248680 111.8239702 120.5569734  14.4123204 112.9730493
 119.6486611  14.3438613 112.6789254 120.5057330  14.8895149 113.8012318
 114.3786478  15.8881343 104.6113892 114.2586103  16.3338394 105.4499372
 113.6839066  16.2366661 104.0527430 107.9693883  17.9887735 112.1613549
 108.0986264  18.2422214 113.0752961 107.2891334  18.5815443 111.8418204
 112.1393370  28.6584985 108.2604023 112.0617400  29.6092810 108.3392504
 111.5355014  28.3130857 108.9178950 114.6310600  15.8312850 120.9165390
 113.8543934  16.3906770 120.9068255 115.2701163  16.3169633 121.4380260
 120.0771544  16.3602816 105.4394226 120.9889400  16.5930203 105.2641924
 119.5681191  16.9439860 104.8769305 112.8856972  18.6398303 120.4783357
 113.6271656  19.1783347 120.2018181 112.1793958  19.2664592 120.6354909
 118.3612312  20.7827444 119.0755519 118.7695668  20.3409854 118.3310151
 117.6389573  20.2080071 119.3289712 114.7143382  15.7200051 116.4489076
 115.5604577  16.1439464 116.5923725 114.6542019  15.0633675 117.1427639
 118.6841126  21.3428634 112.8307808 118.0549989  21.5074349 112.1283875
 118.2966788  21.7570244 113.6018772 122.5630358  22.2783072 110.1852171
 121.8781396  22.6581974 109.6349205 122.6474208  22.8878399 110.9184119
 119.8181290  19.9243031 116.7847515 120.0298185  20.5674791 116.1081896
 119.7711038  19.0905348 116.3169445 117.4207519  12.5360852 113.6884087
 116.5591998  12.8342106 113.9800825 117.4469953  12.7531251 112.7565120
 114.2369088  21.0803043 110.0957893 114.7007434  21.3590746 109.3062515
 113.9725886  20.1786487 109.9130983 111.1293169  20.6274524 113.0337656
 111.6994526  21.0561792 112.3955140 111.7201281  20.3457109 113.7321842
 113.1737974  17.2026195 106.9047458 113.8762018  17.6547239 107.3721384
 112.8418603  16.5610014 107.5327351 111.6218336  15.7937952 121.2798667
 110.9916996  16.4754232 121.5134064 111.5154424  15.6821033 120.3351805
 106.9163308  15.4609748 112.2064591 106.1262362  15.7167276 111.7304702
 107.4074556  16.2758085 112.3116632 120.9327118  22.8014987 114.9569872
 121.7544562  22.3995174 114.6752554 120.9289521  22.6983221 115.9085988
 108.8678054  15.8254327 109.1648068 108.0709217  15.9373021 109.6831564
 108.6403646  16.1640979 108.2988959 114.6983721  22.3499030 117.1130583
 114.7628154  22.8119437 117.9488755 113.9894645  21.7196395 117.2412893
 105.2001011  15.7140238 114.6379582 105.4509050  16.5987248 114.9037158
 105.7360560  15.5344840 113.8654674 114.4131739  24.0167138 106.9809563
 114.2777414  24.8618673 107.4094411 114.9541551  24.2186415 106.2175497
 107.8661136  21.5342576 107.5537488 108.3785657  22.3285826 107.7043053
 108.5183849  20.8368866 107.4871090 109.6756021  24.6508332 109.6360241
 109.8522649  25.5726297 109.4481225 110.4712855  24.3366751 110.0654621
 108.9608378  16.6972964 119.5122405 108.8461893  15.7958221 119.8129503
 108.1052895  16.9436661 119.1607221 116.0400215  24.6390704 121.1109905
 115.5964069  23.8527083 120.7930810 116.7017429  24.8269855 120.4453796
 110.7987336  26.1686506 115.6370584 111.3494762  26.0403569 114.8647578
 109.9598812  26.4681395 115.2865476 118.1381453  24.9193504 119.1391306
 118.1199929  25.7402385 118.6471576 119.0601373  24.7947579 119.3641448
 114.5954508  22.4337634 119.9814815 115.1282844  21.6725922 119.7514123
 114.0668589  22.1411285 120.7238969 105.8310053  19.8631230 108.3297059
 106.6685275  20.2728238 108.1130766 106.0088321  18.9230672 108.2997253
 117.7274485  17.5306311 104.0180892 117.2121109  18.3010915 104.2569279
 117.4551794  16.8571447 104.6413953 115.3121596  12.3756011 109.0766130
 114.4563193  11.9862862 108.8971769 115.7248548  12.4547972 108.2165916
 122.7008759  20.2838665 105.9534065 121.9238202  19.9449825 105.5089227
 123.3800240  20.2891288 105.2789030 117.5160788  15.4033403 105.8440673
 117.2110924  15.7179552 106.6950816 118.4691230  15.4814823 105.8868006
 115.9607220  21.5623626 107.4933627 115.4328582  20.8276386 107.1806864
 115.4594723  22.3398302 107.2473595 120.9400066  19.7572646 112.6100673
 120.2823741  20.4471908 112.6980802 121.7440465  20.1469078 112.9534659
 110.6925948  12.2243292 109.8540238 111.2669700  12.0018474 109.1213431
 111.2796930  12.2931987 110.6068840 119.7505525  18.1117019 110.6604615
 120.2637407  18.7447011 111.1626325 120.4006749  17.5118215 110.2947975
 111.0195535  14.2547753 103.8736124 110.1832847  14.5922440 104.1945398
 110.8800305  14.1196733 102.9363261 114.1059820  19.3803836 100.4968600
 113.1986882  19.1493090 100.6959749 114.6030852  18.5841455 100.6842581
 117.0127899  28.0901343 103.4165286 116.3389598  28.3933040 104.0250244
 117.3993721  28.8930424 103.0670743 116.2286356  15.5866475 112.9062955
 115.3108917  15.8081422 112.7484643 116.6446500  15.6612785 112.0474663
 117.0121404  16.9857890 108.0365636 117.7593223  17.4979288 107.7272758
 117.2812993  16.6641943 108.8970029 115.2848054  19.4816431 105.0192590
 114.3759273  19.1975464 105.1165060 115.3143138  19.9015510 104.1595897
 120.5167321  23.0923021 108.7883757 120.0629648  22.2513930 108.8448948
 119.8861288  23.7284419 109.1258538 119.4600241  14.0215007 110.0184425
 118.7222998  13.5092393 110.3494667 119.7127014  13.5815388 109.2067702
 118.9600260  24.9299517 109.7233576 119.2523235  25.4904574 109.0045941
 119.4698881  25.2228078 110.4786735 105.8536224  17.2021945 109.0007792
 105.6560624  16.6091306 108.2758859 105.2982888  16.8974155 109.7183731
 113.8332948  17.0945052 111.1202385 113.8881558  16.1418888 111.0444862
 113.0224150  17.2504491 111.6043684 114.9824142  21.0225175 102.3580668
 114.5443572  20.3061034 101.8986306 115.7234582  21.2501290 101.7965760
 111.7725308  15.7122111 108.8792764 110.9593173  16.0116282 109.2857956
 112.2684302  15.3177800 109.5967246 113.9233886  25.7079868 110.8127029
 113.8810064  25.9340715 109.8835561 114.8396585  25.4743243 110.9612830
 117.3699519  16.1763936 117.7107658 117.7248907  16.4035409 118.5702124
 118.0171651  16.5082313 117.0884913 123.0997256  19.2982372 108.4156987
 122.9615155  19.4883968 107.4878176 122.7433475  20.0601755 108.8725038
 111.2639383  13.2840467 114.4953999 111.9038762  13.1429226 113.7976962
 110.4316913  12.9974980 114.1192601 123.1266636  21.3658899 113.4268259
 123.5603143  21.2734188 114.2751313 123.8398217  21.3416399 112.7888275
 112.0399686  22.5842897 110.6088992 112.8340285  22.0893218 110.4071566
 111.3291379  22.0560761 110.2456697 116.8594531  24.9660993 114.9601359
 116.9131553  25.5351929 115.7279075 115.9909312  25.1362878 114.5955396
 108.3482450  16.7285979 106.6848744 107.4180038  16.6670435 106.9018706
 108.4439922  16.2061932 105.8885385 108.2667999  13.2540792 109.2726986
 108.5274816  14.1686125 109.1636146 109.0885171  12.7865235 109.4223599
 109.7392924  14.6678549 116.4425810 110.4115978  14.4595911 115.7938459
 108.9122711  14.4700635 116.0031043 123.9882186  21.4082599 115.9601144
 124.1818076  22.3128410 116.2060419 123.8882804  20.9490019 116.7939729
 115.8182631  19.1321255 116.5188291 116.7474691  19.2832415 116.3457258
 115.3973661  19.2205276 115.6636938 114.6170962  23.1571919 114.2886829
 114.4782048  22.7890704 115.1612767 113.8285559  23.6719559 114.1170786
 115.2119114  28.2581016 105.6312365 115.3870870  27.7869059 106.4457988
 114.5251902  28.8846782 105.8593626 116.1676178  22.5353522 111.6775666
 115.8326010  22.4954292 112.5733316 115.6680123  21.8698238 111.2046077
 110.1420422  17.9421152 117.2028248 110.0040219  17.2101391 117.8039787
 111.0525345  17.8530052 116.9212435 119.1035369  19.8809556 101.9512726
 118.4864540  19.1556385 101.8545779 118.6351858  20.6418917 101.6079800
 112.7702722  17.6541111 116.6911927 113.4802341  17.0134304 116.6498546
 112.7272030  17.9054006 117.6138108 120.7589501  24.5908465 119.6118506
 120.7002047  23.9067685 118.9449089 121.1609019  25.3327455 119.1599132
 111.4831656  14.6406329 118.5107567 110.9469013  14.1897068 119.1629163
 110.8948365  14.7752238 117.7678031 109.7780200  31.4070379 112.4052225
 110.0176798  32.0388903 113.0831244 108.9349396  31.0558419 112.6917585
 110.8933915  14.0994981 101.0734030 110.0163381  13.9783782 100.7096277
 111.3691668  13.3081059 100.8212919 120.7606908  22.5548049 117.8432486
 119.8733687  22.2173971 117.9658885 121.3305459  21.8231080 118.0801251
 102.4136055  18.8872140 111.1675537 103.1007095  18.5733870 110.5796553
 102.2584184  19.7913505 110.8942789 107.2170777  13.7762337 115.5960561
 107.1328966  13.1688007 114.8610971 106.3953484  14.2671355 115.5970058
 114.2908062  27.2149501 114.8093729 114.2178233  28.0204473 115.3213034
 113.8485455  27.4141467 113.9841751 114.0797841  26.4521271 108.3196551
 113.2965363  26.9942951 108.4134775 114.7790586  26.9695251 108.7190792
 125.2424249  17.9656266 112.6049048 125.2314125  18.8480982 112.2342981
 124.3741628  17.6127817 112.4103585 116.7506745  27.1136335 116.9651888
 117.4634717  27.7483800 116.8927789 116.2596774  27.2100201 116.1491890
 118.4724272  21.0187588 108.5369180 117.5380551  21.1389050 108.3673884
 118.6500940  20.1160055 108.2729189 113.9729460  14.4033284 110.6902441
 113.6027248  13.8504324 111.3783346 114.4688553  13.7991417 110.1377441
 121.8596823  16.8604907 109.0719214 122.3257276  17.6932899 108.9979516
 122.3104324  16.3949889 109.7764472 111.8018659  24.8630779 117.7857459
 112.5028118  25.4967262 117.9386853 111.3313774  25.2045510 117.0253098
 119.9273054  23.2048728 106.0705366 120.2032898  23.0905323 106.9799240
 119.0577553  22.8066213 106.0317539 119.6019945  17.4175386 115.6110009
 118.9491395  17.6651293 114.9562462 119.9800324  16.6039524 115.2772486
 116.5627118  27.4535079 109.7138179 116.7449513  26.6356735 110.1765932
 117.3860104  27.6702771 109.2763069 116.8969284  26.3803264 106.9753228
 117.4257050  25.8695719 106.3623390 117.1597504  26.0645795 107.8398761
 107.3986377  24.3967134 114.7188561 107.9839813  23.6510822 114.8516466
 107.2011215  24.7071090 115.6025225 110.2525032  27.4318381 109.7351004
 109.5835407  27.9164509 109.2515044 110.1137902  27.6787601 110.6494382
 101.9904031  16.9672734 113.4393005 102.0288131  16.4336325 114.2330123
 101.4844324  16.4407939 112.8203982 114.3930300  29.4662125 116.3333662
 114.9448609  29.6293746 117.0982747 114.7336494  30.0566562 115.6613687
 109.3694794  11.8137274 116.9355547 109.4336120  12.6752105 116.5232945
 109.3061914  11.2011276 116.2027905 108.8447066  13.8860407 120.5828581
 109.4719105  13.5037484 121.1966105 107.9874985  13.6674609 120.9484274
 119.2441175  24.2923382 122.1882317 119.7881079  24.9053340 121.6937271
 118.6628020  24.8502960 122.7049330 105.6212609  15.6936836 106.5146936
 105.9166050  14.7847514 106.4613990 104.7200645  15.6724575 106.1927938
 117.5298688  27.4144100 113.3197344 117.4049827  26.6133840 112.8108290
 118.1877779  27.9090293 112.8311314 109.1506856  13.7692833 112.4974485
 108.4293442  14.3828800 112.3581958 109.9400112  14.3050597 112.4191131
 119.5933596  25.2153120 114.9476894 118.6463932  25.0958471 114.8755221
 119.9416369  24.3275618 115.0303156 111.9533170  11.1047259 118.7715136
 112.4767571  11.3509556 119.5341446 111.7345503  11.9367294 118.3518274
 107.3500451  13.3750934 106.6386261 107.0213157  12.4948313 106.4561367
 107.7039821  13.3198602 107.5262650 116.5980029  25.0105836 111.1481247
 116.4504992  24.0822544 111.3288817 117.4233523  25.0325927 110.6638322
 110.4642274  13.6623903 107.0061739 110.8038346  14.1909825 106.2840347
 110.9114394  14.0004310 107.7820305 120.2014151  25.8334395 112.2346119
 121.1260699  25.6277256 112.0970571 120.0329455  25.5850796 113.1435461
 113.1585715  12.0460954 116.4564807 112.8182535  11.2468767 116.8585487
 112.4524721  12.3462665 115.8841640 112.4510421  12.1598525 105.2055032
 113.1718783  12.5379778 104.7018748 111.8275725  12.8787402 105.3090010
 116.5941544  12.8643674 106.1413364 116.8105158  13.7468312 105.8402192
 116.1135611  12.4729887 105.4119006 111.3340765  15.8229387 112.7184109
 111.1885346  16.1369690 113.6108390 110.8565969  16.4414288 112.1655007
 113.1937148  12.8131935 112.7664998 113.1798717  11.9173029 112.4297296
 113.9109576  12.8202599 113.4003284 115.0463279  13.2469275 114.8118126
 114.7881057  14.1686346 114.8102456 114.5148319  12.8499710 115.5018590
 119.9909468  26.3520063 107.5908211 120.1646345  25.7866485 106.8382063
 120.4838359  27.1520957 107.4087701 105.8086427  18.3634732 115.6571770
 105.2639895  19.1394540 115.7892044 106.6865777  18.7105536 115.4990891
 112.5974044  11.6946315 108.0352568 112.7189955  10.7662962 108.2343456
 112.3076086  11.7085001 107.1230884 125.8448859  19.1156485 109.2098511
 126.2880005  18.3663811 108.8117634 124.9675369  19.1066622 108.8272243
 120.9784640  25.6686827 104.6905109 121.6735545  26.2893520 104.9092424
 121.3207790  24.8182178 104.9657487 106.5952449  17.4904628 118.5501927
 105.8534185  17.6387263 119.1366557 106.2745193  17.7512893 117.6868676
 122.8776063  23.1186532 106.2192440 123.4027387  23.4573805 105.4941760
 122.7898416  22.1833548 106.0355575 114.5396112  27.0320606 118.3482317
 114.8483238  26.7869753 119.2205016 115.3371594  27.2367245 117.8601187
 114.5616724  29.1858516 110.5787693 114.1221714  28.6934894 111.2720550
 115.3124841  28.6431483 110.3379768 107.0409063  25.3770057 110.5812321
 107.8667083  25.0773828 110.2010965 106.6903115  24.6077679 111.0302110
 112.0090596  24.7296525 112.6509995 111.3870605  24.0667230 112.3512223
 112.6795463  24.7557657 111.9683643 105.2417668  23.2956383 111.5401255
 104.4049576  22.8678557 111.3585256 105.2141313  23.4888826 112.4772046
 111.5704103  23.2800448 106.1268455 111.7192223  23.9635913 105.4735128
 112.3770546  23.2605538 106.6417911 114.3114412  13.9609685 118.9988859
 113.4417721  14.2543251 118.7271448 114.5473892  14.5450130 119.7196123
 125.3881723  20.5861724 111.6020958 126.2228615  21.0251528 111.7658519
 125.5240852  20.1100377 110.7829204 109.3256736  19.3065626 107.1329524
 109.0802778  18.4027956 107.3309734 109.4952650  19.3082776 106.1909002
 108.5952383  15.0393983 104.6315686 107.9021628  15.1138338 103.9755722
 108.3504135  14.2754327 105.1537203 115.0699508  25.7748579 103.5980203
 114.4973476  26.3938766 103.1450675 115.6432302  26.3247940 104.1320125
 118.2896768  26.0585729 104.7288785 119.2227441  25.9931290 104.9321661
 118.2019981  26.8941996 104.2703318 120.9184785  25.3751599 101.6892733
 120.8398416  25.0411463 102.5828491 121.7394452  25.8673367 101.6884205
 123.6162976  18.2413338 114.8969051 123.5839296  17.3029339 115.0828735
 124.2263600  18.3197375 114.1634876 115.4546307  17.1109391 100.9396255
 116.4005412  16.9815599 101.0084673 115.0760552  16.3724053 101.4165683
 115.3384999  21.1627137 122.3996912 116.2588009  21.3405737 122.5936959
 115.3034583  20.2183183 122.2476612 113.6389224  15.0359368 100.8751140
 112.7320679  14.7392480 100.9513854 113.9165205  14.7389186 100.0085427
 104.5567164  16.3565731 111.3250187 104.2369949  15.5031039 111.0324561
 104.0100593  16.5714309 112.0808154 108.3347072  19.0728172 115.0419693
 108.5533082  20.0045280 115.0607727 108.7472846  18.7136147 115.8274497
 112.4088009  11.8946303 101.0163120 113.2707173  12.2201201 101.2758937
 112.5938353  11.1077799 100.5036185 104.4255424  19.9768643 113.2943308
 103.7318896  19.5622595 112.7813263 105.1728415  20.0189179 112.6976727
 113.0706207  18.0758517 123.2487504 112.5873289  18.8758877 123.4551393
 113.1567146  18.0866462 122.2954948 106.3392167  19.9086896 111.1709323
 106.3162855  20.0074584 110.2191206 106.6492803  20.7552047 111.4926489
 108.9979545  21.9663051 115.2855938 109.9522798  21.9346994 115.2185869
 108.7992068  21.5053675 116.1006164 109.5878927  20.5364168 117.8526735
 110.4071816  21.0308246 117.8761573 109.8615735  19.6196136 117.8244303
 107.3529774  27.5082671 112.3026136 107.2184242  26.7483072 111.7364134
 106.9361836  28.2323571 111.8354925 118.4888737  22.6919594 101.3102711
 119.1924587  22.8969597 101.9260367 117.7651385  23.2596356 101.5751794
 119.3186547  18.4429456 107.4304981 119.2621748  18.8998007 106.5912614
 119.8714889  17.6820140 107.2527824 127.4403691  16.9715261 110.7626392
 126.8803249  17.0408450 111.5357954 126.8347194  16.7956245 110.0425888
 110.5098900  28.4051988 112.5144578 110.3931284  29.3497420 112.4123269
 109.6891346  28.1025550 112.9030377 120.3975434  23.1302124 103.3601171
 121.2321038  22.6983322 103.1778646 120.2359777  22.9584137 104.2878065
 120.0521326  19.6334237 104.7257510 119.9970130  19.4678508 103.7845954
 119.4267382  20.3410270 104.8819700 104.8413841  14.8702301 118.5518932
 105.4872705  14.3601255 119.0406158 104.6330992  15.6070983 119.1262358
 111.5353414  29.0580250 115.7300507 112.4380660  29.0903860 116.0467002
 111.3090784  28.1280701 115.7446842 113.2907016  27.8111236 112.3910585
 112.3402647  27.8113098 112.2774958 113.5939502  27.0643971 111.8746620
 109.1811332  12.0169918 122.6493947 110.0442794  11.6606723 122.8597271
 108.6076743  11.6783813 123.3369351 129.0259709  33.6471775 113.4556348
 129.6638119  33.5278522 112.7519688 128.9080552  34.5952619 113.5144300
 125.8349415  33.5999203 113.3917872 125.4967927  33.4840268 112.5038407
 126.7039184  33.1990368 113.3718879 121.6936231  35.4534679 109.3814763
 121.1301096  35.3624616 108.6131051 121.5788626  34.6334584 109.8617256
 126.3169198  34.7534055 119.3504078 126.3057839  34.3586853 118.4784582
 126.4789838  34.0200127 119.9437849 119.2400663  36.9485871 112.2198984
 120.0321955  36.6076696 111.8045283 119.4797313  37.0580846 113.1401137
 127.2735790  39.1205647 104.6929228 126.6223770  39.7059727 104.3063242
 128.0680153  39.6511842 104.7524266 121.1991417  36.2094784 105.0916363
 121.9722293  35.6623771 104.9529238 121.5516816  37.0739033 105.3030824
 123.0376460  37.5371166 118.2983262 122.7466326  38.4416797 118.1829928
 123.6733444  37.5787694 119.0127331 123.9632666  34.9148015 114.8884622
 124.5596239  34.6904037 114.1741585 124.0207638  34.1732760 115.4910069
 123.5357695  32.3687450 102.7234813 123.7883216  31.8468972 101.9618276
 122.5982254  32.2053596 102.8261496 128.5800978  31.3723229 110.5309556
 129.3664067  30.9542652 110.1799973 128.8439682  32.2769321 110.6991204
 128.7511055  36.8096079 105.2298213 128.1156888  36.8830705 105.9419117
 128.4208461  37.3989678 104.5517292 133.9809405  31.3098462 111.4342534
 134.7134577  30.7397679 111.6680364 133.2248760  30.9220062 111.8749040
 123.2553984  34.2715556 104.9259187 123.1390242  33.5960460 105.5940272
 123.3656243  33.7847930 104.1091341 125.5985525  33.7325703 108.6305877
 125.2343732  33.2056324 109.3418798 126.4552640  33.3424172 108.4572362
 125.2391011  28.7615603 103.6267225 125.4065414  29.6295839 103.9937696
 125.0488181  28.9242885 102.7028515 127.9966345  37.2232582 115.2933056
 127.6967068  38.1257621 115.1848863 127.6517404  36.9564765 116.1454209
 121.4478826  33.6746379 111.3269760 120.5229323  33.5422593 111.5347452
 121.6963239  34.4540598 111.8239702 131.3963488  29.7415122 112.9730493
 130.4880366  29.6730531 112.6789254 131.3451084  30.2187067 113.8012318
 125.2180232  31.2173261 104.6113892 125.0979858  31.6630311 105.4499372
 124.5232821  31.5658578 104.0527430 118.8087637  33.3179652 112.1613549
 118.9380018  33.5714131 113.0752961 118.1285088  33.9107360 111.8418204
 122.9787124  43.9876902 108.2604023 122.9011154  44.9384727 108.3392504
 122.3748768  43.6422775 108.9178950 125.4704354  31.1604768 120.9165390
 124.6937688  31.7198688 120.9068255 126.1094917  31.6461551 121.4380260
 130.9165299  31.6894734 105.4394226 131.8283155  31.9222120 105.2641924
 130.4074946  32.2731778 104.8769305 123.7250727  33.9690221 120.4783357
 124.4665411  34.5075265 120.2018181 123.0187712  34.5956510 120.6354909
 129.2006066  36.1119362 119.0755519 129.6089422  35.6701772 118.3310151
 128.4783328  35.5371989 119.3289712 125.5537136  31.0491968 116.4489076
 126.3998331  31.4731382 116.5923725 125.4935774  30.3925593 117.1427639
 129.5234881  36.6720552 112.8307808 128.8943743  36.8366266 112.1283875
 129.1360543  37.0862162 113.6018772 133.4024113  37.6074990 110.1852171
 132.7175151  37.9873891 109.6349205 133.4867962  38.2170317 110.9184119
 130.6575044  35.2534949 116.7847515 130.8691940  35.8966709 116.1081896
 130.6104793  34.4197266 116.3169445 128.2601273  27.8652770 113.6884087
 127.3985752  28.1634023 113.9800825 128.2863708  28.0823169 112.7565120
 125.0762843  36.4094960 110.0957893 125.5401188  36.6882663 109.3062515
 124.8119641  35.5078405 109.9130983 121.9686924  35.9566442 113.0337656
 122.5388281  36.3853710 112.3955140 122.5595036  35.6749027 113.7321842
 124.0131729  32.5318113 106.9047458 124.7155772  32.9839156 107.3721384
 123.6812357  31.8901931 107.5327351 122.4612090  31.1229869 121.2798667
 121.8310751  31.8046150 121.5134064 122.3548178  31.0112951 120.3351805
 117.7557063  30.7901665 112.2064591 116.9656117  31.0459194 111.7304702
 118.2468310  31.6050003 112.3116632 131.7720872  38.1306904 114.9569872
 132.5938316  37.7287092 114.6752554 131.7683275  38.0275139 115.9085988
 119.7071808  31.1546245 109.1648068 118.9102971  31.2664939 109.6831564
 119.4797400  31.4932897 108.2988959 125.5377476  37.6790948 117.1130583
 125.6021908  38.1411355 117.9488755 124.8288400  37.0488313 117.2412893
 116.0394766  31.0432156 114.6379582 116.2902804  31.9279166 114.9037158
 116.5754314  30.8636757 113.8654674 125.2525493  39.3459055 106.9809563
 125.1171168  40.1910591 107.4094411 125.7935306  39.5478333 106.2175497
 118.7054891  36.8634493 107.5537488 119.2179411  37.6577744 107.7043053
 119.3577604  36.1660784 107.4871090 120.5149775  39.9800250 109.6360241
 120.6916404  40.9018214 109.4481225 121.3106609  39.6658669 110.0654621
 119.8002132  32.0264881 119.5122405 119.6855647  31.1250139 119.8129503
 118.9446650  32.2728578 119.1607221 126.8793970  39.9682622 121.1109905
 126.4357824  39.1819000 120.7930810 127.5411183  40.1561772 120.4453796
 121.6381091  41.4978423 115.6370584 122.1888516  41.3695487 114.8647578
 120.7992567  41.7973312 115.2865476 128.9775208  40.2485422 119.1391306
 128.9593683  41.0694303 118.6471576 129.8995128  40.1239497 119.3641448
 125.4348262  37.7629551 119.9814815 125.9676599  37.0017839 119.7514123
 124.9062343  37.4703203 120.7238969 116.6703808  35.1923148 108.3297059
 117.5079030  35.6020156 108.1130766 116.8482075  34.2522590 108.2997253
 128.5668240  32.8598228 104.0180892 128.0514863  33.6302833 104.2569279
 128.2945548  32.1863364 104.6413953 126.1515351  27.7047929 109.0766130
 125.2956947  27.3154779 108.8971769 126.5642302  27.7839890 108.2165916
 127.6814497  25.2394272 113.4757690 127.1779293  25.2024407 112.6625495
 127.9745104  26.1487015 113.5354346 123.9257383  25.3233002 112.4823871
 124.7910380  25.1275811 112.1229761 123.9934892  25.0943354 113.4093228
 133.5402514  35.6130583 105.9534065 132.7631957  35.2741742 105.5089227
 134.2193995  35.6183206 105.2789030 128.3554543  30.7325320 105.8440673
 128.0504678  31.0471470 106.6950816 129.3084985  30.8106740 105.8868006
 126.8000975  36.8915544 107.4933627 126.2722336  36.1568303 107.1806864
 126.2988477  37.6690220 107.2473595 131.7793821  35.0864564 112.6100673
 131.1217495  35.7763826 112.6980802 132.5834220  35.4760996 112.9534659
 121.5319702  27.5535210 109.8540238 122.1063454  27.3310391 109.1213431
 122.1190685  27.6223904 110.6068840 130.5899280  33.4408937 110.6604615
 131.1031161  34.0738929 111.1626325 131.2400503  32.8410132 110.2947975
 121.8589289  29.5839671 103.8736124 121.0226602  29.9214358 104.1945398
 121.7194059  29.4488651 102.9363261 123.8342370  24.4276459 108.5815308
 123.1806782  24.1125476 107.9571923 123.7922844  23.8052199 109.3075131
 124.9453575  34.7095754 100.4968600 124.0380637  34.4785007 100.6959749
 125.4424607  33.9133373 100.6842581 127.8521654  43.4193261 103.4165286
 127.1783353  43.7224958 104.0250244 128.2387476  44.2222341 103.0670743
 127.0680110  30.9158392 112.9062955 126.1502672  31.1373339 112.7484643
 127.4840254  30.9904703 112.0474663 127.8515158  32.3149808 108.0365636
 128.5986977  32.8271205 107.7272758 128.1206748  31.9933861 108.8970029
 126.1241808  34.8108349 105.0192590 125.2153028  34.5267382 105.1165060
 126.1536892  35.2307427 104.1595897 131.3561076  38.4214938 108.7883757
 130.9023403  37.5805848 108.8448948 130.7255042  39.0576337 109.1258538
 130.2993995  29.3506924 110.0184425 129.5616752  28.8384311 110.3494667
 130.5520769  28.9107306 109.2067702 129.7994015  40.2591435 109.7233576
 130.0916989  40.8196492 109.0045941 130.3092636  40.5519996 110.4786735
 130.4005623  22.1283176 110.6126194 130.7064499  21.2680540 110.3252109
 131.1258227  22.7200797 110.4125188 116.6929979  32.5313863 109.0007792
 116.4954379  31.9383224 108.2758859 116.1376643  32.2266073 109.7183731
 124.6726702  32.4236969 111.1202385 124.7275312  31.4710806 111.0444862
 123.8617904  32.5796408 111.6043684 125.8217896  36.3517092 102.3580668
 125.3837326  35.6352951 101.8986306 126.5628337  36.5793207 101.7965760
 122.6119062  31.0414029 108.8792764 121.7986928  31.3408200 109.2857956
 123.1078056  30.6469718 109.5967246 124.7627640  41.0371786 110.8127029
 124.7203819  41.2632632 109.8835561 125.6790339  40.8035161 110.9612830
 128.2093274  31.5055854 117.7107658 128.5642662  31.7327327 118.5702124
 128.8565405  31.8374230 117.0884913 133.9391011  34.6274289 108.4156987
 133.8008909  34.8175885 107.4878176 133.5827230  35.3893672 108.8725038
 122.1033137  28.6132385 114.4953999 122.7432516  28.4721144 113.7976962
 121.2710668  28.3266898 114.1192601 133.9660391  36.6950816 113.4268259
 134.3996897  36.6026106 114.2751313 134.6791971  36.6708317 112.7888275
 122.8793441  37.9134815 110.6088992 123.6734039  37.4185135 110.4071566
 122.1685133  37.3852678 110.2456697 127.6988285  40.2952911 114.9601359
 127.7525308  40.8643847 115.7279075 126.8303067  40.4654796 114.5955396
 119.1876204  32.0577897 106.6848744 118.2573793  31.9962352 106.9018706
 119.2833676  31.5353850 105.8885385 119.1061753  28.5832710 109.2726986
 119.3668571  29.4978043 109.1636146 119.9278926  28.1157152 109.4223599
 120.5786679  29.9970467 116.4425810 121.2509732  29.7887829 115.7938459
 119.7516465  29.7992553 116.0031043 134.8275940  36.7374517 115.9601144
 135.0211830  37.6420328 116.2060419 134.7276558  36.2781936 116.7939729
 126.6576385  34.4613173 116.5188291 127.5868445  34.6124332 116.3457258
 126.2367415  34.5497193 115.6636938 125.4564717  38.4863837 114.2886829
 125.3175803  38.1182621 115.1612767 124.6679313  39.0011476 114.1170786
 126.0512869  43.5872934 105.6312365 126.2264625  43.1160977 106.4457988
 125.3645657  44.2138700 105.8593626 127.0069932  37.8645440 111.6775666
 126.6719765  37.8246210 112.5733316 126.5073878  37.1990156 111.2046077
 120.9814176  33.2713070 117.2028248 120.8433974  32.5393309 117.8039787
 121.8919100  33.1821970 116.9212435 129.9429124  35.2101474 101.9512726
 129.3258294  34.4848302 101.8545779 129.4745612  35.9710834 101.6079800
 123.6096477  32.9833029 116.6911927 124.3196095  32.3426221 116.6498546
 123.5665785  33.2345924 117.6138108 131.5983255  39.9200382 119.6118506
 131.5395802  39.2359603 118.9449089 132.0002774  40.6619372 119.1599132
 122.3225411  29.9698247 118.5107567 121.7862768  29.5188985 119.1629163
 121.7342119  30.1044156 117.7678031 120.6173954  46.7362296 112.4052225
 120.8570552  47.3680820 113.0831244 119.7743151  46.3850336 112.6917585
 121.7327670  29.4286898 101.0734030 120.8557136  29.3075699 100.7096277
 122.2085423  28.6372977 100.8212919 131.6000663  37.8839966 117.8432486
 130.7127441  37.5465888 117.9658885 132.1699214  37.1522998 118.0801251
 113.2529810  34.2164058 111.1675537 113.9400850  33.9025788 110.5796553
 113.0977938  35.1205423 110.8942789 118.0564532  29.1054255 115.5960561
 117.9722721  28.4979924 114.8610971 117.2347238  29.5963273 115.5970058
 125.1301816  42.5441419 114.8093729 125.0571988  43.3496390 115.3213034
 124.6879209  42.7433385 113.9841751 124.9191596  41.7813189 108.3196551
 124.1359118  42.3234869 108.4134775 125.6184341  42.2987168 108.7190792
 128.2288246  27.5907818 110.9630756 128.7256945  26.8377781 110.6431826
 127.4575227  27.6272135 110.3973966 136.0818003  33.2948184 112.6049048
 136.0707879  34.1772899 112.2342981 135.2135383  32.9419735 112.4103585
 127.5900500  42.4428253 116.9651888 128.3028472  43.0775718 116.8927789
 127.0990528  42.5392119 116.1491890 129.3118026  36.3479505 108.5369180
 128.3774305  36.4680968 108.3673884 129.4894695  35.4451972 108.2729189
 124.8123215  29.7325201 110.6902441 124.4421002  29.1796242 111.3783346
 125.3082307  29.1283335 110.1377441 132.6990578  32.1896825 109.0719214
 133.1651030  33.0224816 108.9979516 133.1498078  31.7241806 109.7764472
 122.6412413  40.1922696 117.7857459 123.3421873  40.8259179 117.9386853
 122.1707528  40.5337428 117.0253098 130.7666809  38.5340646 106.0705366
 131.0426653  38.4197241 106.9799240 129.8971308  38.1358131 106.0317539
 130.4413699  32.7467304 115.6110009 129.7885149  32.9943211 114.9562462
 130.8194079  31.9331442 115.2772486 127.4020873  42.7826997 109.7138179
 127.5843267  41.9648653 110.1765932 128.2253859  42.9994689 109.2763069
 127.7363038  41.7095182 106.9753228 128.2650805  41.1987637 106.3623390
 127.9991258  41.3937712 107.8398761 118.2380131  39.7259051 114.7188561
 118.8233568  38.9802739 114.8516466 118.0404970  40.0363008 115.6025225
 121.0918786  42.7610299 109.7351004 120.4229162  43.2456426 109.2515044
 120.9531656  43.0079519 110.6494382 112.8297786  32.2964651 113.4393005
 112.8681885  31.7628242 114.2330123 112.3238079  31.7699857 112.8203982
 125.2324055  44.7954042 116.3333662 125.7842363  44.9585664 117.0982747
 125.5730248  45.3858480 115.6613687 120.2088548  27.1429192 116.9355547
 120.2729875  28.0044023 116.5232945 120.1455668  26.5303194 116.2027905
 119.6840821  29.2152325 120.5828581 120.3112860  28.8329402 121.1966105
 118.8268740  28.9966526 120.9484274 130.0834929  39.6215300 122.1882317
 130.6274833  40.2345258 121.6937271 129.5021774  40.1794878 122.7049330
 116.4606363  31.0228754 106.5146936 116.7559805  30.1139432 106.4613990
 115.5594399  31.0016493 106.1927938 128.3692442  42.7436018 113.3197344
 128.2443582  41.9425758 112.8108290 129.0271533  43.2382211 112.8311314
 119.9900610  29.0984750 112.4974485 119.2687196  29.7120718 112.3581958
 120.7793866  29.6342515 112.4191131 130.4327351  40.5445038 114.9476894
 129.4857686  40.4250389 114.8755221 130.7810124  39.6567536 115.0303156
 122.7926924  26.4339177 118.7715136 123.3161326  26.6801473 119.5341446
 122.5739257  27.2659212 118.3518274 118.1894205  28.7042851 106.6386261
 117.8606911  27.8240230 106.4561367 118.5433576  28.6490520 107.5262650
 127.4373784  40.3397754 111.1481247 127.2898746  39.4114461 111.3288817
 128.2627277  40.3617845 110.6638322 121.3036028  28.9915821 107.0061739
 121.6432101  29.5201742 106.2840347 121.7508149  29.3296227 107.7820305
 131.0407906  41.1626313 112.2346119 131.9654453  40.9569174 112.0970571
 130.8723209  40.9142714 113.1435461 123.9979469  27.3752872 116.4564807
 123.6576289  26.5760685 116.8585487 123.2918475  27.6754583 115.8841640
 124.6495941  24.4602184 114.9092130 125.4722010  23.9862662 114.7871020
 124.8934004  25.2392668 115.4090816 123.2904175  27.4890443 105.2055032
 124.0112538  27.8671695 104.7018748 122.6669479  28.2079320 105.3090010
 127.4335298  28.1935592 106.1413364 127.6498913  29.0760230 105.8402192
 126.9529365  27.8021805 105.4119006 122.1734520  31.1521305 112.7184109
 122.0279100  31.4661608 113.6108390 121.6959723  31.7706205 112.1655007
 124.0330903  28.1423853 112.7664998 124.0192471  27.2464946 112.4297296
 124.7503331  28.1494517 113.4003284 125.8857033  28.5761193 114.8118126
 125.6274811  29.4978264 114.8102456 125.3542074  28.1791628 115.5018590
 130.8303222  41.6811980 107.5908211 131.0040100  41.1158403 106.8382063
 131.3232113  42.4812875 107.4087701 116.6480182  33.6926649 115.6571770
 116.1033650  34.4686457 115.7892044 117.5259532  34.0397454 115.4990891
 123.4367798  27.0238233 108.0352568 123.5583710  26.0954879 108.2343456
 123.1469841  27.0376919 107.1230884 126.3058989  24.7093144 111.1719288
 126.3280686  24.7732477 110.2171268 126.7227048  23.8697652 111.3659794
 136.6842613  34.4448403 109.2098511 137.1273759  33.6955728 108.8117634
 135.8069123  34.4358540 108.8272243 131.8178394  40.9978745 104.6905109
 132.5129299  41.6185437 104.9092424 132.1601545  40.1474096 104.9657487
 117.4346204  32.8196546 118.5501927 116.6927940  32.9679181 119.1366557
 117.1138948  33.0804811 117.6868676 133.7169818  38.4478450 106.2192440
 134.2421142  38.7865723 105.4941760 133.6292170  37.5125465 106.0355575
 125.3789866  42.3612524 118.3482317 125.6876993  42.1161671 119.2205016
 126.1765348  42.5659162 117.8601187 125.4010478  44.5150433 110.5787693
 124.9615469  44.0226812 111.2720550 126.1518595  43.9723401 110.3379768
 117.8802817  40.7061974 110.5812321 118.7060837  40.4065746 110.2010965
 117.5296869  39.9369597 111.0302110 122.8484350  40.0588443 112.6509995
 122.2264360  39.3959148 112.3512223 123.5189217  40.0849574 111.9683643
 116.0811422  38.6248301 111.5401255 115.2443331  38.1970475 111.3585256
 116.0535068  38.8180744 112.4772046 122.4097857  38.6092366 106.1268455
 122.5585978  39.2927830 105.4735128 123.2164301  38.5897456 106.6417911
 125.1508166  29.2901603 118.9988859 124.2811476  29.5835169 118.7271448
 125.3867647  29.8742048 119.7196123 136.2275478  35.9153641 111.6020958
 137.0622369  36.3543446 111.7658519 136.3634607  35.4392295 110.7829204
 120.1650490  34.6357543 107.1329524 119.9196532  33.7319873 107.3309734
 120.3346405  34.6374694 106.1909002 119.4346138  30.3685901 104.6315686
 118.7415383  30.4430256 103.9755722 119.1897890  29.6046245 105.1537203
 128.1059794  21.9281502 112.0355176 128.3861548  21.2604691 112.6615603
 128.8910401  22.1210598 111.5229840 125.9093263  41.1040496 103.5980203
 125.3367230  41.7230683 103.1450675 126.4826057  41.6539858 104.1320125
 129.1290523  41.3877646 104.7288785 130.0621196  41.3223208 104.9321661
 129.0413736  42.2233913 104.2703318 131.7578539  40.7043517 101.6892733
 131.6792171  40.3703380 102.5828491 132.5788206  41.1965285 101.6884205
 134.4556731  33.5705256 114.8969051 134.4233051  32.6321257 115.0828735
 135.0657354  33.6489293 114.1634876 126.2940061  32.4401309 100.9396255
 127.2399166  32.3107517 101.0084673 125.9154306  31.7015971 101.4165683
 132.2661946  24.1057315 110.9023147 132.0686767  23.7972403 111.7866479
 132.8761652  24.8318954 111.0321077 126.1778754  36.4919055 122.3996912
 127.0981763  36.6697654 122.5936959 126.1428337  35.5475101 122.2476612
 124.4782979  30.3651285 100.8751140 123.5714434  30.0684398 100.9513854
 124.7558960  30.0681104 100.0085427 115.3960919  31.6857649 111.3250187
 115.0763703  30.8322957 111.0324561 114.8494347  31.9006227 112.0808154
 119.1740827  34.4020090 115.0419693 119.3926836  35.3337198 115.0607727
 119.5866600  34.0428064 115.8274497 126.0945044  24.9088175 107.0295382
 125.2845773  24.5635260 107.4050628 126.7829461  24.5995719 107.6182993
 128.0235593  23.9866222 108.6519678 128.5766631  24.4061675 109.3109702
 128.2605679  23.0601970 108.6942634 123.2481763  27.2238221 101.0163120
 124.1100927  27.5493119 101.2758937 123.4332107  26.4369717 100.5036185
 115.2649179  35.3060560 113.2943308 114.5712650  34.8914513 112.7813263
 116.0122170  35.3481097 112.6976727 131.4014400  26.0966747 108.1598343
 130.8213069  26.7551551 107.7776395 131.1350332  25.2744092 107.7485760
 129.8517966  25.4971805 110.3619663 130.3517744  25.6088339 109.5533982
 130.4953574  25.1932858 111.0020471 123.9099962  33.4050434 123.2487504
 123.4267044  34.2050795 123.4551393 123.9960901  33.4158379 122.2954948
 117.1785921  35.2378814 111.1709323 117.1556610  35.3366501 110.2191206
 117.4886558  36.0843965 111.4926489 119.8373299  37.2954969 115.2855938
 120.7916553  37.2638911 115.2185869 119.6385823  36.8345593 116.1006164
 120.4272681  35.8656085 117.8526735 121.2465570  36.3600164 117.8761573
 120.7009489  34.9488053 117.8244303 130.1839278  28.2566837 107.2154691
 129.2965133  28.5416488 106.9974886 130.5993267  28.0960601 106.3681968
 133.5353814  28.2813358 110.9309030 134.3114204  28.7709811 111.2033647
 132.8101948  28.7071413 111.3880900 118.1923528  42.8374589 112.3026136
 118.0577996  42.0774990 111.7364134 117.7755590  43.5615488 111.8354925
 129.3282491  38.0211512 101.3102711 130.0318341  38.2261515 101.9260367
 128.6045140  38.5888274 101.5751794 130.1580301  33.7721373 107.4304981
 130.1015503  34.2289925 106.5912614 130.7108644  33.0112058 107.2527824
 133.9685107  29.5611105 108.2555101 133.7122042  29.1607741 109.0863308
 133.3437975  30.2754899 108.1305240 138.2797445  32.3007179 110.7626392
 137.7197003  32.3700368 111.5357954 137.6740949  32.1248163 110.0425888
 121.3492654  43.7343906 112.5144578 121.2325038  44.6789338 112.4123269
 120.5285100  43.4317467 112.9030377 131.2369189  38.4594041 103.3601171
 132.0714793  38.0275240 103.1778646 131.0753531  38.2876055 104.2878065
 130.8915081  34.9626155 104.7257510 130.8363885  34.7970426 103.7845954
 130.2661136  35.6702188 104.8819700 115.6807596  30.1994219 118.5518932
 116.3266459  29.6893173 119.0406158 115.4724747  30.9362901 119.1262358
 124.2011206  24.4634264 104.3042829 124.1889876  25.4076104 104.4611100
 125.0934628  24.2804409 104.0102290 122.3747168  44.3872168 115.7300507
 123.2774415  44.4195778 116.0467002 122.1484538  43.4572618 115.7446842
 124.1300770  43.1403154 112.3910585 123.1796401  43.1405016 112.2774958
 124.4333256  42.3935889 111.8746620 128.0163326  21.0577040 108.5588765
 127.2495721  20.5035527 108.7045448 128.4274031  21.1298909 109.4202917
 120.0205087  27.3461836 122.6493947 120.8836548  26.9898641 122.8597271
 119.4470497  27.0075731 123.3369351 139.8653464  48.9763692 113.4556348
 140.5031874  48.8570440 112.7519688 139.7474307  49.9244536 113.5144300
 136.6743170  48.9291121 113.3917872 136.3361681  48.8132185 112.5038407
 137.5432938  48.5282286 113.3718879 132.5329986  50.7826597 109.3814763
 131.9694851  50.6916534 108.6131051 132.4182381  49.9626501 109.8617256
 137.1562953  50.0825972 119.3504078 137.1451594  49.6878771 118.4784582
 137.3183592  49.3492045 119.9437849 130.0794418  52.2777789 112.2198984
 130.8715709  51.9368613 111.8045283 130.3191068  52.3872764 113.1401137
 138.1129544  54.4497565 104.6929228 137.4617524  55.0351645 104.3063242
 138.9073907  54.9803760 104.7524266 132.0385172  51.5386702 105.0916363
 132.8116048  50.9915689 104.9529238 132.3910570  52.4030951 105.3030824
 133.8770214  52.8663084 118.2983262 133.5860080  53.7708715 118.1829928
 134.5127198  52.9079612 119.0127331 134.8026421  50.2439933 114.8884622
 135.3989993  50.0195955 114.1741585 134.8601392  49.5024678 115.4910069
 134.3751449  47.6979368 102.7234813 134.6276970  47.1760889 101.9618276
 133.4376008  47.5345513 102.8261496 139.4194732  46.7015146 110.5309556
 140.2057821  46.2834569 110.1799973 139.6833436  47.6061239 110.6991204
 139.5904810  52.1387997 105.2298213 138.9550642  52.2122623 105.9419117
 139.2602216  52.7281595 104.5517292 134.0947738  49.6007474 104.9259187
 133.9783996  48.9252377 105.5940272 134.2049998  49.1139848 104.1091341
 136.4379279  49.0617621 108.6305877 136.0737486  48.5348242 109.3418798
 137.2946395  48.6716090 108.4572362 136.0784766  44.0907521 103.6267225
 136.2459168  44.9587757 103.9937696 135.8881935  44.2534802 102.7028515
 138.8360099  52.5524500 115.2933056 138.5360822  53.4549538 115.1848863
 138.4911159  52.2856683 116.1454209 132.2872581  49.0038296 111.3269760
 131.3623077  48.8714511 111.5347452 132.5356994  49.7832516 111.8239702
 142.2357243  45.0707040 112.9730493 141.3274120  45.0022448 112.6789254
 142.1844839  45.5478985 113.8012318 136.0573987  46.5465178 104.6113892
 135.9373612  46.9922229 105.4499372 135.3626575  46.8950496 104.0527430
 129.6481392  48.6471570 112.1613549 129.7773773  48.9006049 113.0752961
 128.9678843  49.2399278 111.8418204 133.8180879  59.3168820 108.2604023
 133.7404909  60.2676645 108.3392504 133.2142523  58.9714692 108.9178950
 136.3098109  46.4896685 120.9165390 135.5331443  47.0490606 120.9068255
 136.9488672  46.9753468 121.4380260 141.7559053  47.0186651 105.4394226
 142.6676909  47.2514038 105.2641924 141.2468700  47.6023696 104.8769305
 134.5644481  49.2982139 120.4783357 135.3059165  49.8367183 120.2018181
 133.8581467  49.9248428 120.6354909 140.0399821  51.4411279 119.0755519
 140.4483177  50.9993690 118.3310151 139.3177082  50.8663907 119.3289712
 136.3930891  46.3783886 116.4489076 137.2392086  46.8023300 116.5923725
 136.3329528  45.7217510 117.1427639 140.3628635  52.0012470 112.8307808
 139.7337498  52.1658184 112.1283875 139.9754297  52.4154079 113.6018772
 141.4968799  50.5826867 116.7847515 141.7085694  51.2258627 116.1081896
 141.4498547  49.7489183 116.3169445 139.0995028  43.1944687 113.6884087
 138.2379507  43.4925941 113.9800825 139.1257462  43.4115086 112.7565120
 135.9156597  51.7386878 110.0957893 136.3794943  52.0174581 109.3062515
 135.6513395  50.8370323 109.9130983 132.8080678  51.2858359 113.0337656
 133.3782035  51.7145628 112.3955140 133.3988790  51.0040944 113.7321842
 134.8525483  47.8610030 106.9047458 135.5549527  48.3131074 107.3721384
 134.5206112  47.2193849 107.5327351 133.3005845  46.4521787 121.2798667
 132.6704505  47.1338068 121.5134064 133.1941933  46.3404869 120.3351805
 128.5950817  46.1193583 112.2064591 127.8049871  46.3751112 111.7304702
 129.0862065  46.9341921 112.3116632 142.6114627  53.4598822 114.9569872
 143.4332071  53.0579009 114.6752554 142.6077030  53.3567056 115.9085988
 130.5465563  46.4838162 109.1648068 129.7496726  46.5956856 109.6831564
 130.3191155  46.8224814 108.2988959 136.3771230  53.0082865 117.1130583
 136.4415663  53.4703273 117.9488755 135.6682154  52.3780230 117.2412893
 126.8788520  46.3724073 114.6379582 127.1296559  47.2571083 114.9037158
 127.4148069  46.1928675 113.8654674 136.0919248  54.6750973 106.9809563
 135.9564923  55.5202509 107.4094411 136.6329060  54.8770251 106.2175497
 129.5448645  52.1926411 107.5537488 130.0573166  52.9869661 107.7043053
 130.1971358  51.4952701 107.4871090 131.3543530  55.3092167 109.6360241
 131.5310158  56.2310132 109.4481225 132.1500363  54.9950586 110.0654621
 130.6395887  47.3556799 119.5122405 130.5249402  46.4542056 119.8129503
 129.7840404  47.6020496 119.1607221 137.7187724  55.2974539 121.1109905
 137.2751578  54.5110918 120.7930810 138.3804938  55.4853690 120.4453796
 132.4774845  56.8270341 115.6370584 133.0282271  56.6987404 114.8647578
 131.6386321  57.1265230 115.2865476 139.8168962  55.5777339 119.1391306
 139.7987438  56.3986220 118.6471576 140.7388882  55.4531415 119.3641448
 136.2742016  53.0921469 119.9814815 136.8070353  52.3309757 119.7514123
 135.7456098  52.7995121 120.7238969 127.5097562  50.5215065 108.3297059
 128.3472784  50.9312074 108.1130766 127.6875830  49.5814507 108.2997253
 139.4061994  48.1890146 104.0180892 138.8908618  48.9594751 104.2569279
 139.1339303  47.5155282 104.6413953 136.9909105  43.0339847 109.0766130
 136.1350702  42.6446697 108.8971769 137.4036057  43.1131808 108.2165916
 138.5208252  40.5686190 113.4757690 138.0173047  40.5316325 112.6625495
 138.8138859  41.4778933 113.5354346 134.7651138  40.6524920 112.4823871
 135.6304134  40.4567728 112.1229761 134.8328647  40.4235271 113.4093228
 139.1948297  46.0617238 105.8440673 138.8898433  46.3763387 106.6950816
 140.1478739  46.1398658 105.8868006 137.6394729  52.2207461 107.4933627
 137.1116091  51.4860221 107.1806864 137.1382232  52.9982138 107.2473595
 142.6187575  50.4156482 112.6100673 141.9611250  51.1055743 112.6980802
 143.4227974  50.8052914 112.9534659 132.3713457  42.8827128 109.8540238
 132.9457209  42.6602309 109.1213431 132.9584439  42.9515822 110.6068840
 141.4293034  48.7700855 110.6604615 141.9424916  49.4030846 111.1626325
 142.0794258  48.1702050 110.2947975 132.6983044  44.9131589 103.8736124
 131.8620356  45.2506275 104.1945398 132.5587814  44.7780568 102.9363261
 134.6736125  39.7568377 108.5815308 134.0200537  39.4417394 107.9571923
 134.6316599  39.1344117 109.3075131 135.7847329  50.0387672 100.4968600
 134.8774391  49.8076925 100.6959749 136.2818361  49.2425291 100.6842581
 138.6915408  58.7485179 103.4165286 138.0177107  59.0516876 104.0250244
 139.0781230  59.5514259 103.0670743 137.9073865  46.2450310 112.9062955
 136.9896426  46.4665257 112.7484643 138.3234008  46.3196621 112.0474663
 138.6908913  47.6441726 108.0365636 139.4380732  48.1563123 107.7272758
 138.9600502  47.3225778 108.8970029 136.9635563  50.1400266 105.0192590
 136.0546782  49.8559299 105.1165060 136.9930647  50.5599345 104.1595897
 142.1954830  53.7506856 108.7883757 141.7417157  52.9097766 108.8448948
 141.5648797  54.3868254 109.1258538 141.1387750  44.6798842 110.0184425
 140.4010507  44.1676228 110.3494667 141.3914523  44.2399224 109.2067702
 140.6387769  55.5883353 109.7233576 140.9310744  56.1488410 109.0045941
 141.1486390  55.8811914 110.4786735 141.2399377  37.4575094 110.6126194
 141.5458254  36.5972457 110.3252109 141.9651982  38.0492714 110.4125188
 127.5323733  47.8605781 109.0007792 127.3348133  47.2675141 108.2758859
 126.9770397  47.5557991 109.7183731 135.5120457  47.7528887 111.1202385
 135.5669067  46.8002723 111.0444862 134.7011659  47.9088326 111.6043684
 136.6611651  51.6809010 102.3580668 136.2231081  50.9644869 101.8986306
 137.4022091  51.9085125 101.7965760 133.4512817  46.3705947 108.8792764
 132.6380682  46.6700117 109.2857956 133.9471811  45.9761636 109.5967246
 135.6021395  56.3663704 110.8127029 135.5597573  56.5924550 109.8835561
 136.5184094  56.1327078 110.9612830 139.0487028  46.8347771 117.7107658
 139.4036416  47.0619244 118.5702124 139.6959160  47.1666148 117.0884913
 132.9426892  43.9424302 114.4953999 133.5826271  43.8013061 113.7976962
 132.1104422  43.6558816 114.1192601 133.7187195  53.2426733 110.6088992
 134.5127794  52.7477053 110.4071566 133.0078888  52.7144596 110.2456697
 138.5382040  55.6244828 114.9601359 138.5919062  56.1935765 115.7279075
 137.6696821  55.7946713 114.5955396 130.0269959  47.3869814 106.6848744
 129.0967547  47.3254270 106.9018706 130.1227431  46.8645767 105.8885385
 129.9455508  43.9124627 109.2726986 130.2062325  44.8269961 109.1636146
 130.7672680  43.4449070 109.4223599 131.4180433  45.3262384 116.4425810
 132.0903487  45.1179747 115.7938459 130.5910220  45.1284470 116.0031043
 137.4970140  49.7905090 116.5188291 138.4262200  49.9416250 116.3457258
 137.0761170  49.8789111 115.6636938 136.2958471  53.8155755 114.2886829
 136.1569557  53.4474539 115.1612767 135.5073068  54.3303394 114.1170786
 136.8906623  58.9164851 105.6312365 137.0658379  58.4452894 106.4457988
 136.2039411  59.5430617 105.8593626 137.8463687  53.1937357 111.6775666
 137.5113519  53.1538127 112.5733316 137.3467632  52.5282073 111.2046077
 131.8207931  48.6004987 117.2028248 131.6827728  47.8685226 117.8039787
 132.7312854  48.5113888 116.9212435 140.7822878  50.5393392 101.9512726
 140.1652049  49.8140220 101.8545779 140.3139367  51.3002752 101.6079800
 134.4490231  48.3124947 116.6911927 135.1589850  47.6718139 116.6498546
 134.4059539  48.5637842 117.6138108 142.4377010  55.2492300 119.6118506
 142.3789556  54.5651520 118.9449089 142.8396528  55.9911290 119.1599132
 133.1619165  45.2990165 118.5107567 132.6256522  44.8480903 119.1629163
 132.5735874  45.4336074 117.7678031 131.4567709  62.0654214 112.4052225
 131.6964307  62.6972738 113.0831244 130.6136905  61.7142254 112.6917585
 132.5721424  44.7578816 101.0734030 131.6950890  44.6367617 100.7096277
 133.0479177  43.9664894 100.8212919 142.4394417  53.2131884 117.8432486
 141.5521196  52.8757806 117.9658885 143.0092968  52.4814915 118.0801251
 124.0923564  49.5455976 111.1675537 124.7794604  49.2317706 110.5796553
 123.9371693  50.4497340 110.8942789 128.8958286  44.4346172 115.5960561
 128.8116475  43.8271842 114.8610971 128.0740993  44.9255191 115.5970058
 135.9695571  57.8733336 114.8093729 135.8965742  58.6788308 115.3213034
 135.5272964  58.0725302 113.9841751 135.7585350  57.1105106 108.3196551
 134.9752872  57.6526787 108.4134775 136.4578095  57.6279086 108.7190792
 139.0682000  42.9199736 110.9630756 139.5650700  42.1669698 110.6431826
 138.2968982  42.9564053 110.3973966 138.4294254  57.7720170 116.9651888
 139.1422226  58.4067635 116.8927789 137.9384283  57.8684036 116.1491890
 140.1511781  51.6771423 108.5369180 139.2168060  51.7972886 108.3673884
 140.3288449  50.7743890 108.2729189 135.6516969  45.0617119 110.6902441
 135.2814757  44.5088159 111.3783346 136.1476061  44.4575252 110.1377441
 133.4806168  55.5214614 117.7857459 134.1815627  56.1551097 117.9386853
 133.0101283  55.8629345 117.0253098 141.6060563  53.8632564 106.0705366
 141.8820407  53.7489158 106.9799240 140.7365062  53.4650049 106.0317539
 141.2807454  48.0759221 115.6110009 140.6278904  48.3235129 114.9562462
 141.6587833  47.2623360 115.2772486 138.2414627  58.1118915 109.7138179
 138.4237022  57.2940570 110.1765932 139.0647613  58.3286607 109.2763069
 138.5756793  57.0387100 106.9753228 139.1044559  56.5279554 106.3623390
 138.8385013  56.7229630 107.8398761 129.0773886  55.0550969 114.7188561
 129.6627322  54.3094657 114.8516466 128.8798724  55.3654926 115.6025225
 131.9312541  58.0902216 109.7351004 131.2622916  58.5748344 109.2515044
 131.7925411  58.3371437 110.6494382 123.6691540  47.6256569 113.4393005
 123.7075640  47.0920160 114.2330123 123.1631833  47.0991775 112.8203982
 136.0717809  60.1245960 116.3333662 136.6236117  60.2877581 117.0982747
 136.4124003  60.7150398 115.6613687 131.0482303  42.4721110 116.9355547
 131.1123629  43.3335941 116.5232945 130.9849423  41.8595111 116.2027905
 130.5234575  44.5444242 120.5828581 131.1506614  44.1621320 121.1966105
 129.6662494  44.3258444 120.9484274 140.9228684  54.9507217 122.1882317
 141.4668588  55.5637176 121.6937271 140.3415529  55.5086796 122.7049330
 127.3000118  46.3520671 106.5146936 127.5953559  45.4431350 106.4613990
 126.3988154  46.3308411 106.1927938 139.2086197  58.0727935 113.3197344
 139.0837336  57.2717675 112.8108290 139.8665288  58.5674129 112.8311314
 130.8294365  44.4276668 112.4974485 130.1080951  45.0412636 112.3581958
 131.6187621  44.9634433 112.4191131 141.2721105  55.8736955 114.9476894
 140.3251441  55.7542307 114.8755221 141.6203878  54.9859454 115.0303156
 133.6320678  41.7631094 118.7715136 134.1555080  42.0093391 119.5341446
 133.4133012  42.5951129 118.3518274 129.0287960  44.0334769 106.6386261
 128.7000666  43.1532148 106.4561367 129.3827330  43.9782438 107.5262650
 138.2767538  55.6689672 111.1481247 138.1292501  54.7406379 111.3288817
 139.1021032  55.6909762 110.6638322 132.1429783  44.3207739 107.0061739
 132.4825855  44.8493660 106.2840347 132.5901903  44.6588145 107.7820305
 141.8801660  56.4918230 112.2346119 142.8048208  56.2861092 112.0970571
 141.7116964  56.2434632 113.1435461 134.8373224  42.7044790 116.4564807
 134.4970044  41.9052603 116.8585487 134.1312230  43.0046500 115.8841640
 135.4889695  39.7894102 114.9092130 136.3115765  39.3154580 114.7871020
 135.7327759  40.5684586 115.4090816 134.1297930  42.8182360 105.2055032
 134.8506292  43.1963613 104.7018748 133.5063234  43.5371237 105.3090010
 138.2729053  43.5227509 106.1413364 138.4892667  44.4052147 105.8402192
 137.7923120  43.1313723 105.4119006 133.0128274  46.4813223 112.7184109
 132.8672855  46.7953526 113.6108390 132.5353478  47.0998123 112.1655007
 134.8724657  43.4715771 112.7664998 134.8586226  42.5756864 112.4297296
 135.5897085  43.4786434 113.4003284 136.7250788  43.9053111 114.8118126
 136.4668566  44.8270181 114.8102456 136.1935828  43.5083545 115.5018590
 141.6696976  57.0103898 107.5908211 141.8433854  56.4450320 106.8382063
 142.1625868  57.8104793 107.4087701 127.4873936  49.0218567 115.6571770
 126.9427404  49.7978375 115.7892044 128.3653286  49.3689371 115.4990891
 134.2761553  42.3530151 108.0352568 134.3977464  41.4246797 108.2343456
 133.9863595  42.3668837 107.1230884 137.1452743  40.0385061 111.1719288
 137.1674440  40.1024394 110.2171268 137.5620802  39.1989570 111.3659794
 142.6572149  56.3270662 104.6905109 143.3523054  56.9477355 104.9092424
 142.9995299  55.4766014 104.9657487 128.2739958  48.1488463 118.5501927
 127.5321694  48.2971099 119.1366557 127.9532702  48.4096729 117.6868676
 136.2183621  57.6904441 118.3482317 136.5270747  57.4453588 119.2205016
 137.0159103  57.8951080 117.8601187 136.2404233  59.8442351 110.5787693
 135.8009223  59.3518730 111.2720550 136.9912350  59.3015319 110.3379768
 128.7196572  56.0353892 110.5812321 129.5454592  55.7357664 110.2010965
 128.3690624  55.2661514 111.0302110 133.6878105  55.3880360 112.6509995
 133.0658114  54.7251065 112.3512223 134.3582972  55.4141492 111.9683643
 126.9205177  53.9540218 111.5401255 126.0837085  53.5262393 111.3585256
 126.8928822  54.1472662 112.4772046 133.2491612  53.9384284 106.1268455
 133.3979732  54.6219748 105.4735128 134.0558055  53.9189374 106.6417911
 135.9901921  44.6193521 118.9988859 135.1205230  44.9127087 118.7271448
 136.2261401  45.2033966 119.7196123 131.0044245  49.9649461 107.1329524
 130.7590287  49.0611791 107.3309734 131.1740159  49.9666612 106.1909002
 130.2739892  45.6977819 104.6315686 129.5809137  45.7722174 103.9755722
 130.0291644  44.9338162 105.1537203 138.9453549  37.2573420 112.0355176
 139.2255303  36.5896609 112.6615603 139.7304156  37.4502516 111.5229840
 136.7487017  56.4332414 103.5980203 136.1760985  57.0522601 103.1450675
 137.3219811  56.9831776 104.1320125 139.9684277  56.7169564 104.7288785
 140.9014950  56.6515126 104.9321661 139.8807490  57.5525831 104.2703318
 142.5972294  56.0335434 101.6892733 142.5185925  55.6995298 102.5828491
 143.4181961  56.5257202 101.6884205 137.1333816  47.7693227 100.9396255
 138.0792921  47.6399435 101.0084673 136.7548061  47.0307889 101.4165683
 137.0172508  51.8210973 122.3996912 137.9375518  51.9989572 122.5936959
 136.9822091  50.8767018 122.2476612 135.3176733  45.6943203 100.8751140
 134.4108188  45.3976316 100.9513854 135.5952714  45.3973021 100.0085427
 126.2354673  47.0149567 111.3250187 125.9157458  46.1614875 111.0324561
 125.6888102  47.2298145 112.0808154 130.0134581  49.7312008 115.0419693
 130.2320591  50.6629115 115.0607727 130.4260355  49.3719982 115.8274497
 136.9338799  40.2380093 107.0295382 136.1239527  39.8927178 107.4050628
 137.6223216  39.9287637 107.6182993 138.8629347  39.3158140 108.6519678
 139.4160386  39.7353593 109.3109702 139.0999433  38.3893888 108.6942634
 134.0875518  42.5530138 101.0163120 134.9494682  42.8785037 101.2758937
 134.2725862  41.7661634 100.5036185 126.1042933  50.6352478 113.2943308
 125.4106405  50.2206431 112.7813263 126.8515924  50.6773015 112.6976727
 142.2408154  41.4258665 108.1598343 141.6606823  42.0843469 107.7776395
 141.9744087  40.6036009 107.7485760 140.6911721  40.8263722 110.3619663
 141.1911499  40.9380257 109.5533982 141.3347328  40.5224775 111.0020471
 134.7493716  48.7342352 123.2487504 134.2660798  49.5342712 123.4551393
 134.8354655  48.7450297 122.2954948 128.0179676  50.5670732 111.1709323
 127.9950364  50.6658419 110.2191206 128.3280312  51.4135883 111.4926489
 130.6767054  52.6246887 115.2855938 131.6310307  52.5930829 115.2185869
 130.4779577  52.1637511 116.1006164 131.2666436  51.1948003 117.8526735
 132.0859325  51.6892082 117.8761573 131.5403244  50.2779971 117.8244303
 141.0233032  43.5858755 107.2154691 140.1358887  43.8708406 106.9974886
 141.4387021  43.4252519 106.3681968 129.0317283  58.1666506 112.3026136
 128.8971751  57.4066907 111.7364134 128.6149345  58.8907406 111.8354925
 140.1676246  53.3503430 101.3102711 140.8712096  53.5553432 101.9260367
 139.4438894  53.9180192 101.5751794 140.9974056  49.1013291 107.4304981
 140.9409257  49.5581843 106.5912614 141.5502398  48.3403976 107.2527824
 132.1886409  59.0635823 112.5144578 132.0718793  60.0081256 112.4123269
 131.3678855  58.7609385 112.9030377 142.0762943  53.7885959 103.3601171
 142.9108547  53.3567158 103.1778646 141.9147286  53.6167973 104.2878065
 141.7308835  50.2918072 104.7257510 141.6757639  50.1262344 103.7845954
 141.1054891  50.9994105 104.8819700 126.5201350  45.5286137 118.5518932
 127.1660214  45.0185091 119.0406158 126.3118501  46.2654818 119.1262358
 135.0404961  39.7926181 104.3042829 135.0283631  40.7368021 104.4611100
 135.9328383  39.6096327 104.0102290 133.2140923  59.7164085 115.7300507
 134.1168169  59.7487695 116.0467002 132.9878293  58.7864536 115.7446842
 134.9694525  58.4695072 112.3910585 134.0190156  58.4696933 112.2774958
 135.2727011  57.7227806 111.8746620 138.8557080  36.3868958 108.5588765
 138.0889476  35.8327445 108.7045448 139.2667785  36.4590827 109.4202917
 130.8598841  42.6753754 122.6493947 131.7230303  42.3190559 122.8597271
 130.2864252  42.3367649 123.3369351 143.3723740  66.1118515 109.3814763
 142.8088605  66.0208452 108.6131051 143.2576135  65.2918419 109.8617256
 140.9188172  67.6069706 112.2198984 141.7109464  67.2660531 111.8045283
 141.1584822  67.7164681 113.1401137 143.1266335  64.3330214 111.3269760
 142.2016832  64.2006428 111.5347452 143.3750748  65.1124433 111.8239702
 140.4875146  63.9763488 112.1613549 140.6167527  64.2297967 113.0752961
 139.8072597  64.5691196 111.8418204 139.4344572  61.4485501 112.2064591
 138.6443626  61.7043029 111.7304702 139.9255819  62.2633839 112.3116632
 141.3859317  61.8130080 109.1648068 140.5890480  61.9248774 109.6831564
 141.1584909  62.1516732 108.2988959 137.7182275  61.7015991 114.6379582
 137.9690313  62.5863001 114.9037158 138.2541823  61.5220593 113.8654674
 140.3842400  67.5218329 107.5537488 140.8966920  68.3161579 107.7043053
 141.0365113  66.8244619 107.4871090 142.1937284  70.6384085 109.6360241
 142.3703913  71.5602050 109.4481225 142.9894118  70.3242504 110.0654621
 141.4789641  62.6848717 119.5122405 141.3643156  61.7833974 119.8129503
 140.6234159  62.9312414 119.1607221 138.3491317  65.8506983 108.3297059
 139.1866539  66.2603991 108.1130766 138.5269584  64.9106425 108.2997253
 138.3717488  63.1897698 109.0007792 138.1741887  62.5967059 108.2758859
 137.8164152  62.8849908 109.7183731 140.8663713  62.7161732 106.6848744
 139.9361301  62.6546188 106.9018706 140.9621185  62.1937685 105.8885385
 140.7849262  59.2416545 109.2726986 141.0456080  60.1561878 109.1636146
 141.6066435  58.7740988 109.4223599 142.2574188  60.6554302 116.4425810
 142.9297241  60.4471664 115.7938459 141.4303974  60.4576388 116.0031043
 142.2961463  77.3946132 112.4052225 142.5358061  78.0264656 113.0831244
 141.4530660  77.0434172 112.6917585 134.9317319  64.8747893 111.1675537
 135.6188359  64.5609624 110.5796553 134.7765447  65.7789258 110.8942789
 139.7352041  59.7638090 115.5960561 139.6510230  59.1563760 114.8610971
 138.9134747  60.2547108 115.5970058 139.9167640  70.3842887 114.7188561
 140.5021077  69.6386575 114.8516466 139.7192479  70.6946843 115.6025225
 142.7706295  73.4194134 109.7351004 142.1016671  73.9040262 109.2515044
 142.6319165  73.6663354 110.6494382 134.5085295  62.9548487 113.4393005
 134.5469394  62.4212078 114.2330123 134.0025588  62.4283692 112.8203982
 141.8876057  57.8013027 116.9355547 141.9517384  58.6627858 116.5232945
 141.8243177  57.1887029 116.2027905 141.3628330  59.8736160 120.5828581
 141.9900369  59.4913237 121.1966105 140.5056249  59.6550362 120.9484274
 138.1393872  61.6812589 106.5146936 138.4347314  60.7723267 106.4613990
 137.2381908  61.6600328 106.1927938 141.6688119  59.7568586 112.4974485
 140.9474705  60.3704553 112.3581958 142.4581375  60.2926350 112.4191131
 139.8681714  59.3626687 106.6386261 139.5394420  58.4824066 106.4561367
 140.2221085  59.3074355 107.5262650 142.9823537  59.6499656 107.0061739
 143.3219610  60.1785578 106.2840347 143.4295658  59.9880063 107.7820305
 138.3267691  64.3510485 115.6571770 137.7821159  65.1270293 115.7892044
 139.2047041  64.6981289 115.4990891 139.1133713  63.4780381 118.5501927
 138.3715449  63.6263016 119.1366557 138.7926457  63.7388647 117.6868676
 139.5590326  71.3645810 110.5812321 140.3848346  71.0649581 110.2010965
 139.2084378  70.5953432 111.0302110 137.7598931  69.2832136 111.5401255
 136.9230840  68.8554310 111.3585256 137.7322577  69.4764579 112.4772046
 141.8437999  65.2941379 107.1329524 141.5984041  64.3903709 107.3309734
 142.0133914  65.2958529 106.1909002 141.1133647  61.0269736 104.6315686
 140.4202892  61.1014091 103.9755722 140.8685399  60.2630080 105.1537203
 137.0748428  62.3441484 111.3250187 136.7551212  61.4906792 111.0324561
 136.5281856  62.5590062 112.0808154 140.8528335  65.0603925 115.0419693
 141.0714345  65.9921033 115.0607727 141.2654109  64.7011900 115.8274497
 136.9436688  65.9644396 113.2943308 136.2500159  65.5498348 112.7813263
 137.6909679  66.0064932 112.6976727 138.8573430  65.8962649 111.1709323
 138.8344119  65.9950337 110.2191206 139.1674067  66.7427800 111.4926489
 141.5160808  67.9538804 115.2855938 142.4704062  67.9222747 115.2185869
 141.3173332  67.4929428 116.1006164 142.1060190  66.5239921 117.8526735
 142.9253079  67.0183999 117.8761573 142.3796998  65.6071889 117.8244303
 139.8711037  73.4958424 112.3026136 139.7365505  72.7358825 111.7364134
 139.4543099  74.2199324 111.8354925 143.0280163  74.3927741 112.5144578
 142.9112547  75.3373173 112.4123269 142.2072609  74.0901303 112.9030377
 137.3595105  60.8578054 118.5518932 138.0053968  60.3477008 119.0406158
 137.1512256  61.5946736 119.1262358 141.6992596  58.0045671 122.6493947
 142.5624057  57.6482476 122.8597271 141.1258006  57.6659566 123.3369351
 119.2400664  13.9547994  98.9444290 120.0321956  13.6138818  98.5290590
 119.4797315  14.0642969  99.8646444 127.2735791  16.1267770  91.4174535
 126.6223771  16.7121850  91.0308549 128.0680154  16.6573965  91.4769572
 123.0376461  14.5433289 105.0228569 122.7466327  15.4478920 104.9075235
 123.6733445  14.5849817 105.7372638 122.9787126  20.9939025  94.9849330
 122.9011155  21.9446850  95.0637811 122.3748769  20.6484897  95.6424256
 125.2525495  16.3521178  93.7054870 125.1171169  17.1972714  94.1339717
 125.7935307  16.5540455  92.9420803 118.7054892  13.8696616  94.2782795
 119.2179413  14.6639866  94.4288359 119.3577605  13.1722906  94.2116396
 120.5149777  16.9862372  96.3605548 120.6916405  17.9080337  96.1726532
 121.3106610  16.6720791  96.7899928 126.8793971  16.9744744 107.8355212
 126.4357825  16.1881123 107.5176116 127.5411185  17.1623895 107.1699103
 121.6381092  18.5040546 102.3615890 122.1888517  18.3757609 101.5892884
 120.7992568  18.8035435 102.0110783 128.9775209  17.2547544 105.8636613
 128.9593684  18.0756425 105.3716882 129.8995129  17.1301620 106.0886754
 127.8521655  20.4255384  90.1410593 127.1783354  20.7287080  90.7495550
 128.2387477  21.2284464  89.7916050 129.7994016  17.2653558  96.4478882
 130.0916991  17.8258615  95.7291248 130.3092637  17.5582119  97.2032041
 124.7627641  18.0433909  97.5372335 124.7203820  18.2694755  96.6080867
 125.6790340  17.8097283  97.6858137 127.6988287  17.3015033 101.6846666
 127.7525309  17.8705970 102.4524382 126.8303068  17.4716918 101.3200703
 125.4564718  15.4925960 101.0132135 125.3175804  15.1244744 101.8858073
 124.6679314  16.0073599 100.8416093 126.0512870  20.5935056  92.3557672
 126.2264626  20.1223099  93.1703294 125.3645658  21.2200822  92.5838933
 120.6173955  23.7424419  99.1297532 120.8570554  24.3742943  99.8076551
 119.7743152  23.3912459  99.4162891 125.1301817  19.5503541 101.5339036
 125.0571989  20.3558513 102.0458340 124.6879210  19.7495507 100.7087057
 124.9191597  18.7875311  95.0441857 124.1359119  19.3296992  95.1380082
 125.6184342  19.3049291  95.4436099 127.5900501  19.4490375 103.6897195
 128.3028473  20.0837840 103.6173096 127.0990529  19.5454241 102.8737196
 122.6412414  17.1984819 104.5102765 123.3421874  17.8321302 104.6632160
 122.1707529  17.5399550 103.7498405 127.4020874  19.7889119  96.4383486
 127.5843269  18.9710775  96.9011238 128.2253860  20.0056812  96.0008376
 127.7363040  18.7157305  93.6998535 128.2650806  18.2049759  93.0868697
 127.9991259  18.3999835  94.5644068 118.2380132  16.7321174 101.4433868
 118.8233569  15.9864862 101.5761772 118.0404971  17.0425131 102.3270532
 121.0918788  19.7672421  96.4596310 120.4229163  20.2518549  95.9760351
 120.9531657  20.0141642  97.3739689 125.2324056  21.8016165 103.0578969
 125.7842364  21.9647786 103.8228054 125.5730250  22.3920603 102.3858994
 128.3692444  19.7498140 100.0442651 128.2443583  18.9487880  99.5353596
 129.0271535  20.2444334  99.5556621 127.4373785  17.3459877  97.8726553
 127.2898748  16.4176584  98.0534123 128.2627279  17.3679967  97.3883629
 131.0407907  18.1688435  98.9591426 131.9654455  17.9631297  98.8215877
 130.8723210  17.9204837  99.8680768 130.8303223  18.6874103  94.3153518
 131.0040101  18.1220525  93.5627370 131.3232114  19.4874998  94.1333007
 125.3789868  19.3674646 105.0727623 125.6876994  19.1223793 105.9450323
 126.1765350  19.5721285 104.5846493 125.4010480  21.5212556  97.3033000
 124.9615470  21.0288935  97.9965856 126.1518597  20.9785524  97.0625075
 117.8802819  17.7124097  97.3057628 118.7060838  17.4127869  96.9256271
 117.5296871  16.9431719  97.7547417 122.8484352  17.0650565  99.3755301
 122.2264361  16.4021270  99.0757529 123.5189219  17.0911697  98.6928949
 116.0811424  15.6310423  98.2646561 115.2443332  15.2032598  98.0830563
 116.0535069  15.8242867  99.2017353 122.4097859  15.6154488  92.8513762
 122.5585979  16.2989953  92.1980435 123.2164302  15.5959579  93.3663218
 125.9093264  18.1102619  90.3225509 125.3367231  18.7292806  89.8695981
 126.4826058  18.6601981  90.8565431 129.1290524  18.3939769  91.4534092
 130.0621197  18.3285331  91.6566967 129.0413737  19.2296036  90.9948624
 131.7578541  17.7105639  88.4138039 131.6792172  17.3765503  89.3073797
 132.5788207  18.2027407  88.4129512 115.2649180  12.3122683 100.0188615
 114.5712652  11.8976636  99.5058570 116.0122171  12.3543219  99.4222034
 117.1785923  12.2440937  97.8954630 117.1556611  12.3428624  96.9436513
 117.4886559  13.0906088  98.2171796 119.8373301  14.3017092 102.0101244
 120.7916554  14.2701034 101.9431176 119.6385824  13.8407715 102.8251470
 118.1923529  19.8436711  99.0271442 118.0577997  19.0837112  98.4609440
 117.7755592  20.5677611  98.5600231 121.3492655  20.7406028  99.2389885
 121.2325039  21.6851461  99.1368575 120.5285102  20.4379590  99.6275684
 122.3747169  21.3934290 102.4545813 123.2774416  21.4257900 102.7712308
 122.1484539  20.4634741 102.4692149 124.1300771  20.1465277  99.1155892
 123.1796402  20.1467138  99.0020264 124.4333258  19.3998011  98.5991927
 139.8653465  25.9825815 100.1801654 140.5031875  25.8632562  99.4764994
 139.7474308  26.9306659 100.2389607 136.6743171  25.9353243 100.1163179
 136.3361683  25.8194308  99.2283714 137.5432939  25.5344408 100.0964185
 132.5329987  27.7888720  96.1060070 131.9694852  27.6978657  95.3376358
 132.4182382  26.9688624  96.5862563 137.1562954  27.0888095 106.0749385
 137.1451595  26.6940893 105.2029888 137.3183594  26.3554168 106.6683156
 130.0794419  29.2839911  98.9444290 130.8715711  28.9430736  98.5290590
 130.3191069  29.3934886  99.8646444 138.1129546  31.4559687  91.4174535
 137.4617525  32.0413768  91.0308549 138.9073908  31.9865882  91.4769572
 132.0385173  28.5448824  91.8161669 132.8116049  27.9977812  91.6774545
 132.3910572  29.4093074  92.0276131 133.8770215  29.8725207 105.0228569
 133.5860081  30.7770838 104.9075235 134.5127200  29.9141734 105.7372638
 134.8026422  27.2502055 101.6129928 135.3989994  27.0258078 100.8986891
 134.8601394  26.5086801 102.2155376 134.3751451  24.7041491  89.4480119
 134.6276971  24.1823012  88.6863582 133.4376010  24.5407636  89.5506803
 139.4194733  23.7077269  97.2554862 140.2057823  23.2896692  96.9045279
 139.6833438  24.6123361  97.4236511 139.5904811  29.1450119  91.9543519
 138.9550644  29.2184746  92.6664424 139.2602217  29.7343718  91.2762598
 134.0947739  26.6069597  91.6504494 133.9783997  25.9314500  92.3185578
 134.2049999  26.1201970  90.8336647 136.4379280  26.0679744  95.3551183
 136.0737487  25.5410365  96.0664105 137.2946396  25.6778213  95.1817669
 136.0784767  21.0969643  90.3512532 136.2459170  21.9649880  90.7183003
 135.8881936  21.2596925  89.4273821 138.8360100  29.5586622 102.0178362
 138.5360824  30.4611661 101.9094169 138.4911160  29.2918805 102.8699515
 132.2872582  26.0100419  98.0515067 131.3623078  25.8776633  98.2592758
 132.5356995  26.7894638  98.5485009 142.2357244  22.0769162  99.6975800
 141.3274122  22.0084571  99.4034561 142.1844840  22.5541107 100.5257625
 136.0573988  23.5527301  91.3359199 135.9373613  23.9984352  92.1744679
 135.3626576  23.9012618  90.7772737 129.6481393  25.6533693  98.8858856
 129.7773774  25.9068172  99.7998267 128.9678844  26.2461401  98.5663511
 133.8180880  36.3230943  94.9849330 133.7404910  37.2738768  95.0637811
 133.2142524  35.9776815  95.6424256 136.3098110  23.4958808 107.6410697
 135.5331444  24.0552728 107.6313561 136.9488673  23.9815591 108.1625567
 141.7559054  24.0248774  92.1639533 142.6676910  24.2576161  91.9887230
 141.2468701  24.6085818  91.6014611 134.5644482  26.3044261 107.2028664
 135.3059167  26.8429305 106.9263487 133.8581468  26.9310550 107.3600216
 140.0399822  28.4473402 105.8000825 140.4483178  28.0055812 105.0555458
 139.3177083  27.8726029 106.0535018 136.3930892  23.3846009 103.1734382
 137.2392087  23.8085422 103.3169031 136.3329530  22.7279633 103.8672945
 140.3628637  29.0074592  99.5553114 139.7337499  29.1720307  98.8529182
 139.9754299  29.4216202 100.3264078 141.4968800  27.5888989 103.5092822
 141.7085695  28.2320749 102.8327203 141.4498548  26.7551306 103.0414752
 139.0995029  20.2006810 100.4129394 138.2379508  20.4988064 100.7046131
 139.1257464  20.4177209  99.4810426 135.9156598  28.7449001  96.8203199
 136.3794944  29.0236704  96.0307822 135.6513397  27.8432445  96.6376290
 132.8080680  28.2920482  99.7582963 133.3782037  28.7207750  99.1200447
 133.3988791  28.0103067 100.4567148 134.8525485  24.8672153  93.6292764
 135.5549528  25.3193197  94.0966691 134.5206113  24.2255972  94.2572658
 133.3005846  23.4583910 108.0043974 132.6704507  24.1400190 108.2379371
 133.1941934  23.3466991 107.0597112 128.5950818  23.1255706  98.9309898
 127.8049872  23.3813234  98.4550009 129.0862066  23.9404043  99.0361939
 142.6114628  30.4660945 101.6815179 143.4332072  30.0641132 101.3997860
 142.6077031  30.3629179 102.6331295 130.5465564  23.4900285  95.8893375
 129.7496727  23.6018979  96.4076870 130.3191156  23.8286937  95.0234265
 136.3771231  30.0144988 103.8375889 136.4415664  30.4765395 104.6734061
 135.6682155  29.3842353 103.9658199 126.8788521  23.3786196 101.3624889
 127.1296560  24.2633206 101.6282465 127.4148070  23.1990798 100.5899981
 136.0919249  31.6813096  93.7054870 135.9564924  32.5264631  94.1339717
 136.6329062  31.8832373  92.9420803 129.5448647  29.1988534  94.2782795
 130.0573167  29.9931784  94.4288359 130.1971359  28.5014824  94.2116396
 131.3543531  32.3154290  96.3605548 131.5310160  33.2372255  96.1726532
 132.1500365  32.0012709  96.7899928 130.6395888  24.3618922 106.2367711
 130.5249403  23.4604179 106.5374810 129.7840406  24.6082618 105.8852528
 137.7187726  32.3036662 107.8355212 137.2751580  31.5173041 107.5176116
 138.3804939  32.4915813 107.1699103 132.4774847  33.8332464 102.3615890
 133.0282272  33.7049527 101.5892884 131.6386323  34.1327353 102.0110783
 139.8168964  32.5839462 105.8636613 139.7987439  33.4048343 105.3716882
 140.7388884  32.4593537 106.0886754 136.2742018  30.0983591 106.7060121
 136.8070355  29.3371880 106.4759429 135.7456099  29.8057243 107.4484276
 127.5097563  27.5277188  95.0542365 128.3472785  27.9374196  94.8376073
 127.6875831  26.5876630  95.0242559 139.4061995  25.1952269  90.7426198
 138.8908619  25.9656873  90.9814586 139.1339304  24.5217405  91.3659260
 136.9909106  20.0401969  95.8011437 136.1350703  19.6508820  95.6217075
 137.4036058  20.1193930  94.9411222 139.1948299  23.0679361  92.5685979
 138.8898434  23.3825510  93.4196123 140.1478741  23.1460781  92.6113312
 137.6394730  29.2269584  94.2178933 137.1116092  28.4922344  93.9052171
 137.1382233  30.0044260  93.9718902 142.6187576  27.4218604  99.3345980
 141.9611251  28.1117866  99.4226108 143.4227976  27.8115036  99.6779966
 132.3713458  19.8889250  96.5785545 132.9457210  19.6664432  95.8458738
 132.9584440  19.9577945  97.3314146 141.4293035  25.7762977  97.3849921
 141.9424917  26.4092969  97.8871631 142.0794259  25.1764173  97.0193281
 132.6983045  21.9193711  90.5981430 131.8620357  22.2568398  90.9190705
 132.5587815  21.7842691  89.6608567 135.7847331  27.0449794  87.2213906
 134.8774392  26.8139048  87.4205055 136.2818363  26.2487413  87.4087888
 138.6915410  35.7547301  90.1410593 138.0177108  36.0578998  90.7495550
 139.0781231  36.5576382  89.7916050 137.9073866  23.2512433  99.6308262
 136.9896427  23.4727380  99.4729950 138.3234010  23.3258743  98.7719969
 138.6908914  24.6503848  94.7610942 139.4380733  25.1625246  94.4518064
 138.9600503  24.3287901  95.6215336 136.9635564  27.1462389  91.7437897
 136.0546783  26.8621422  91.8410366 136.9930648  27.5661468  90.8841203
 142.1954831  30.7568979  95.5129064 141.7417159  29.9159888  95.5694255
 141.5648798  31.3930377  95.8503844 141.1387751  21.6860965  96.7429732
 140.4010508  21.1738351  97.0739974 141.3914525  21.2461346  95.9313008
 140.6387771  32.5945475  96.4478882 140.9310745  33.1550532  95.7291248
 141.1486391  32.8874036  97.2032041 127.5323734  24.8667903  95.7253099
 127.3348134  24.2737264  95.0004165 126.9770398  24.5620113  96.4429038
 135.5120458  24.7591010  97.8447692 135.5669068  23.8064846  97.7690168
 134.7011660  24.9150449  98.3288990 136.6611652  28.6871133  89.0825975
 136.2231082  27.9706992  88.6231612 137.4022093  28.9147248  88.5211067
 133.4512818  23.3768069  95.6038071 132.6380684  23.6762240  96.0103263
 133.9471812  22.9823758  96.3212553 135.6021396  33.3725826  97.5372335
 135.5597575  33.5986673  96.6080867 136.5184095  33.1389201  97.6858137
 139.0487030  23.8409894 104.4352965 139.4036417  24.0681367 105.2947430
 139.6959161  24.1728271 103.8130220 132.9426893  20.9486425 101.2199306
 133.5826272  20.8075184 100.5222269 132.1104423  20.6620938 100.8437908
 133.7187197  30.2488855  97.3334298 134.5127795  29.7539175  97.1316873
 133.0078889  29.7206718  96.9702004 138.5382041  32.6306951 101.6846666
 138.5919063  33.1997887 102.4524382 137.6696823  32.8008836 101.3200703
 130.0269960  24.3931937  93.4094051 129.0967548  24.3316393  93.6264013
 130.1227432  23.8707890  92.6130692 129.9455509  20.9186750  95.9972293
 130.2062326  21.8332083  95.8881453 130.7672682  20.4511192  96.1468905
 131.4180435  22.3324507 103.1671117 132.0903488  22.1241869 102.5183766
 130.5910221  22.1346593 102.7276349 137.4970141  26.7967213 103.2433598
 138.4262201  26.9478373 103.0702565 137.0761171  26.8851234 102.3882244
 136.2958473  30.8217877 101.0132135 136.1569558  30.4536662 101.8858073
 135.5073069  31.3365517 100.8416093 136.8906625  35.9226974  92.3557672
 137.0658380  35.4515017  93.1703294 136.2039413  36.5492740  92.5838933
 137.8463688  30.1999480  98.4020973 137.5113520  30.1600250  99.2978623
 137.3467634  29.5344196  97.9291383 131.8207932  25.6067110 103.9273554
 131.6827730  24.8747349 104.5285093 132.7312855  25.5176010 103.6457742
 140.7822879  27.5455514  88.6758033 140.1652050  26.8202343  88.5791085
 140.3139368  28.3064875  88.3325107 134.4490232  25.3187069 103.4157234
 135.1589851  24.6780262 103.3743852 134.4059541  25.5699964 104.3383415
 142.4377011  32.2554423 106.3363813 142.3789557  31.5713643 105.6694396
 142.8396530  32.9973413 105.8844439 133.1619166  22.3052287 105.2352873
 132.6256523  21.8543026 105.8874470 132.5735875  22.4398196 104.4923338
 131.4567710  39.0716337  99.1297532 131.6964308  39.7034861  99.8076551
 130.6136906  38.7204377  99.4162891 132.5721425  21.7640939  87.7979337
 131.6950892  21.6429739  87.4341584 133.0479178  20.9727017  87.5458226
 142.4394418  30.2194007 104.5677793 141.5521197  29.8819928 104.6904192
 143.0092969  29.4877038 104.8046558 124.0923566  26.5518098  97.8920844
 124.7794605  26.2379828  97.3041859 123.9371694  27.4559463  97.6188096
 128.8958288  21.4408295 102.3205868 128.8116476  20.8333965 101.5856278
 128.0740994  21.9317313 102.3215364 135.9695572  34.8795459 101.5339036
 135.8965743  35.6850431 102.0458340 135.5272965  35.0787425 100.7087057
 135.7585351  34.1167229  95.0441857 134.9752873  34.6588909  95.1380082
 136.4578097  34.6341209  95.4436099 138.4294255  34.7782293 103.6897195
 139.1422228  35.4129758 103.6173096 137.9384284  34.8746159 102.8737196
 140.1511782  28.6833546  95.2614486 139.2168061  28.8035008  95.0919191
 140.3288451  27.7806012  94.9974496 135.6516970  22.0679241  97.4147747
 135.2814758  21.5150282  98.1028653 136.1476063  21.4637375  96.8622748
 133.4806169  32.5276737 104.5102765 134.1815628  33.1613219 104.6632160
 133.0101284  32.8691468 103.7498405 141.6060565  30.8694686  92.7950672
 141.8820409  30.7551281  93.7044547 140.7365063  30.4712171  92.7562846
 141.2807455  25.0821344 102.3355316 140.6278905  25.3297251 101.6807769
 141.6587835  24.2685482 102.0017793 138.2414629  35.1181037  96.4383486
 138.4237023  34.3002693  96.9011238 139.0647615  35.3348729  96.0008376
 138.5756794  34.0449222  93.6998535 139.1044561  33.5341677  93.0868697
 138.8385014  33.7291752  94.5644068 129.0773887  32.0613092 101.4433868
 129.6627324  31.3156779 101.5761772 128.8798725  32.3717048 102.3270532
 131.9312542  35.0964339  96.4596310 131.2622917  35.5810467  95.9760351
 131.7925412  35.3433559  97.3739689 123.6691542  24.6318692 100.1638311
 123.7075641  24.0982282 100.9575429 123.1631834  24.1053897  99.5449288
 136.0717811  37.1308082 103.0578969 136.6236119  37.2939704 103.8228054
 136.4124004  37.7212520 102.3858994 131.0482304  19.4783232 103.6600854
 131.1123630  20.3398063 103.2478251 130.9849424  18.8657234 102.9273212
 130.5234576  21.5506365 107.3073888 131.1506615  21.1683442 107.9211412
 129.6662495  21.3320567 107.6729580 140.9228685  31.9569340 108.9127623
 141.4668589  32.5699298 108.4182578 140.3415530  32.5148918 109.4294636
 127.3000119  23.3582794  93.2392243 127.5953560  22.4493472  93.1859296
 126.3988155  23.3370533  92.9173245 139.2086198  35.0790058 100.0442651
 139.0837337  34.2779798  99.5353596 139.8665289  35.5736251  99.5556621
 130.8294366  21.4338790  99.2219791 130.1080952  22.0474758  99.0827265
 131.6187622  21.9696555  99.1436437 141.2721106  32.8799078 101.6722201
 140.3251442  32.7604429 101.6000528 141.6203879  31.9921576 101.7548463
 133.6320680  18.7693217 105.4960443 134.1555082  19.0155514 106.2586752
 133.4133013  19.6013252 105.0763580 129.0287961  21.0396892  93.3631568
 128.7000667  20.1594271  93.1806674 129.3827332  20.9844560  94.2507957
 138.2767540  32.6751794  97.8726553 138.1292502  31.7468502  98.0534123
 139.1021033  32.6971885  97.3883629 132.1429784  21.3269861  93.7307045
 132.4825856  21.8555783  93.0085654 132.5901904  21.6650267  94.5065612
 141.8801662  33.4980353  98.9591426 142.8048209  33.2923214  98.8215877
 141.7116965  33.2496754  99.8680768 134.8373225  19.7106912 103.1810114
 134.4970045  18.9114725 103.5830793 134.1312231  20.0108623 102.6086947
 134.1297931  19.8244483  91.9300338 134.8506294  20.2025736  91.4264055
 133.5063235  20.5433360  92.0335316 138.2729054  20.5289632  92.8658671
 138.4892668  21.4114270  92.5647499 137.7923121  20.1375845  92.1364313
 133.0128275  23.4875345  99.4429415 132.8672856  23.8015648 100.3353697
 132.5353479  24.1060245  98.8900314 134.8724658  20.4777893  99.4910305
 134.8586227  19.5818986  99.1542603 135.5897086  20.4848557 100.1248591
 136.7250789  20.9115233 101.5363432 136.4668567  21.8332304 101.5347763
 136.1935829  20.5145668 102.2263896 141.6696978  34.0166020  94.3153518
 141.8433855  33.4512443  93.5627370 142.1625869  34.8166915  94.1333007
 127.4873938  26.0280690 102.3817076 126.9427406  26.8040498 102.5137351
 128.3653287  26.3751494 102.2236198 134.2761554  19.3592273  94.7597875
 134.3977465  18.4308920  94.9588762 133.9863597  19.3730959  93.8476190
 142.6572150  33.3332785  91.4150416 143.3523055  33.9539478  91.6337730
 142.9995300  32.4828136  91.6902794 128.2739959  25.1550586 105.2747233
 127.5321695  25.3033221 105.8611864 127.9532704  25.4158851 104.4113983
 136.2183622  34.6966564 105.0727623 136.5270748  34.4515711 105.9450323
 137.0159104  34.9013203 104.5846493 136.2404234  36.8504474  97.3033000
 135.8009224  36.3580852  97.9965856 136.9912351  36.3077441  97.0625075
 128.7196573  33.0416015  97.3057628 129.5454593  32.7419786  96.9256271
 128.3690625  32.2723637  97.7547417 133.6878106  32.3942483  99.3755301
 133.0658116  31.7313188  99.0757529 134.3582973  32.4203615  98.6928949
 126.9205178  30.9602341  98.2646561 126.0837086  30.5324515  98.0830563
 126.8928824  31.1534784  99.2017353 133.2491613  30.9446406  92.8513762
 133.3979734  31.6281871  92.1980435 134.0558057  30.9251496  93.3663218
 135.9901922  21.6255643 105.7234166 135.1205232  21.9189209 105.4516755
 136.2261403  22.2096088 106.4441430 131.0044246  26.9711584  93.8574831
 130.7590288  26.0673914  94.0555041 131.1740161  26.9728734  92.9154309
 130.2739894  22.7039941  91.3560992 129.5809139  22.7784296  90.7001028
 130.0291646  21.9400285  91.8782509 136.7487019  33.4394537  90.3225509
 136.1760986  34.0584724  89.8695981 137.3219812  33.9893898  90.8565431
 139.9684278  33.7231687  91.4534092 140.9014952  33.6577248  91.6566967
 139.8807491  34.5587954  90.9948624 142.5972295  33.0397557  88.4138039
 142.5185927  32.7057421  89.3073797 143.4181962  33.5319325  88.4129512
 137.1333817  24.7755349  87.6641562 138.0792922  24.6461557  87.7329980
 136.7548062  24.0370011  88.1410990 137.0172510  28.8273095 109.1242219
 137.9375519  29.0051694 109.3182265 136.9822093  27.8829141 108.9721918
 135.3176734  22.7005326  87.5996447 134.4108190  22.4038438  87.6759161
 135.5952715  22.4035144  86.7330733 126.2354675  24.0211689  98.0495494
 125.9157459  23.1676997  97.7569868 125.6888103  24.2360267  98.8053461
 130.0134582  26.7374130 101.7665000 130.2320592  27.6691238 101.7853034
 130.4260356  26.3782105 102.5519804 134.0875519  19.5592261  87.7408426
 134.9494683  19.8847159  88.0004244 134.2725863  18.7723757  87.2281492
 126.1042935  27.6414601 100.0188615 125.4106406  27.2268553  99.5058570
 126.8515926  27.6835137  99.4222034 134.7493718  25.7404475 109.9732811
 134.2660799  26.5404835 110.1796700 134.8354657  25.7512420 109.0200255
 128.0179677  27.5732854  97.8954630 127.9950365  27.6720542  96.9436513
 128.3280314  28.4198005  98.2171796 130.6767055  29.6309009 102.0101244
 131.6310309  29.5992952 101.9431176 130.4779579  29.1699633 102.8251470
 131.2666437  28.2010125 104.5772042 132.0859326  28.6954204 104.6006879
 131.5403245  27.2842094 104.5489610 129.0317284  35.1728629  99.0271442
 128.8971752  34.4129030  98.4609440 128.6149346  35.8969529  98.5600231
 140.1676247  30.3565552  88.0348018 140.8712097  30.5615555  88.6505673
 139.4438896  30.9242314  88.2997101 140.9974057  26.1075414  94.1550288
 140.9409259  26.5643965  93.3157920 141.5502400  25.3466098  93.9773130
 132.1886410  36.0697946  99.2389885 132.0718794  37.0143378  99.1368575
 131.3678856  35.7671507  99.6275684 142.0762944  30.7948082  90.0846478
 142.9108548  30.3629280  89.9023952 141.9147287  30.6230095  91.0123372
 141.7308837  27.2980195  91.4502817 141.6757640  27.1324466  90.5091261
 141.1054892  28.0056228  91.6065007 126.5201351  22.5348259 105.2764239
 127.1660215  22.0247213 105.7651464 126.3118503  23.2716941 105.8507664
 133.2140924  36.7226208 102.4545813 134.1168171  36.7549818 102.7712308
 132.9878294  35.7926659 102.4692149 134.9694526  35.4757194  99.1155892
 134.0190157  35.4759056  99.0020264 135.2727012  34.7289929  98.5991927
 130.8598842  19.6815876 109.3739253 131.7230304  19.3252681 109.5842578
 130.2864253  19.3429771 110.0614658 143.3723741  43.1180637  96.1060070
 142.8088607  43.0270574  95.3376358 143.2576136  42.2980542  96.5862563
 140.9188173  44.6131829  98.9444290 141.7109465  44.2722654  98.5290590
 141.1584823  44.7226804  99.8646444 143.1266336  41.3392337  98.0515067
 142.2016833  41.2068551  98.2592758 143.3750750  42.1186556  98.5485009
 140.4875147  40.9825610  98.8858856 140.6167529  41.2360089  99.7998267
 139.8072599  41.5753318  98.5663511 139.4344573  38.4547623  98.9309898
 138.6443627  38.7105152  98.4550009 139.9255820  39.2695961  99.0361939
 141.3859318  38.8192202  95.8893375 140.5890482  38.9310897  96.4076870
 141.1584911  39.1578855  95.0234265 137.7182276  38.7078114 101.3624889
 137.9690314  39.5925124 101.6282465 138.2541824  38.5282715 100.5899981
 140.3842401  44.5280451  94.2782795 140.8966922  45.3223701  94.4288359
 141.0365114  43.8306742  94.2116396 142.1937286  47.6446208  96.3605548
 142.3703914  48.5664172  96.1726532 142.9894119  47.3304627  96.7899928
 141.4789642  39.6910839 106.2367711 141.3643157  38.7896097 106.5374810
 140.6234160  39.9374536 105.8852528 138.3491318  42.8569106  95.0542365
 139.1866540  43.2666114  94.8376073 138.5269585  41.9168548  95.0242559
 138.3717489  40.1959821  95.7253099 138.1741889  39.6029182  95.0004165
 137.8164153  39.8912031  96.4429038 140.8663715  39.7223855  93.4094051
 139.9361303  39.6608310  93.6264013 140.9621187  39.1999808  92.6130692
 140.7849264  36.2478668  95.9972293 141.0456081  37.1624001  95.8881453
 141.6066436  35.7803110  96.1468905 142.2574189  37.6616425 103.1671117
 142.9297242  37.4533787 102.5183766 141.4303976  37.4638511 102.7276349
 142.2961464  54.4008254  99.1297532 142.5358063  55.0326778  99.8076551
 141.4530661  54.0496294  99.4162891 134.9317320  41.8810016  97.8920844
 135.6188360  41.5671746  97.3041859 134.7765449  42.7851381  97.6188096
 139.7352042  36.7700213 102.3205868 139.6510231  36.1625882 101.5856278
 138.9134749  37.2609231 102.3215364 139.9167641  47.3905009 101.4433868
 140.5021078  46.6448697 101.5761772 139.7192480  47.7008966 102.3270532
 142.7706297  50.4256257  96.4596310 142.1016672  50.9102384  95.9760351
 142.6319166  50.6725477  97.3739689 134.5085296  39.9610609 100.1638311
 134.5469396  39.4274200 100.9575429 134.0025589  39.4345815  99.5449288
 141.8876058  34.8075150 103.6600854 141.9517385  35.6689981 103.2478251
 141.8243179  34.1949152 102.9273212 141.3628331  36.8798282 107.3073888
 141.9900370  36.4975360 107.9211412 140.5056250  36.6612484 107.6729580
 138.1393874  38.6874712  93.2392243 138.4347315  37.7785390  93.1859296
 137.2381909  38.6662451  92.9173245 141.6688121  36.7630708  99.2219791
 140.9474706  37.3766676  99.0827265 142.4581376  37.2988473  99.1436437
 139.8681715  36.3688809  93.3631568 139.5394421  35.4886188  93.1806674
 140.2221086  36.3136478  94.2507957 142.9823538  36.6561779  93.7307045
 143.3219611  37.1847700  93.0085654 143.4295659  36.9942185  94.5065612
 138.3267692  41.3572607 102.3817076 137.7821160  42.1332415 102.5137351
 139.2047042  41.7043412 102.2236198 139.1133714  40.4842504 105.2747233
 138.3715450  40.6325139 105.8611864 138.7926458  40.7450769 104.4113983
 139.5590328  48.3707932  97.3057628 140.3848347  48.0711704  96.9256271
 139.2084380  47.6015555  97.7547417 137.7598933  46.2894259  98.2646561
 136.9230841  45.8616433  98.0830563 137.7322578  46.4826702  99.2017353
 141.8438001  42.3003501  93.8574831 141.5984043  41.3965831  94.0555041
 142.0133915  42.3020652  92.9154309 141.1133648  38.0331859  91.3560992
 140.4202893  38.1076214  90.7001028 140.8685400  37.2692203  91.8782509
 137.0748429  39.3503607  98.0495494 136.7551214  38.4968915  97.7569868
 136.5281857  39.5652185  98.8053461 140.8528337  42.0666048 101.7665000
 141.0714347  42.9983156 101.7853034 141.2654111  41.7074022 102.5519804
 136.9436689  42.9706518 100.0188615 136.2500161  42.5560471  99.5058570
 137.6909680  43.0127055  99.4222034 138.8573432  42.9024772  97.8954630
 138.8344120  43.0012459  96.9436513 139.1674068  43.7489923  98.2171796
 141.5160810  44.9600927 102.0101244 142.4704063  44.9284869 101.9431176
 141.3173333  44.4991551 102.8251470 142.1060192  43.5302043 104.5772042
 142.9253081  44.0246122 104.6006879 142.3796999  42.6134011 104.5489610
 139.8711038  50.5020547  99.0271442 139.7365506  49.7420947  98.4609440
 139.4543101  51.2261446  98.5600231 143.0280164  51.3989864  99.2389885
 142.9112548  52.3435296  99.1368575 142.2072611  51.0963425  99.6275684
 137.3595106  37.8640177 105.2764239 138.0053970  37.3539131 105.7651464
 137.1512257  38.6008859 105.8507664 141.6992597  35.0107794 109.3739253
 142.5624059  34.6544599 109.5842578 141.1258008  34.6721689 110.0614658
 140.9188175  21.6193951  85.6689597 141.7109466  21.2784776  85.2535896
 141.1584825  21.7288927  86.5891750 140.3842402  21.5342574  81.0028101
 140.8966923  22.3285824  81.1533666 141.0365115  20.8368864  80.9361703
 142.1937287  24.6508330  83.0850855 142.3703915  25.5726295  82.8971838
 142.9894120  24.3366749  83.5145234 142.2961466  31.4070377  85.8542839
 142.5358064  32.0388901  86.5321857 141.4530662  31.0558417  86.1408198
 139.9167643  24.3967132  88.1679175 140.5021079  23.6510820  88.3007079
 139.7192481  24.7071089  89.0515839 142.7706298  27.4318379  83.1841617
 142.1016673  27.9164507  82.7005657 142.6319168  27.6787600  84.0984996
 139.5590329  25.3770055  84.0302934 140.3848349  25.0773827  83.6501578
 139.2084381  24.6077677  84.4792723 137.7598934  23.2956381  84.9891868
 136.9230842  22.8678556  84.8075869 137.7322579  23.4888825  85.9262659
 136.9436690  19.9768641  86.7433922 136.2500162  19.5622594  86.2303876
 137.6909681  20.0189177  86.1467341 138.8573433  19.9086895  84.6199937
 138.8344121  20.0074582  83.6681820 139.1674069  20.7552045  84.9417103
 141.5160811  21.9663050  88.7346551 142.4704064  21.9346992  88.6676483
 141.3173334  21.5053673  89.5496777 139.8711040  27.5082669  85.7516749
 139.7365508  26.7483070  85.1854747 139.4543102  28.2323569  85.2845538
 143.0280166  28.4051986  85.9635192 142.9112550  29.3497419  85.8613882
 142.2072612  28.1025548  86.3520991  56.1628885  82.1970541 158.1935133
  56.9359761  81.6499528 158.0548009  56.5154284  83.0614790 158.4049594
  58.4995163  78.3563207 155.8253583  58.7520684  77.8344728 155.0637046
  57.5619722  78.1929352 155.9280267  65.8802767  77.6770490 158.5412996
  66.7920623  77.9097877 158.3660694  65.3712414  78.2607535 157.9788075
  63.5305708  78.8473985 157.1199662  63.0152331  79.6178589 157.3588049
  63.2583016  78.1739121 157.7432723  59.9091043  80.6971511 153.5987370
  59.0018105  80.4660764 153.7978519  60.4062075  79.9009130 153.7861352
  61.0879276  80.7984105 158.1211360  60.1790496  80.5143138 158.2183830
  61.1174360  81.2183184 157.2614667  60.7855364  82.3392849 155.4599439
  60.3474794  81.6228708 155.0005076  61.5265805  82.5668964 154.8984530
  64.9066592  81.1977231 155.0531496  64.2895762  80.4724059 154.9564549
  64.4383080  81.9586591 154.7098571  56.6965138  75.4162655 154.1752801
  55.8194604  75.2951456 153.8115047  57.1722891  74.6248733 153.9231689
  61.2577529  78.4277066 154.0415026  62.2036634  78.2983274 154.1103444
  60.8791774  77.6891728 154.5184454  59.4420447  76.3527042 153.9769911
  58.5351902  76.0560155 154.0532624  59.7196428  76.0556860 153.1104197
  58.2119231  73.2113977 154.1181890  59.0738395  73.5368876 154.3777707
  58.3969575  72.4245473 153.6054956  64.2919959  84.0087269 154.4121481
  64.9955809  84.2137271 155.0279137  63.5682608  84.5764031 154.6770565
  62.2373259  62.1143526 144.5193305  61.5861239  62.6997607 144.1327319
  63.0317622  62.6449721 144.5788343  56.1628886  59.2032663 144.9180440
  56.9359762  58.6561650 144.7793315  56.5154285  60.0676913 145.1294901
  58.4995164  55.3625329 142.5498890  58.7520685  54.8406851 141.7882353
  57.5619723  55.1991475 142.6525573  63.7148524  59.8033958 145.0562290
  63.0794357  59.8768585 145.7683194  63.3845931  60.3927557 144.3781369
  57.9424594  66.9814781 148.0868100  57.8648623  67.9322607 148.1656581
  57.3386237  66.6360654 148.7443027  65.8802768  54.6832613 145.2658303
  66.7920624  54.9160000 145.0906001  65.3712415  55.2669657 144.7033382
  68.3661582  60.6012869 150.0116248  67.6812620  60.9811771 149.4613282
  68.4505431  61.2108196 150.7448196  74.8264335  57.4683532 151.1318921
  74.0728043  56.8990930 150.9762925  74.9611876  57.4346197 152.0789555
  60.2162963  62.3396934 146.8073640  60.0808637  63.1848470 147.2358488
  60.7572775  62.5416212 146.0439574  63.5305709  55.8536107 143.8444969
  63.0152332  56.6240712 144.0833356  63.2583017  55.1801244 144.4678030
  68.5039983  58.6068462 145.7798142  67.7269426  58.2679622 145.3353304
  69.1831464  58.6121085 145.1053107  61.7638444  59.8853423 147.3197704
  61.2359806  59.1506182 147.0070941  61.2625947  60.6628099 147.0737672
  59.9091044  57.7033633 140.3232677  59.0018106  57.4722887 140.5223826
  60.4062076  56.9071252 140.5106658  62.8159123  66.4131140 143.2429363
  62.1420822  66.7162837 143.8514321  63.2024945  67.2160221 142.8934820
  61.0879278  57.8046228 144.8456667  60.1790497  57.5205261 144.9429137
  61.1174361  58.2245307 143.9859974  66.3198545  61.4152817 148.6147834
  65.8660872  60.5743727 148.6713025  65.6892512  62.0514216 148.9522615
  64.7631484  63.2529314 149.5497653  65.0554459  63.8134371 148.8310018
  65.2730105  63.5457875 150.3050812  60.7855365  59.3454972 142.1844745
  60.3474795  58.6290831 141.7250383  61.5265806  59.5731086 141.6229837
  68.9028480  57.6212169 148.2421064  68.7646379  57.8113765 147.3142253
  68.5464699  58.3831551 148.6989115  61.0150338  66.5810813 145.4576442
  61.1902094  66.1098856 146.2722065  60.3283126  67.2076579 145.6857703
  64.9066593  58.2039353 141.7776803  64.2895764  57.4786181 141.6809856
  64.4383081  58.9648714 141.4343877  56.6965139  52.4224778 140.8998107
  55.8194605  52.3013578 140.5360354  57.1722892  51.6310856 140.6476996
  59.8829065  64.7751068 148.1460628  59.0996587  65.3172748 148.2398852
  60.5821810  65.2925048 148.5454869  64.2755496  59.3417385 148.3633257
  63.3411774  59.4618847 148.1937961  64.4532164  58.4389851 148.0993266
  65.7304278  61.5278525 145.8969443  66.0064122  61.4135120 146.8063317
  64.8608777  61.1296010 145.8581616  62.3658342  65.7764876 149.5402256
  62.5480737  64.9586532 150.0030009  63.1891328  65.9932568 149.1027146
  62.7000508  64.7033061 146.8017305  63.2288274  64.1925516 146.1887467
  62.9628727  64.3875591 147.6662838  65.7940691  64.6749859 147.4172288
  65.9677569  64.1096282 146.6646140  66.2869583  65.4750754 147.2351778
  71.6480082  57.4386282 149.0362588  72.0911228  56.6893608 148.6381711
  70.7706593  57.4296419 148.6536320  66.7815864  63.9916624 144.5169186
  67.4766768  64.6123316 144.7356501  67.1239014  63.1411975 144.7921564
  68.6807287  61.4416329 146.0456517  69.2058611  61.7803602 145.3205837
  68.5929639  60.5063345 145.8619652  60.3647948  67.5088313 150.4051770
  59.9252938  67.0164691 151.0984627  61.1156065  66.9661280 150.1643845
  57.3735327  61.6030245 145.9532532  57.5223447  62.2865709 145.2999205
  58.1801770  61.5835335 146.4681988  71.1912947  58.9091521 151.4285035
  72.0259839  59.3481325 151.5922596  71.3272076  58.4330174 150.6093281
  60.8730732  64.0978375 143.4244280  60.3004699  64.7168563 142.9714752
  61.4463526  64.6477737 143.9584202  64.0927992  64.3815526 144.5552862
  65.0258665  64.3161087 144.7585738  64.0051205  65.2171792 144.0967395
  66.7216009  63.6981396 141.5156810  66.6429640  63.3641260 142.4092568
  67.5425675  64.1903164 141.5148282  61.2577531  55.4339188 140.7660332
  62.2036635  55.3045396 140.8348750  60.8791776  54.6953850 141.2429760
  59.4420448  53.3589165 140.7015217  58.5351903  53.0622277 140.7777931
  59.7196429  53.0618983 139.8349504  58.2119232  50.2176100 140.8427197
  59.0738396  50.5430998 141.1023014  58.3969577  49.4307596 140.3300262
  64.2919960  61.0149391 141.1366788  64.9955811  61.2199394 141.7524444
  63.5682609  61.5826153 141.4015871  65.1217771  56.7659253 147.2569058
  65.0652972  57.2227804 146.4176691  65.6746113  56.0049937 147.0791901
  66.2006658  61.4531921 143.1865248  67.0352262  61.0213119 143.0042723
  66.0391001  61.2813934 144.1142142  65.8552550  57.9564034 144.5521587
  65.8001354  57.7908305 143.6110031  65.2298605  58.6640067 144.7083777
  74.8290933  71.9701572 153.2820425  75.4669343  71.8508319 152.5783765
  74.7111776  72.9182416 153.3408377  71.6380639  71.9229000 153.2181949
  71.2999151  71.8070064 152.3302484  72.5070407  71.5220165 153.1982956
  67.4967455  73.7764476 149.2078840  66.9332320  73.6854413 148.4395128
  67.3819850  72.9564381 149.6881333  65.0431887  75.2715668 152.0463061
  65.8353179  74.9306492 151.6309360  65.2828537  75.3810643 152.9665214
  73.0767014  77.4435444 144.5193305  72.4254993  78.0289524 144.1327319
  73.8711376  77.9741639 144.5788343  67.0022641  74.5324581 144.9180440
  67.7753517  73.9853568 144.7793315  67.3548040  75.3968830 145.1294901
  69.7663890  73.2377812 154.7148699  70.3627462  73.0133834 154.0005662
  69.8238862  72.4962557 155.3174146  69.3388919  70.6917247 142.5498890
  69.5914439  70.1698768 141.7882353  68.4013478  70.5283393 142.6525573
  74.3832201  69.6953026 150.3573633  75.1695291  69.2772449 150.0064050
  74.6470906  70.5999118 150.5255281  74.5542279  75.1325876 145.0562290
  73.9188112  75.2060502 145.7683194  74.2239685  75.7219475 144.3781369
  79.7840629  69.6328259 151.2606611  80.5165801  69.0627476 151.4944441
  79.0279984  69.2449859 151.7013117  69.0585207  72.5945353 144.7523265
  68.9421465  71.9190256 145.4204349  69.1687467  72.1077727 143.9355418
  71.4016748  72.0555500 148.4569954  71.0374956  71.5286121 149.1682875
  72.2583864  71.6653969 148.2836439  77.3066049  63.3449833 155.7201220
  76.9749374  64.2145244 155.4962435  76.7111662  63.0286117 156.3995250
  71.0422235  67.0845400 143.4531302  71.2096638  67.9525636 143.8201773
  70.8519404  67.2472682 142.5292592  73.7997568  75.5462379 155.1197133
  73.4998292  76.4487418 155.0112940  73.4548628  75.2794562 155.9718286
  67.2510050  71.9976176 151.1533837  66.3260546  71.8652390 151.3611529
  67.4994463  72.7770395 151.6503779  77.1994712  68.0644919 152.7994570
  76.2911590  67.9960327 152.5053331  77.1482308  68.5416864 153.6276395
  71.0211456  69.5403057 144.4377969  70.9011081  69.9860108 145.2763449
  70.3264045  69.8888375 143.8791507  64.6118861  71.6409449 151.9877626
  64.7411242  71.8943928 152.9017038  63.9316312  72.2337157 151.6682281
  68.7818348  82.3106699 148.0868100  68.7042378  83.2614524 148.1656581
  68.1779992  81.9652572 148.7443027  79.0656359  66.2661357 154.5772444
  78.4230739  66.5593891 153.9312238  78.5611287  66.1514278 155.3825641
  76.7196522  70.0124531 145.2658303  77.6314378  70.2451917 145.0906001
  76.2106169  70.5961575 144.7033382  71.3568360  69.3721765 156.2753153
  72.2029555  69.7961179 156.4187802  71.2966998  68.7155389 156.9691716
  75.3266105  74.9950349 152.6571885  74.6974967  75.1596063 151.9547952
  74.9391767  75.4091959 153.4282849  79.2055337  75.9304787 150.0116248
  78.5206375  76.3103688 149.4613282  79.2899186  76.5400114 150.7448196
  76.4606268  73.5764746 156.6111592  76.6723163  74.2196506 155.9345973
  76.4136016  72.7427062 156.1433522  74.0632497  66.1882567 153.5148164
  73.2016976  66.4863820 153.8064902  74.0894932  66.4052965 152.5829197
  70.8794066  74.7324757 149.9221970  71.3432412  75.0112460 149.1326592
  70.6150865  73.8308202 149.7395060  67.7718148  74.2796239 152.8601733
  68.3419505  74.7083507 152.2219217  68.3626259  73.9978823 153.5585919
  69.8162953  70.8547909 146.7311535  70.5186996  71.3068953 147.1985461
  69.4843581  70.2131728 147.3591428  63.5588286  69.1131462 152.0328668
  62.7687340  69.3688991 151.5568779  64.0499534  69.9279800 152.1380709
  65.5103032  69.4776041 148.9912145  64.7134195  69.5894736 149.5095641
  65.2828624  69.8162694 148.1253036  85.6658089  72.7975450 151.1318921
  84.9121797  72.2282848 150.9762925  85.8005630  72.7638114 152.0789555
  71.0556717  77.6688852 146.8073640  70.9202392  78.5140388 147.2358488
  71.5966530  77.8708130 146.0439574  64.5086115  75.1864290 147.3801565
  65.0210635  75.9807540 147.5307130  65.1608827  74.4890581 147.3135167
  66.3180999  78.3030046 149.4624318  66.4947628  79.2248011 149.2745302
  67.1137833  77.9888466 149.8918698  67.4412315  79.8208220 155.4634661
  67.9919740  79.6925284 154.6911655  66.6023791  80.1203109 155.1129553
  62.4735031  73.5152944 148.1561136  63.3110253  73.9249953 147.9394843
  62.6513299  72.5752387 148.1261330  74.3699463  71.1828025 143.8444969
  73.8546087  71.9532630 144.0833356  74.0976772  70.5093161 144.4678030
  71.9546574  66.0277726 148.9030207  71.0988171  65.6384576 148.7235846
  72.3673526  66.1069687 148.0429993  73.4845721  63.5624069 153.3021767
  72.9810517  63.5254204 152.4889572  73.7776328  64.4716812 153.3618423
  69.7288607  63.6462799 152.3087948  70.5941604  63.4505608 151.9493838
  69.7966116  63.4173151 153.2357305  79.3433738  73.9360380 145.7798142
  78.5663180  73.5971539 145.3353304  80.0225219  73.9413003 145.1053107
  74.1585767  69.0555117 145.6704750  73.8535902  69.3701266 146.5214893
  75.1116209  69.1336537 145.7132083  72.6032198  75.2145341 147.3197704
  72.0753560  74.4798100 147.0070941  72.1019701  75.9920017 147.0737672
  77.5825044  73.4094361 152.4364750  76.9248719  74.0993622 152.5244879
  78.3865444  73.7990793 152.7798736  67.3350926  65.8765007 149.6804315
  67.9094678  65.6540188 148.9477508  67.9221909  65.9453701 150.4332917
  76.3930503  71.7638734 150.4868692  76.9062385  72.3968726 150.9890402
  77.0431727  71.1639929 150.1212052  67.6620513  67.9069468 143.7000201
  66.8257825  68.2444154 144.0209475  67.5225283  67.7718448 142.7627338
  69.6373594  62.7506256 148.4079385  68.9838006  62.4355273 147.7836000
  69.5954068  62.1281996 149.1339208  70.7484799  73.0325551 140.3232677
  69.8411860  72.8014804 140.5223826  71.2455831  72.2363170 140.5106658
  73.6552878  81.7423058 143.2429363  72.9814576  82.0454755 143.8514321
  74.0418699  82.5452138 142.8934820  72.8711334  69.2388189 152.7327032
  71.9533896  69.4603136 152.5748720  73.2871478  69.3134500 151.8738740
  73.6546382  70.6379605 147.8629713  74.4018201  71.1501002 147.5536835
  73.9237971  70.3163658 148.7234106  71.9273032  73.1338146 144.8456667
  71.0184251  72.8497178 144.9429137  71.9568116  73.5537224 143.9859974
  77.1592300  76.7444735 148.6147834  76.7054627  75.9035645 148.6713025
  76.5286266  77.3806134 148.9522615  76.1025219  67.6736721 149.8448502
  75.3647976  67.1614107 150.1758744  76.3551993  67.2337103 149.0331779
  75.6025239  78.5821232 149.5497653  75.8948213  79.1426289 148.8310018
  76.1123859  78.8749793 150.3050812  76.2036846  60.4512973 150.4390271
  76.5095723  59.5910337 150.1516186  76.9289451  61.0430593 150.2389265
  62.4961202  70.8543660 148.8271869  62.2985602  70.2613020 148.1022936
  61.9407866  70.5495870 149.5447808  70.4757926  70.7466766 150.9466462
  70.5306536  69.7940603 150.8708939  69.6649128  70.9026205 151.4307761
  71.6249120  74.6746889 142.1844745  71.1868550  73.9582748 141.7250383
  72.3659561  74.9023004 141.6229837  68.4150286  69.3643826 148.7056841
  67.6018152  69.6637997 149.1122033  68.9109280  68.9699515 149.4231323
  70.5658864  79.3601583 150.6391106  70.5235043  79.5862429 149.7099638
  71.4821563  79.1264958 150.7876907  74.0124498  69.8285650 157.5371735
  74.3673885  70.0557124 158.3966201  74.6596629  70.1604027 156.9148990
  79.7422235  72.9504086 148.2421064  79.6040133  73.1405682 147.3142253
  79.3858453  73.7123469 148.6989115  67.9064361  66.9362182 154.3218076
  68.5463740  66.7950941 153.6241039  67.0741891  66.6496695 153.9456678
  79.7691614  75.0180613 153.2532336  80.2028121  74.9255902 154.1015390
  80.4823195  74.9938114 152.6152352  68.6824665  76.2364612 150.4353069
  69.4765263  75.7414932 150.2335643  67.9716357  75.7082475 150.0720774
  64.9907428  70.3807694 146.5112821  64.0605016  70.3192149 146.7282783
  65.0864900  69.8583646 145.7149462  64.9092977  66.9062507 149.0991063
  65.1699795  67.8207840 148.9900223  65.7310150  66.4386949 149.2487676
  72.4607609  72.7842970 156.3452368  73.3899669  72.9354129 156.1721335
  72.0398639  72.8726990 155.4901015  71.2595941  76.8093634 154.1150906
  71.1207026  76.4412418 154.9876844  70.4710537  77.3241273 153.9434863
  71.8544093  81.9102730 145.4576442  72.0295848  81.4390774 146.2722065
  71.1676881  82.5368497 145.6857703  72.8101156  76.1875237 151.5039743
  72.4750988  76.1476007 152.3997393  72.3105102  75.5219953 151.0310154
  75.7460348  73.5331271 141.7776803  75.1289518  72.8078099 141.6809856
  75.2776836  74.2940631 141.4343877  69.4127700  71.3062826 156.5176004
  70.1227319  70.6656018 156.4762623  69.3697009  71.5575721 157.4402185
  66.4205178  85.0592093 152.2316302  66.6601776  85.6910617 152.9095321
  65.5774374  84.7080133 152.5181662  67.5358893  67.7516695 140.8998107
  66.6588360  67.6305496 140.5360354  68.0116646  66.9602774 140.6476996
  59.0561034  72.5393855 150.9939614  59.7432073  72.2255585 150.4060630
  58.9009162  73.4435220 150.7206866  70.7222819  80.1042986 148.1460628
  69.9390341  80.6464666 148.2398852  71.4215565  80.6216965 148.5454869
  74.0319470  65.9137615 150.7894833  74.5288169  65.1607577 150.4695903
  73.2606451  65.9501932 150.2238043  81.8849227  71.6177981 152.4313125
  81.8739103  72.5002696 152.0607058  81.0166606  71.2649531 152.2367662
  75.1149250  74.6709302 148.3633257  74.1805529  74.7910765 148.1937961
  75.2925919  73.7681769 148.0993266  70.6154438  68.0554998 150.5166518
  70.2452226  67.5026038 151.2047423  71.1113531  67.4513132 149.9641518
  78.5021802  70.5126622 148.8983291  78.9682254  71.3454613 148.8243593
  78.9529302  70.0471603 149.6028549  76.5698033  76.8570443 145.8969443
  76.8457877  76.7427037 146.8063317  75.7002531  76.4587928 145.8581616
  76.4738464  62.8807209 152.9374192  75.5601544  63.1111435 153.1056399
  76.9031566  62.9645653 153.7888224  76.2444923  71.0697101 155.4374086
  75.5916373  71.3173008 154.7826539  76.6225303  70.2561239 155.1036563
  73.2052097  81.1056794 149.5402256  73.3874491  80.2878450 150.0030009
  74.0285083  81.3224486 149.1027146  73.5394262  80.0324979 146.8017305
  74.0682029  79.5217433 146.1887467  73.8022482  79.7167509 147.6662838
  64.0411355  78.0488848 154.5452638  64.6264792  77.3032536 154.6780543
  63.8436193  78.3592805 155.4289302  66.8950010  81.0840096 149.5615081
  66.2260385  81.5686223 149.0779121  66.7562880  81.3309316 150.4758459
  62.2637587  69.3458551 146.3411013  62.5591028  68.4369229 146.2878067
  61.3625623  69.3246290 146.0192015  74.1723666  81.0665815 153.1461421
  74.0474805  80.2655554 152.6372367  74.8302757  81.5612008 152.6575391
  65.7931834  67.4214547 152.3238562  65.0718420  68.0350515 152.1846035
  66.5825090  67.9572312 152.2455208  63.9925429  67.0272648 146.4650338
  63.6638135  66.1470027 146.2825444  64.3464800  66.9720317 147.3526727
  73.2405008  78.6627551 150.9745324  73.0929970  77.7344258 151.1552894
  74.0658501  78.6847642 150.4902399  67.1067252  67.3145618 146.8325816
  67.4463325  67.8431539 146.1104424  67.5539372  67.6526024 147.6084382
  76.8439130  79.4856110 152.0610196  77.7685677  79.2798971 151.9234648
  76.6754433  79.2372511 152.9699538  69.0935399  65.8120240 145.0319109
  69.8143762  66.1901492 144.5282825  68.4700703  66.5309116 145.1354087
  73.2366522  66.5165389 145.9677441  73.4530136  67.3990026 145.6666269
  72.7560589  66.1251602 145.2383083  67.9765743  69.4751102 152.5448186
  67.8310324  69.7891405 153.4372467  67.4990947  70.0936002 151.9919084
  69.8362126  66.4653650 152.5929075  69.8223695  65.5694743 152.2561373
  70.5534554  66.4724313 153.2267361  71.6888257  66.8990990 154.6382203
  71.4306035  67.8208061 154.6366533  71.1573297  66.5021424 155.3282667
  76.6334446  80.0041777 147.4172288  76.8071323  79.4388200 146.6646140
  77.1263337  80.8042672 147.2351778  62.4511406  72.0156446 155.4835847
  61.9064874  72.7916254 155.6156121  63.3290755  72.3627251 155.3254968
  69.2399022  65.3468030 147.8616645  69.3614933  64.4184676 148.0607533
  68.9501065  65.3606716 146.9494961  72.1090213  63.0322940 150.9983365
  72.1311909  63.0962274 150.0435345  72.5258272  62.1927449 151.1923871
  82.4873837  72.7678200 149.0362588  82.9304983  72.0185525 148.6381711
  81.6100347  72.7588336 148.6536320  77.6209618  79.3208541 144.5169186
  78.3160523  79.9415234 144.7356501  77.9632768  78.4703893 144.7921564
  79.5201041  76.7708247 146.0456517  80.0452365  77.1095520 145.3205837
  79.4323394  75.8355262 145.8619652  71.2041702  82.8380230 150.4051770
  70.7646692  82.3456609 151.0984627  71.9549819  82.2953198 150.1643845
  63.6834041  79.0291771 150.4076398  64.5092061  78.7295543 150.0275042
  63.3328093  78.2599394 150.8566187  68.6515574  78.3818239 152.4774072
  68.0295584  77.7188944 152.1776300  69.3220441  78.4079371 151.7947720
  61.8842646  76.9478098 151.3665332  61.0474554  76.5200272 151.1849333
  61.8566292  77.1410541 152.3036123  68.2129081  76.9322163 145.9532532
  68.3617202  77.6157627 145.2999205  69.0195525  76.9127253 146.4681988
  82.0306702  74.2383438 151.4285035  82.8653593  74.6773242 151.5922596
  82.1665830  73.7622092 150.6093281  65.9681714  72.9587340 146.9593601
  65.7227756  72.0549670 147.1573811  66.1377629  72.9604491 146.0173079
  65.2377362  68.6915698 144.4579763  64.5446607  68.7660053 143.8019799
  64.9929114  67.9276042 144.9801280  73.9091018  60.2511299 151.8619253
  74.1892772  59.5834488 152.4879680  74.6941625  60.4440395 151.3493917
  71.7124487  79.4270293 143.4244280  71.1398454  80.0460480 142.9714752
  72.2857280  79.9769655 143.9584202  77.7799877  68.6728933 155.6090829
  78.7317299  68.7727031 155.6303053  77.6103327  67.8807202 156.1188913
  75.8014256  65.7584516 155.7950230  75.2064188  66.0389529 155.0996718
  75.5163953  66.2478417 156.5666971  74.9321746  79.7107443 144.5552862
  75.8652420  79.6453005 144.7585738  74.8444959  80.5463710 144.0967395
  77.5609763  79.0273314 141.5156810  77.4823395  78.6933177 142.4092568
  78.3819430  79.5195082 141.5148282  80.2587954  71.8935053 154.7233128
  80.2264274  70.9551054 154.9092812  80.8688578  71.9719090 153.9898953
  72.0971285  70.7631106 140.7660332  73.0430390  70.6337314 140.8348750
  71.7185530  70.0245768 141.2429760  80.4082443  68.6846096 154.7691411
  79.8921491  67.9004553 154.5821340  81.2922391  68.3564813 154.9337931
  78.0693170  62.4287112 150.7287224  77.8717991  62.1202200 151.6130556
  78.6792875  63.1548751 150.8585154  84.1579801  71.0958922 154.4613616
  83.4312965  70.9614887 153.8530108  83.7427088  71.4035751 155.2670334
  70.2814202  68.6881082 140.7015217  69.3745658  68.3914195 140.7777931
  70.5590183  68.3910900 139.8349504  61.1992143  70.0087446 151.1514264
  60.8794927  69.1552754 150.8588638  60.6525571  70.2236024 151.9072231
  64.9772050  72.7249887 154.8683770  65.1958060  73.6566995 154.8871804
  65.3897824  72.3657861 155.6538574  71.8976268  63.2317972 146.8559459
  71.0876996  62.8865057 147.2314705  72.5860685  62.9225516 147.4447070
  73.8266816  62.3096019 148.4783755  74.3797855  62.7291472 149.1373779
  74.0636903  61.3831767 148.5206711  69.0512987  65.5468018 140.8427197
  69.9132151  65.8722916 141.1023014  69.2363331  64.7599513 140.3300262
  61.0680403  73.6290357 153.1207385  60.3743874  73.2144310 152.6077340
  61.8153394  73.6710894 152.5240804  77.2045623  64.4196544 147.9862420
  76.6244293  65.0781348 147.6040472  76.9381556  63.5973889 147.5749837
  75.6549190  63.8201602 150.1883740  76.1548968  63.9318136 149.3798059
  76.2984798  63.5162655 150.8284548  62.9817145  73.5608611 150.9973400
  62.9587833  73.6596298 150.0455283  63.2917782  74.4073762 151.3190566
  65.6404523  75.6184766 155.1120015  66.5947777  75.5868708 155.0449946
  65.4417047  75.1575390 155.9270241  66.2303905  74.1885882 157.6790812
  67.0496794  74.6829961 157.7025650  66.5040713  73.2717850 157.6508380
  75.9870501  66.5796634 147.0418768  75.0996357  66.8646285 146.8238963
  76.4024491  66.4190398 146.1946045  79.3385038  66.6043155 150.7573107
  80.1145428  67.0939608 151.0297724  78.6133172  67.0301210 151.2144977
  81.7757596  67.3170775 151.8147048  82.3702087  67.0766511 151.1040356
  81.8484180  66.5977905 152.4420584  63.9954752  81.1604385 152.1290213
  63.8609220  80.4004786 151.5628211  63.5786814  81.8845285 151.6619002
  75.1313715  76.3441309 141.1366788  75.8349565  76.5491312 141.7524444
  74.4076364  76.9118071 141.4015871  75.9611525  72.0951170 147.2569058
  75.9046727  72.5519722 146.4176691  76.5139868  71.3341855 147.0791901
  79.7716331  67.8840902 148.0819178  79.5153265  67.4837538 148.9127385
  79.1469199  68.5984696 147.9569317  84.0828669  70.6236975 150.5890469
  83.5228227  70.6930165 151.3622031  83.4772172  70.4477960 149.8689965
  67.1523878  82.0573703 152.3408655  67.0356262  83.0019135 152.2387346
  66.3316324  81.7547264 152.7294454  77.0400412  76.7823838 143.1865248
  77.8746016  76.3505037 143.0042723  76.8784755  76.6105852 144.1142142
  76.6946305  73.2855952 144.5521587  76.6395108  73.1200223 143.6110031
  76.0692360  73.9931984 144.7083777  70.0042430  62.7864061 144.1306906
  69.9921100  63.7305900 144.2875177  70.8965852  62.6034206 143.8366367
  69.9331994  81.4632951 152.2174662  68.9827625  81.4634813 152.1039035
  70.2364480  80.7165686 151.7010697  73.8194549  59.3806837 148.3852842
  73.0526945  58.8265324 148.5309525  74.2305254  59.4528706 149.2466994
  77.8416395  89.8616499 144.9180440  78.6147271  89.3145486 144.7793315
  78.1941794  90.7260748 145.1294901  80.1782673  86.0209165 142.5498890
  80.4308194  85.4990686 141.7882353  79.2407232  85.8575310 142.6525573
  79.8978962  87.9237271 144.7523265  79.7815220  87.2482174 145.4204349
  80.0081222  87.4369645 143.9355418  81.8815990  82.4137318 143.4531302
  82.0490392  83.2817554 143.8201773  81.6913159  82.5764599 142.5292592
  81.8605211  84.8694975 144.4377969  81.7404836  85.3152026 145.2763449
  81.1657799  85.2180293 143.8791507  87.5590277  85.3416448 145.2658303
  88.4708133  85.5743835 145.0906001  87.0499924  85.9253492 144.7033382
  80.6556707  86.1839827 146.7311535  81.3580750  86.6360871 147.1985461
  80.3237336  85.5423646 147.3591428  76.3496786  84.8067959 148.9912145
  75.5527950  84.9186653 149.5095641  76.1222379  85.1454611 148.1253036
  73.3128786  88.8444862 148.1561136  74.1504008  89.2541870 147.9394843
  73.4907054  87.9044304 148.1261330  85.2093218  86.5119943 143.8444969
  84.6939841  87.2824547 144.0833356  84.9370526  85.8385079 144.4678030
  82.7940329  81.3569644 148.9030207  81.9381925  80.9676494 148.7235846
  83.2067281  81.4361604 148.0429993  84.9979521  84.3847035 145.6704750
  84.6929657  84.6993184 146.5214893  85.9509963  84.4628455 145.7132083
  78.1744681  81.2056924 149.6804315  78.7488432  80.9832106 148.9477508
  78.7615663  81.2745619 150.4332917  78.5014268  83.2361386 143.7000201
  77.6651580  83.5736072 144.0209475  78.3619037  83.1010365 142.7627338
  80.4767348  78.0798173 148.4079385  79.8231761  77.7647191 147.7836000
  80.4347822  77.4573914 149.1339208  81.5878553  88.3617468 140.3232677
  80.6805615  88.1306722 140.5223826  82.0849585  87.5655088 140.5106658
  82.7666787  88.4630063 144.8456667  81.8578006  88.1789096 144.9429137
  82.7961870  88.8829142 143.9859974  87.0430601  75.7804891 150.4390271
  87.3489478  74.9202254 150.1516186  87.7683206  76.3722511 150.2389265
  73.3354957  86.1835577 148.8271869  73.1379357  85.5904938 148.1022936
  72.7801621  85.8787788 149.5447808  82.4642874  90.0038807 142.1844745
  82.0262304  89.2874666 141.7250383  83.2053315  90.2314922 141.6229837
  79.2544041  84.6935744 148.7056841  78.4411906  84.9929914 149.1122033
  79.7503035  84.2991432 149.4231323  75.8301183  85.7099611 146.5112821
  74.8998771  85.6484067 146.7282783  75.9258655  85.1875564 145.7149462
  75.7486732  82.2354424 149.0991063  76.0093549  83.1499757 148.9900223
  76.5703904  81.7678867 149.2487676  86.5854102  88.8623189 141.7776803
  85.9683273  88.1370017 141.6809856  86.1170590  89.6232549 141.4343877
  78.3752648  83.0808613 140.8998107  77.4982114  82.9597414 140.5360354
  78.8510401  82.2894691 140.6476996  69.8954788  87.8685773 150.9939614
  70.5825828  87.5547503 150.4060630  69.7402917  88.7727137 150.7206866
  73.1031342  84.6750468 146.3411013  73.3984783  83.7661147 146.2878067
  72.2019378  84.6538208 146.0192015  74.8319183  82.3564566 146.4650338
  74.5031889  81.4761945 146.2825444  75.1858554  82.3012235 147.3526727
  77.9461006  82.6437536 146.8325816  78.2857079  83.1723457 146.1104424
  78.3933127  82.9817942 147.6084382  79.9329154  81.1412157 145.0319109
  80.6537516  81.5193410 144.5282825  79.3094458  81.8601034 145.1354087
  84.0760277  81.8457306 145.9677441  84.2923891  82.7281944 145.6666269
  83.5954344  81.4543520 145.2383083  80.0792777  80.6759948 147.8616645
  80.2008688  79.7476594 148.0607533  79.7894819  80.6898634 146.9494961
  82.9483967  78.3614858 150.9983365  82.9705664  78.4254191 150.0435345
  83.3652026  77.5219367 151.1923871  76.8075469  88.2879258 146.9593601
  76.5621511  87.3841588 147.1573811  76.9771383  88.2896408 146.0173079
  76.0771116  84.0207616 144.4579763  75.3840361  84.0951971 143.8019799
  75.8322868  83.2567959 144.9801280  84.7484773  75.5803217 151.8619253
  85.0286526  74.9126406 152.4879680  85.5335380  75.7732313 151.3493917
  82.9365040  86.0923024 140.7660332  83.8824144  85.9629232 140.8348750
  82.5579285  85.3537685 141.2429760  81.1207957  84.0173000 140.7015217
  80.2139412  83.7206113 140.7777931  81.3983938  83.7202818 139.8349504
  72.0385897  85.3379363 151.1514264  71.7188682  84.4844672 150.8588638
  71.4919325  85.5527942 151.9072231  82.7370023  78.5609890 146.8559459
  81.9270751  78.2156975 147.2314705  83.4254440  78.2517433 147.4447070
  84.6660571  77.6387936 148.4783755  85.2191609  78.0583390 149.1373779
  84.9030657  76.7123685 148.5206711  79.8906741  80.8759935 140.8427197
  80.7525905  81.2014834 141.1023014  80.0757086  80.0891431 140.3300262
  88.0439378  79.7488462 147.9862420  87.4638047  80.4073266 147.6040472
  87.7775311  78.9265806 147.5749837  86.8264256  81.9088552 147.0418768
  85.9390111  82.1938203 146.8238963  87.2418245  81.7482315 146.1946045
  85.9707469  91.6733227 141.1366788  86.6743320  91.8783229 141.7524444
  85.2470118  92.2409989 141.4015871  80.8436184  78.1155978 144.1306906
  80.8314854  79.0597818 144.2875177  81.7359606  77.9326124 143.8366367
  84.6588304  74.7098755 148.3852842  83.8920700  74.1557242 148.5309525
  85.0699009  74.7820624 149.2466994  62.2373260  39.1205649 131.2438612
  61.5861240  39.7059729 130.8572626  63.0317623  39.6511844 131.3033649
  56.1628888  36.2094786 131.6425746  56.9359764  35.6623773 131.5038622
  56.5154286  37.0739035 131.8540208  58.4995165  32.3687452 129.2744196
  58.7520686  31.8468973 128.5127659  57.5619724  32.2053598 129.3770880
  63.7148526  36.8096081 131.7807596  63.0794359  36.8830707 132.4928501
  63.3845932  37.3989680 131.1026675  57.9424595  43.9876904 134.8113407
  57.8648625  44.9384729 134.8901888  57.3386239  43.6422777 135.4688333
  65.8802769  31.6894736 131.9903610  66.7920625  31.9222122 131.8151307
  65.3712416  32.2731780 131.4278688  68.3661583  37.6074992 136.7361555
  67.6812621  37.9873893 136.1858588  68.4505433  38.2170318 137.4693503
  74.8264336  34.4745655 137.8564227  74.0728044  33.9053053 137.7008232
  74.9611877  34.4408319 138.8034862  60.2162964  39.3459057 133.5318947
  60.0808639  40.1910593 133.9603794  60.7572776  39.5478335 132.7684880
  63.5305710  32.8598230 130.5690275  63.0152334  33.6302835 130.8078663
  63.2583019  32.1863366 131.1923337  68.5039984  35.6130585 132.5043449
  67.7269427  35.2741744 132.0598611  69.1831465  35.6183208 131.8298414
  61.7638445  36.8915545 134.0443010  61.2359807  36.1568305 133.7316248
  61.2625948  37.6690222 133.7982979  59.9091045  34.7095756 127.0477983
  59.0018107  34.4785009 127.2469132  60.4062077  33.9133375 127.2351965
  62.8159124  43.4193263 129.9674670  62.1420823  43.7224960 130.5759627
  63.2024946  44.2222343 129.6180127  61.0879279  34.8108351 131.5701974
  60.1790498  34.5267383 131.6674443  61.1174363  35.2307429 130.7105280
  66.3198546  38.4214940 135.3393141  65.8660873  37.5805850 135.3958332
  65.6892513  39.0576338 135.6767921  64.7631486  40.2591437 136.2742959
  65.0554460  40.8196494 135.5555325  65.2730106  40.5519998 137.0296118
  60.7855367  36.3517094 128.9090052  60.3474797  35.6352953 128.4495689
  61.5265808  36.5793209 128.3475144  68.9028481  34.6274291 134.9666371
  68.7646380  34.8175887 134.0387560  68.5464700  35.3893674 135.4234422
  61.0150339  43.5872935 132.1821749  61.1902095  43.1160979 132.9967371
  60.3283127  44.2138702 132.4103010  64.9066594  35.2101476 128.5022110
  64.2895765  34.4848304 128.4055162  64.4383083  35.9710836 128.1589184
  56.6965140  29.4286900 127.6243414  55.8194607  29.3075701 127.2605661
  57.1722893  28.6372978 127.3722303  59.8829066  41.7813191 134.8705934
  59.0996588  42.3234871 134.9644159  60.5821811  42.2987170 135.2700176
  64.2755497  36.3479507 135.0878563  63.3411776  36.4680970 134.9183268
  64.4532165  35.4451974 134.8238573  65.7304279  38.5340648 132.6214749
  66.0064123  38.4197242 133.5308624  64.8608778  38.1358133 132.5826923
  62.3658343  42.7826999 136.2647563  62.5480738  41.9648655 136.7275315
  63.1891330  42.9994691 135.8272453  62.7000509  41.7095184 133.5262612
  63.2288275  41.1987638 132.9132774  62.9628729  41.3937714 134.3908145
  65.7940693  41.6811982 134.1417595  65.9677570  41.1158404 133.3891447
  66.2869584  42.4812877 133.9597084  71.6480084  34.4448405 135.7607894
  72.0911230  33.6955730 135.3627018  70.7706594  34.4358541 135.3781626
  66.7815865  40.9978746 131.2414493  67.4766770  41.6185439 131.4601807
  67.1239015  40.1474098 131.5166871  68.6807288  38.4478452 132.7701824
  69.2058612  38.7865725 132.0451144  68.5929641  37.5125467 132.5864958
  60.3647949  44.5150435 137.1297077  59.9252939  44.0226814 137.8229933
  61.1156066  43.9723403 136.8889152  57.3735328  38.6092368 132.6777839
  57.5223448  39.2927832 132.0244512  58.1801771  38.5897458 133.1927295
  71.1912948  35.9153643 138.1530342  72.0259840  36.3543447 138.3167902
  71.3272077  35.4392296 137.3338588  60.8730733  41.1040498 130.1489586
  60.3004701  41.7230685 129.6960058  61.4463527  41.6539860 130.6829508
  64.0927993  41.3877648 131.2798169  65.0258666  41.3223210 131.4831044
  64.0051206  42.2233915 130.8212701  66.7216010  40.7043519 128.2402116
  66.6429641  40.3703382 129.1337874  67.5425677  41.1965286 128.2393589
  61.2577532  32.4401311 127.4905639  62.2036637  32.3107519 127.5594057
  60.8791777  31.7015973 127.9675067  59.4420449  30.3651287 127.4260524
  58.5351905  30.0684400 127.5023238  59.7196430  30.0681105 126.5594810
  58.2119234  27.2238222 127.5672503  59.0738398  27.5493121 127.8268321
  58.3969578  26.4369718 127.0545569  64.2919962  38.0211514 127.8612095
  64.9955812  38.2261516 128.4769750  63.5682610  38.5888276 128.1261178
  65.1217772  33.7721375 133.9814365  65.0652973  34.2289927 133.1421997
  65.6746114  33.0112060 133.8037208  66.2006659  38.4594043 129.9110555
  67.0352263  38.0275242 129.7288029  66.0391002  38.2876057 130.8387449
  65.8552551  34.9626156 131.2766894  65.8001355  34.7970428 130.3355338
  65.2298607  35.6702189 131.4329084  74.8290934  48.9763694 140.0065731
  75.4669344  48.8570442 139.3029071  74.7111777  49.9244538 140.0653684
  71.6380640  48.9291122 139.9427256  71.2999152  48.8132187 139.0547791
  72.5070409  48.5282287 139.9228262  67.4967456  50.7826599 135.9324147
  66.9332321  50.6916536 135.1640435  67.3819851  49.9626503 136.4126640
  72.1200423  50.0825974 145.9013462  72.1089064  49.6878772 145.0293965
  72.2821063  49.3492047 146.4947233  65.0431888  52.2777790 138.7708367
  65.8353180  51.9368615 138.3554667  65.2828538  52.3872765 139.6910521
  73.0767015  54.4497566 131.2438612  72.4254995  55.0351647 130.8572626
  73.8711378  54.9803761 131.3033649  67.0022642  51.5386704 131.6425746
  67.7753518  50.9915691 131.5038622  67.3548041  52.4030953 131.8540208
  68.8407685  52.8663086 144.8492646  68.5497551  53.7708717 144.7339312
  69.4764669  52.9079614 145.5636715  69.7663891  50.2439934 141.4394005
  70.3627464  50.0195957 140.7250968  69.8238863  49.5024680 142.0419453
  69.3388920  47.6979370 129.2744196  69.5914441  47.1760891 128.5127659
  68.4013479  47.5345515 129.3770880  74.3832203  46.7015148 137.0818939
  75.1695292  46.2834571 136.7309356  74.6470907  47.6061240 137.2500588
  74.5542280  52.1387998 131.7807596  73.9188113  52.2122625 132.4928501
  74.2239686  52.7281597 131.1026675  79.7840630  46.6390381 137.9851918
  80.5165802  46.0689598 138.2189747  79.0279986  46.2511982 138.4258424
  69.0585209  49.6007476 131.4768571  68.9421467  48.9252379 132.1449655
  69.1687469  49.1139850 130.6600724  71.4016750  49.0617623 135.1815260
  71.0374957  48.5348244 135.8928182  72.2583865  48.6716092 135.0081746
  77.3066050  40.3511955 142.4446527  76.9749375  41.2207366 142.2207742
  76.7111664  40.0348239 143.1240557  71.0422237  44.0907522 130.1776609
  71.2096639  44.9587759 130.5447080  70.8519406  44.2534804 129.2537898
  73.7997570  52.5524501 141.8442439  73.4998293  53.4549540 141.7358246
  73.4548629  52.2856685 142.6963592  67.2510051  49.0038298 137.8779144
  66.3260548  48.8714512 138.0856835  67.4994464  49.7832517 138.3749086
  77.1994714  45.0707042 139.5239877  76.2911591  45.0022450 139.2298638
  77.1482309  45.5478987 140.3521702  71.0211457  46.5465180 131.1623276
  70.9011083  46.9922231 132.0008756  70.3264046  46.8950498 130.6036814
  64.6118862  48.6471572 138.7122933  64.7411243  48.9006051 139.6262344
  63.9316314  49.2399280 138.3927588  68.7818350  59.3168822 134.8113407
  68.7042379  60.2676647 134.8901888  68.1779993  58.9714694 135.4688333
  79.0656360  43.2723480 141.3017751  78.4230740  43.5656013 140.6557545
  78.5611288  43.1576400 142.1070947  76.7196524  47.0186653 131.9903610
  77.6314380  47.2514040 131.8151307  76.2106171  47.6023697 131.4278688
  75.0037291  51.4411281 145.6264902  75.4120647  50.9993692 144.8819535
  74.2814553  50.8663909 145.8799095  71.3568361  46.3783888 142.9998459
  72.2029556  46.8023301 143.1433108  71.2966999  45.7217512 143.6937022
  75.3266106  52.0012472 139.3817191  74.6974968  52.1658186 138.6793259
  74.9391768  52.4154081 140.1528155  79.2055338  52.9366909 136.7361555
  78.5206376  53.3165811 136.1858588  79.2899187  53.5462236 137.4693503
  76.4606269  50.5826869 143.3356899  76.6723165  51.2258628 142.6591280
  76.4136018  49.7489185 142.8678829  74.0632498  43.1944689 140.2393471
  73.2016977  43.4925943 140.5310208  74.0894933  43.4115088 139.3074503
  70.8794068  51.7386880 136.6467276  71.3432413  52.0174583 135.8571899
  70.6150866  50.8370324 136.4640367  67.7718149  51.2858361 139.5847040
  68.3419506  51.7145630 138.9464524  68.3626261  51.0040946 140.2831225
  69.8162954  47.8610032 133.4556841  70.5186997  48.3131076 133.9230768
  69.4843582  47.2193851 134.0836735  63.5588288  46.1193585 138.7573975
  62.7687342  46.3751113 138.2814086  64.0499535  46.9341923 138.8626016
  77.5752097  53.4598824 141.5079256  78.3969541  53.0579011 141.2261937
  77.5714500  53.3567058 142.4595372  65.5103033  46.4838164 135.7157452
  64.7134196  46.5956858 136.2340947  65.2828625  46.8224816 134.8498342
  71.3408701  53.0082867 143.6639966  71.4053133  53.4703274 144.4998138
  70.6319625  52.3780232 143.7922276  85.6658090  49.8037572 137.8564227
  84.9121799  49.2344970 137.7008232  85.8005632  49.7700237 138.8034862
  71.0556718  54.6750975 133.5318947  70.9202393  55.5202510 133.9603794
  71.5966531  54.8770252 132.7684880  64.5086116  52.1926413 134.1046872
  65.0210636  52.9869663 134.2552436  65.1608829  51.4952703 134.0380473
  66.3181001  55.3092169 136.1869625  66.4947629  56.2310134 135.9990609
  67.1137834  54.9950588 136.6164005  72.6825195  55.2974541 147.6619289
  72.2389049  54.5110920 147.3440193  73.3442408  55.4853692 146.9963180
  67.4412316  56.8270343 142.1879967  67.9919741  56.6987406 141.4156961
  66.6023792  57.1265232 141.8374860  74.7806433  55.5777341 145.6900690
  74.7624908  56.3986222 145.1980959  75.7026353  55.4531416 145.9150831
  71.2379487  53.0921471 146.5324198  71.7707824  52.3309759 146.3023506
  70.7093568  52.7995122 147.2748353  62.4735033  50.5215067 134.8806442
  63.3110255  50.9312075 134.6640150  62.6513300  49.5814509 134.8506636
  74.3699465  48.1890148 130.5690275  73.8546088  48.9594752 130.8078663
  74.0976773  47.5155284 131.1923337  71.9546576  43.0339848 135.6275514
  71.0988172  42.6446699 135.4481152  72.3673528  43.1131809 134.7675299
  73.4845722  40.5686192 140.0267073  72.9810518  40.5316327 139.2134879
  73.7776329  41.4778934 140.0863730  69.7288608  40.6524921 139.0333255
  70.5941605  40.4567730 138.6739145  69.7966117  40.4235273 139.9602612
  79.3433739  50.9422502 132.5043449  78.5663182  50.6033662 132.0598611
  80.0225220  50.9475126 131.8298414  74.1585768  46.0617240 132.3950056
  73.8535903  46.3763389 133.2460200  75.1116210  46.1398660 132.4377389
  72.6032200  52.2207463 134.0443010  72.0753561  51.4860223 133.7316248
  72.1019702  52.9982139 133.7982979  77.5825046  50.4156484 139.1610057
  76.9248720  51.1055745 139.2490185  78.3865445  50.8052916 139.5044043
  67.3350927  42.8827129 136.4049622  67.9094679  42.6602311 135.6722815
  67.9221910  42.9515824 137.1578223  76.3930505  48.7700856 137.2113998
  76.9062386  49.4030848 137.7135708  77.0431728  48.1702052 136.8457358
  67.6620514  44.9131590 130.4245507  66.8257827  45.2506277 130.7454782
  67.5225284  44.7780570 129.4872644  69.6373595  39.7568378 135.1324691
  68.9838007  39.4417395 134.5081306  69.5954069  39.1344119 135.8584514
  70.7484800  50.0387673 127.0477983  69.8411862  49.8076927 127.2469132
  71.2455832  49.2425293 127.2351965  73.6552879  58.7485181 129.9674670
  72.9814578  59.0516877 130.5759627  74.0418701  59.5514261 129.6180127
  72.8711335  46.2450312 139.4572339  71.9533897  46.4665259 139.2994027
  73.2871479  46.3196622 138.5984046  73.6546383  47.6441728 134.5875019
  74.4018202  48.1563125 134.2782141  73.9237973  47.3225780 135.4479413
  71.9273033  50.1400268 131.5701974  71.0184253  49.8559301 131.6674443
  71.9568117  50.5599347 130.7105280  77.1592301  53.7506858 135.3393141
  76.7054628  52.9097768 135.3958332  76.5286267  54.3868256 135.6767921
  76.1025220  44.6798844 136.5693809  75.3647977  44.1676230 136.9004051
  76.3551994  44.2399225 135.7577085  75.6025240  55.5883354 136.2742959
  75.8948214  56.1488412 135.5555325  76.1123861  55.8811915 137.0296118
  76.2036848  37.4575096 137.1635578  76.5095724  36.5972459 136.8761493
  76.9289452  38.0492716 136.9634572  62.4961204  47.8605782 135.5517176
  62.2985604  47.2675143 134.8268242  61.9407868  47.5557993 136.2693115
  70.4757927  47.7528889 137.6711769  70.5306537  46.8002725 137.5954245
  69.6649129  47.9088328 138.1553067  71.6249121  51.6809012 128.9090052
  71.1868551  50.9644871 128.4495689  72.3659562  51.9085127 128.3475144
  68.4150287  46.3705949 135.4302148  67.6018153  46.6700119 135.8367340
  68.9109281  45.9761637 136.1476630  70.5658865  56.3663706 137.3636412
  70.5235044  56.5924552 136.4344944  71.4821564  56.1327080 137.5122214
  74.0124499  46.8347773 144.2617042  74.3673887  47.0619246 145.1211507
  74.6596630  47.1666150 143.6394297  79.7422236  49.9566209 134.9666371
  79.6040135  50.1467805 134.0387560  79.3858455  50.7185592 135.4234422
  67.9064362  43.9424304 141.0463383  68.5463741  43.8013063 140.3486346
  67.0741893  43.6558817 140.6701985  79.7691616  52.0242736 139.9777642
  80.2028122  51.9318025 140.8260696  80.4823196  52.0000236 139.3397658
  68.6824666  53.2426735 137.1598375  69.4765264  52.7477055 136.9580950
  67.9716358  52.7144598 136.7966081  73.5019510  55.6244830 141.5110743
  73.5556533  56.1935766 142.2788459  72.6334292  55.7946715 141.1464780
  64.9907429  47.3869816 133.2358128  64.0605018  47.3254272 133.4528090
  65.0864901  46.8645769 132.4394769  64.9092978  43.9124629 135.8236370
  65.1699796  44.8269962 135.7145530  65.7310151  43.4449072 135.9732982
  80.6307165  52.0666437 142.5110528  80.8243055  52.9712247 142.7569803
  80.5307783  51.6073856 143.3449113  75.6922274  52.2173179 148.0851408
  75.5407780  51.9883731 147.1681492  75.6826953  53.1743781 148.0982753
  72.4607610  49.7905092 143.0697675  73.3899670  49.9416252 142.8966642
  72.0398640  49.8789113 142.2146321  71.2595942  53.8155757 140.8396212
  71.1207028  53.4474541 141.7122150  70.4710538  54.3303396 140.6680170
  71.8544094  58.9164853 132.1821749  72.0295850  58.4452896 132.9967371
  71.1676882  59.5430619 132.4103010  72.8101157  53.1937359 138.2285050
  72.4750990  53.1538129 139.1242700  72.3105103  52.5282075 137.7555460
  75.7460349  50.5393394 128.5022110  75.1289519  49.8140222 128.4055162
  75.2776837  51.3002754 128.1589184  69.4127702  48.3124949 143.2421311
  70.1227320  47.6718141 143.2007929  69.3697010  48.5637843 144.1647492
  77.4014480  55.2492302 146.1627890  77.3427027  54.5651522 145.4958473
  77.8033999  55.9911292 145.7108516  66.4205179  62.0654216 138.9561609
  66.6601777  62.6972740 139.6340628  65.5774376  61.7142256 139.2426968
  67.5358895  44.7578818 127.6243414  66.6588361  44.6367619 127.2605661
  68.0116648  43.9664896 127.3722303  77.4031888  53.2131886 144.3941870
  76.5158666  52.8757808 144.5168269  77.9730439  52.4814917 144.6310635
  59.0561035  49.5455978 137.7184921  59.7432075  49.2317708 137.1305936
  58.9009163  50.4497342 137.4452173  70.9333041  57.8733338 141.3603113
  70.8603213  58.6788310 141.8722418  70.4910434  58.0725304 140.5351134
  70.7222821  57.1105108 134.8705934  69.9390343  57.6526788 134.9644159
  71.4215566  57.6279088 135.2700176  74.0319471  42.9199738 137.5140140
  74.5288170  42.1669700 137.1941210  73.2606452  42.9564054 136.9483349
  81.8849228  48.6240103 139.1558431  81.8739104  49.5064819 138.7852364
  81.0166608  48.2711654 138.9612968  73.3931725  57.7720172 143.5161272
  74.1059697  58.4067637 143.4437173  72.9021753  57.8684038 142.7001273
  75.1149252  51.6771425 135.0878563  74.1805530  51.7972887 134.9183268
  75.2925920  50.7743892 134.8238573  70.6154440  45.0617121 137.2411824
  70.2452227  44.5088161 137.9292730  71.1113532  44.4575254 136.6886825
  78.5021803  47.5188744 135.6228597  78.9682255  48.3516736 135.5488900
  78.9529303  47.0533726 136.3273856  68.4443638  55.5214616 144.3366842
  69.1453098  56.1551099 144.4896237  67.9738753  55.8629347 143.5762482
  76.5698034  53.8632565 132.6214749  76.8457878  53.7489160 133.5308624
  75.7002533  53.4650050 132.5826923  76.4738466  39.8869331 139.6619499
  75.5601545  40.1173558 139.8301706  76.9031567  39.9707775 140.5133531
  76.2444924  48.0759223 142.1619393  75.5916374  48.3235131 141.5071846
  76.6225304  47.2623361 141.8281870  73.2052098  58.1118916 136.2647563
  73.3874493  57.2940572 136.7275315  74.0285084  58.3286609 135.8272453
  73.5394263  57.0387101 133.5262612  74.0682030  56.5279556 132.9132774
  73.8022483  56.7229632 134.3908145  64.0411356  55.0550971 141.2697945
  64.6264793  54.3094659 141.4025849  63.8436195  55.3654927 142.1534609
  66.8950011  58.0902218 136.2860387  66.2260387  58.5748346 135.8024428
  66.7562881  58.3371439 137.2003766  71.0355280  60.1245962 142.8843046
  71.5873588  60.2877583 143.6492131  71.3761473  60.7150399 142.2123071
  75.8866154  54.9507219 148.7391700  76.4306058  55.5637177 148.2446655
  75.3052999  55.5086798 149.2558713  62.2637589  46.3520673 133.0656320
  62.5591030  45.4431352 133.0123373  61.3625624  46.3308413 132.7437322
  74.1723667  58.0727937 139.8706728  74.0474807  57.2717677 139.3617674
  74.8302758  58.5674131 139.3820698  65.7931836  44.4276670 139.0483868
  65.0718421  45.0412637 138.9091342  66.5825091  44.9634434 138.9700514
  76.2358576  55.8736957 141.4986278  75.2888911  55.7542308 141.4264605
  76.5841349  54.9859455 141.5812540  63.9925430  44.0334771 133.1895645
  63.6638136  43.1532150 133.0070751  64.3464801  43.9782439 134.0772034
  73.2405009  55.6689673 137.6990630  73.0929971  54.7406381 137.8798200
  74.0658502  55.6909764 137.2147706  67.1067253  44.3207741 133.5571122
  67.4463326  44.8493662 132.8349731  67.5539374  44.6588147 134.3329689
  76.8439131  56.4918232 138.7855503  77.7685678  56.2861094 138.6479954
  76.6754434  56.2434633 139.6944845  69.0935400  42.8182362 131.7564415
  69.8143763  43.1963615 131.2528132  68.4700705  43.5371239 131.8599393
  73.2366523  43.5227511 132.6922748  73.4530138  44.4052149 132.3911576
  72.7560590  43.1313725 131.9628390  67.9765745  46.4813224 139.2693492
  67.8310325  46.7953527 140.1617774  67.4990948  47.0998125 138.7164391
  69.8362128  43.4715772 139.3174382  69.8223696  42.5756866 138.9806680
  70.5534556  43.4786436 139.9512668  71.6888258  43.9053113 141.3627509
  71.4306036  44.8270183 141.3611840  71.1573299  43.5083547 142.0527973
  76.6334447  57.0103900 134.1417595  76.8071325  56.4450322 133.3891447
  77.1263338  57.8104795 133.9597084  62.4511407  49.0218569 142.2081153
  61.9064875  49.7978377 142.3401428  63.3290757  49.3689373 142.0500275
  69.2399023  42.3530153 134.5861952  69.3614935  41.4246799 134.7852839
  68.9501066  42.3668839 133.6740267  72.1090214  40.0385063 137.7228672
  72.1311911  40.1024396 136.7680651  72.5258273  39.1989572 137.9169178
  82.4873838  49.7740323 135.7607894  82.9304984  49.0247648 135.3627018
  81.6100348  49.7650459 135.3781626  77.6209620  56.3270664 131.2414493
  78.3160524  56.9477357 131.4601807  77.9632770  55.4766015 131.5166871
  79.5201043  53.7770370 132.7701824  80.0452367  54.1157642 132.0451144
  79.4323395  52.8417385 132.5864958  71.1821091  57.6904443 144.8991700
  71.4908218  57.4453590 145.7714400  71.9796573  57.8951082 144.4110570
  71.2041703  59.8442353 137.1297077  70.7646694  59.3518732 137.8229933
  71.9549820  59.3015321 136.8889152  63.6834042  56.0353894 137.1321705
  64.5092062  55.7357666 136.7520348  63.3328094  55.2661516 137.5811494
  68.6515576  55.3880362 139.2019378  68.0295585  54.7251067 138.9021606
  69.3220442  55.4141494 138.5193026  61.8842647  53.9540220 138.0910638
  61.0474556  53.5262395 137.9094640  61.8566293  54.1472664 139.0281430
  79.2094949  54.4103273 148.0753022  78.4190492  54.3927412 147.5357521
  78.9728303  54.9491567 148.8302058  79.3292824  51.2595740 145.3885750
  79.3790829  51.0945747 146.3301273  79.2206747  50.3922999 144.9983631
  68.2129082  53.9384285 132.6777839  68.3617203  54.6219750 132.0244512
  69.0195526  53.9189375 133.1927295  80.8311021  53.6792681 145.6327772
  80.5395829  54.0422662 146.4691233  80.2183152  52.9659689 145.4541104
  82.0306703  51.2445561 138.1530342  82.8653594  51.6835365 138.3167902
  82.1665832  50.7684214 137.3338588  79.0798209  48.8025296 144.1007830
  79.5552330  48.9952942 143.2926681  78.1563774  48.8584482 143.8551213
  65.9681715  49.9649463 133.6838908  65.7227757  49.0611793 133.8819118
  66.1377630  49.9666613 132.7418386  65.2377363  45.6977821 131.1825069
  64.5446608  45.7722175 130.5265105  64.9929115  44.9338164 131.7046586
  73.9091019  37.2573422 138.5864560  74.1892773  36.5896611 139.2124987
  74.6941626  37.4502517 138.0739224  71.7124488  56.4332416 130.1489586
  71.1398455  57.0522603 129.6960058  72.2857282  56.9831777 130.6829508
  77.7799878  45.6791056 142.3336135  78.7317301  45.7789154 142.3548359
  77.6103328  44.8869324 142.8434220  75.8014257  42.7646639 142.5195536
  75.2064189  43.0451652 141.8242025  75.5163954  43.2540540 143.2912277
  74.9321748  56.7169566 131.2798169  75.8652421  56.6515128 131.4831044
  74.8444961  57.5525833 130.8212701  77.5609764  56.0335436 128.2402116
  77.4823396  55.6995300 129.1337874  78.3819431  56.5257204 128.2393589
  80.2587956  48.8997176 141.4478435  80.2264276  47.9613176 141.6338119
  80.8688579  48.9781212 140.7144260  72.0971286  47.7693229 127.4905639
  73.0430391  47.6399437 127.5594057  71.7185531  47.0307890 127.9675067
  80.4082444  45.6908219 141.4936718  79.8921493  44.9066676 141.3066647
  81.2922393  45.3626936 141.6583238  78.0693171  39.4349235 137.4532531
  77.8717992  39.1264323 138.3375863  78.6792877  40.1610873 137.5830461
  86.0764505  49.9613182 140.5884472  86.8067894  49.6998470 141.1492175
  85.4671451  49.2241904 140.6286540  84.1579803  48.1021045 141.1858923
  83.4312966  47.9677010 140.5775414  83.7427089  48.4097874 141.9915641
  70.2814204  45.6943205 127.4260524  69.3745659  45.3976318 127.5023238
  70.5590185  45.3973023 126.5594810  61.1992144  47.0149568 137.8759571
  60.8794928  46.1614876 137.5833945  60.6525572  47.2298146 138.6317538
  64.9772052  49.7312009 141.5929077  65.1958061  50.6629117 141.6117111
  65.3897825  49.3719984 142.3783881  71.8976269  40.2380095 133.5804765
  71.0876998  39.8927180 133.9560012  72.5860686  39.9287638 134.1692377
  73.8266818  39.3158141 135.2029062  74.3797856  39.7353595 135.8619085
  74.0636904  38.3893890 135.2452018  69.0512988  42.5530140 127.5672503
  69.9132152  42.8785038 127.8268321  69.2363332  41.7661636 127.0545569
  61.0680404  50.6352480 139.8452692  60.3743875  50.2206433 139.3322647
  61.8153395  50.6773016 139.2486111  77.2045625  41.4258667 134.7107726
  76.6244294  42.0843471 134.3285779  76.9381557  40.6036011 134.2995144
  75.6549191  40.8263724 136.9129047  76.1548969  40.9380259 136.1043365
  76.2984799  40.5224777 137.5529855  62.9817147  50.5670734 137.7218707
  62.9587835  50.6658421 136.7700590  63.2917783  51.4135884 138.0435873
  65.6404524  52.6246889 141.8365321  66.5947778  52.5930831 141.7695253
  65.4417048  52.1637512 142.6515547  66.2303907  51.1948005 144.4036119
  67.0496796  51.6892083 144.4270956  66.5040714  50.2779973 144.3753687
  75.9870503  43.5858757 133.7664075  75.0996358  43.8708408 133.5484269
  76.4024492  43.4252520 132.9191351  79.3385039  43.6105278 137.4818414
  80.1145429  44.1001730 137.7543031  78.6133173  44.0363332 137.9390283
  81.7757597  44.3232897 138.5392354  82.3702088  44.0828633 137.8285663
  81.8484181  43.6040028 139.1665891  63.9954753  58.1666508 138.8535519
  63.8609221  57.4066909 138.2873517  63.5786815  58.8907408 138.3864308
  75.1313716  53.3503432 127.8612095  75.8349566  53.5553434 128.4769750
  74.4076365  53.9180194 128.1261178  75.9611526  49.1013293 133.9814365
  75.9046728  49.5581844 133.1421997  76.5139869  48.3403977 133.8037208
  79.7716332  44.8903025 134.8064484  79.5153267  44.4899660 135.6372692
  79.1469200  45.6046819 134.6814623  84.0828670  47.6299098 137.3135776
  83.5228228  47.6992287 138.0867338  83.4772174  47.4540083 136.5935272
  67.1523879  59.0635825 139.0653962  67.0356263  60.0081258 138.9632652
  66.3316325  58.7609387 139.4539761  77.0400414  53.7885961 129.9110555
  77.8746018  53.3567159 129.7288029  76.8784757  53.6167975 130.8387449
  76.6946306  50.2918074 131.2766894  76.6395110  50.1262346 130.3355338
  76.0692361  50.9994107 131.4329084  70.0042431  39.7926183 130.8552212
  69.9921101  40.7368023 131.0120483  70.8965853  39.6096329 130.5611674
  68.1778393  59.7164087 142.2809890  69.0805640  59.7487697 142.5976385
  67.9515763  58.7864538 142.2956226  69.9331995  58.4695074 138.9419969
  68.9827626  58.4696935 138.8284341  70.2364481  57.7227808 138.4256004
  73.8194551  36.3868960 135.1098149  73.0526947  35.8327446 135.2554831
  74.2305256  36.4590829 135.9712301  85.6684689  64.3055612 140.0065731
  86.3063099  64.1862359 139.3029071  85.5505532  65.2536456 140.0653684
  82.4774395  64.2583040 139.9427256  82.1392907  64.1424105 139.0547791
  83.3464163  63.8574205 139.9228262  78.3361211  66.1118516 135.9324147
  77.7726076  66.0208453 135.1640435  78.2213606  65.2918421 136.4126640
  82.9594178  65.4117892 145.9013462  82.9482819  65.0170690 145.0293965
  83.1214817  64.6783964 146.4947233  75.8825643  67.6069708 138.7708367
  76.6746935  67.2660533 138.3554667  76.1222293  67.7164683 139.6910521
  83.9160769  69.7789484 131.2438612  83.2648749  70.3643565 130.8572626
  84.7105132  70.3095679 131.3033649  77.8416397  66.8678621 131.6425746
  78.6147273  66.3207608 131.5038622  78.1941795  67.7322871 131.8540208
  79.6801439  68.1955004 144.8492646  79.3891305  69.1000634 144.7339312
  80.3158423  68.2371531 145.5636715  80.6057646  65.5731852 141.4394005
  81.2021218  65.3487874 140.7250968  80.6632617  64.8316598 142.0419453
  80.1782674  63.0271287 129.2744196  80.4308195  62.5052809 128.5127659
  79.2407233  62.8637433 129.3770880  85.2225957  62.0307066 137.0818939
  86.0089046  61.6126489 136.7309356  85.4864662  62.9353158 137.2500588
  85.3936035  67.4679916 131.7807596  84.7581868  67.5414543 132.4928501
  85.0633441  68.0573515 131.1026675  90.6234384  61.9682299 137.9851918
  91.3559556  61.3981516 138.2189747  89.8673740  61.5803899 138.4258424
  79.8978963  64.9299393 131.4768571  79.7815221  64.2544297 132.1449655
  80.0081223  64.4431767 130.6600724  82.2410504  64.3909540 135.1815260
  81.8768711  63.8640161 135.8928182  83.0977620  64.0008010 135.0081746
  88.1459805  55.6803873 142.4446527  87.8143129  56.5499284 142.2207742
  87.5505418  55.3640157 143.1240557  81.8815991  59.4199440 130.1776609
  82.0490393  60.2879677 130.5447080  81.6913160  59.5826722 129.2537898
  84.6391324  67.8816419 141.8442439  84.3392047  68.7841458 141.7358246
  84.2942384  67.6148602 142.6963592  78.0903806  64.3330216 137.8779144
  77.1654302  64.2006430 138.0856835  78.3388219  65.1124435 138.3749086
  88.0388468  60.3998959 139.5239877  87.1305345  60.3314368 139.2298638
  87.9876064  60.8770904 140.3521702  81.8605212  61.8757098 131.1623276
  81.7404837  62.3214148 132.0008756  81.1657800  62.2242415 130.6036814
  75.4512617  63.9763489 138.7122933  75.5804998  64.2297968 139.6262344
  74.7710068  64.5691197 138.3927588  79.6212104  74.6460739 134.8113407
  79.5436134  75.5968565 134.8901888  79.0173748  74.3006612 135.4688333
  82.1129334  61.8188605 147.4674774  81.3362668  62.3782525 147.4577638
  82.7519897  62.3045388 147.9889644  89.9050114  58.6015398 141.3017751
  89.2624495  58.8947931 140.6557545  89.4005043  58.4868318 142.1070947
  87.5590278  62.3478571 131.9903610  88.4708134  62.5805958 131.8151307
  87.0499925  62.9315615 131.4278688  80.3675706  64.6274058 147.0292741
  81.1090390  65.1659102 146.7527564  79.6612692  65.2540347 147.1864293
  85.8431046  66.7703199 145.6264902  86.2514402  66.3285609 144.8819535
  85.1208307  66.1955826 145.8799095  82.1962116  61.7075805 142.9998459
  83.0423311  62.1315219 143.1433108  82.1360753  61.0509430 143.6937022
  86.1659860  67.3304389 139.3817191  85.5368723  67.4950103 138.6793259
  85.7785522  67.7445999 140.1528155  90.0449092  68.2658827 136.7361555
  89.3600130  68.6457729 136.1858588  90.1292942  68.8754154 137.4693503
  85.3461561  59.3680174 144.6579633  85.1022493  60.1222234 144.1213909
  85.6221492  59.7465521 145.4926880  87.3000024  65.9118786 143.3356899
  87.5116919  66.5550546 142.6591280  87.2529772  65.0781103 142.8678829
  84.9026253  58.5236607 140.2393471  84.0410732  58.8217860 140.5310208
  84.9288687  58.7407006 139.3074503  81.7187822  67.0678797 136.6467276
  82.1826168  67.3466500 135.8571899  81.4544620  66.1662242 136.4640367
  78.6111903  66.6150279 139.5847040  79.1813260  67.0437547 138.9464524
  79.2020015  66.3332864 140.2831225  80.6556708  63.1901950 133.4556841
  81.3580752  63.6422993 133.9230768  80.3237337  62.5485769 134.0836735
  79.1037070  61.7813706 147.8308051  78.4735730  62.4629987 148.0643448
  78.9973158  61.6696788 146.8861189  74.3982042  61.4485502 138.7573975
  73.6081096  61.7043031 138.2814086  74.8893290  62.2633840 138.8626016
  88.4145852  68.7890742 141.5079256  89.2363296  68.3870929 141.2261937
  88.4108255  68.6858976 142.4595372  76.3496788  61.8130082 135.7157452
  75.5527951  61.9248776 136.2340947  76.1222380  62.1516734 134.8498342
  82.1802455  68.3374785 143.6639966  82.2446888  68.7995192 144.4998138
  81.4713379  67.7072150 143.7922276  72.6819745  61.7015993 141.1888966
  72.9327784  62.5863003 141.4546542  73.2179294  61.5220594 140.4164058
  96.5051845  65.1329490 137.8564227  95.7515553  64.5636888 137.7008232
  96.6399386  65.0992155 138.8034862  81.8950473  70.0042892 133.5318947
  81.7596148  70.8494428 133.9603794  82.4360285  70.2062170 132.7684880
  78.3817813  56.0834472 150.1933302  77.9884758  55.5300671 150.8680946
  79.1983953  56.3945051 150.5839819  75.3479870  67.5218330 134.1046872
  75.8604391  68.3161581 134.2552436  76.0002583  66.8244621 134.0380473
  77.1574755  70.6384087 136.1869625  77.3341383  71.5602051 135.9990609
  77.9531589  70.3242506 136.6164005  81.2985774  57.4992351 147.7853558
  82.0395487  58.0999504 147.7058021  81.5303696  56.7569989 147.2271601
  76.4427112  62.6848719 146.0631788  76.3280627  61.7833976 146.3638887
  75.5871629  62.9312415 145.7116605  83.5218949  70.6266459 147.6619289
  83.0782803  69.8402837 147.3440193  84.1836163  70.8145609 146.9963180
  78.2806070  72.1562260 142.1879967  78.8313496  72.0279324 141.4156961
  77.4417546  72.4557150 141.8374860  85.6200187  70.9069259 145.6900690
  85.6018663  71.7278140 145.1980959  86.5420107  70.7823334 145.9150831
  82.0773242  68.4213388 146.5324198  82.6101578  67.6601676 146.3023506
  81.5487323  68.1287040 147.2748353  85.2442936  53.5273454 142.0617840
  84.9007206  54.4175096 141.9856951  85.6121899  53.3375112 141.1987425
  73.3128787  65.8506985 134.8806442  74.1504009  66.2603993 134.6640150
  73.4907055  64.9106427 134.8506636  85.2093219  63.5182065 130.5690275
  84.6939843  64.2886670 130.8078663  84.9370528  62.8447202 131.1923337
  82.7940330  58.3631766 135.6275514  81.9381927  57.9738617 135.4481152
  83.2067282  58.4423727 134.7675299  84.3239477  55.8978109 140.0267073
  83.8204272  55.8608245 139.2134879  84.6170084  56.8070852 140.0863730
  80.5682363  55.9816839 139.0333255  81.4335360  55.7859648 138.6739145
  80.6359872  55.7527191 139.9602612  90.1827493  66.2714420 132.5043449
  89.4056936  65.9325580 132.0598611  90.8618974  66.2767043 131.8298414
  84.9979522  61.3909157 132.3950056  84.6929658  61.7055307 133.2460200
  85.9509964  61.4690577 132.4377389  83.4425954  67.5499381 134.0443010
  82.9147316  66.8152140 133.7316248  82.9413457  68.3274057 133.7982979
  88.4218800  65.7448401 139.1610057  87.7642475  66.4347663 139.2490185
  89.2259199  66.1344833 139.5044043  78.1744682  58.2119047 136.4049622
  78.7488434  57.9894229 135.6722815  78.7615664  58.2807742 137.1578223
  87.2324259  64.0992774 137.2113998  87.7456141  64.7322766 137.7135708
  87.8825483  63.4993969 136.8457358  78.5014269  60.2423508 130.4245507
  77.6651581  60.5798195 130.7454782  78.3619039  60.1072488 129.4872644
  80.4767350  55.0860296 135.1324691  79.8231762  54.7709313 134.5081306
  80.4347824  54.4636036 135.8584514  81.5878554  65.3679591 127.0477983
  80.6805616  65.1368845 127.2469132  82.0849586  64.5717210 127.2351965
  84.4946633  74.0777098 129.9674670  83.8208332  74.3808795 130.5759627
  84.8812455  74.8806179 129.6180127  83.7105090  61.5742230 139.4572339
  82.7927651  61.7957177 139.2994027  84.1265234  61.6488540 138.5984046
  84.4940138  62.9733645 134.5875019  85.2411957  63.4855042 134.2782141
  84.7631727  62.6517698 135.4479413  82.7666788  65.4692186 131.5701974
  81.8578007  65.1851219 131.6674443  82.7961872  65.8891264 130.7105280
  87.9986055  69.0798775 135.3393141  87.5448382  68.2389685 135.3958332
  87.3680022  69.7160174 135.6767921  86.9418975  60.0090761 136.5693809
  86.2041732  59.4968148 136.9004051  87.1945748  59.5691143 135.7577085
  86.4418994  70.9175272 136.2742959  86.7341969  71.4780329 135.5555325
  86.9517615  71.2103833 137.0296118  87.0430602  52.7867013 137.1635578
  87.3489479  51.9264377 136.8761493  87.7683207  53.3784634 136.9634572
  73.3354958  63.1897700 135.5517176  73.1379358  62.5967061 134.8268242
  72.7801622  62.8849910 136.2693115  81.3151682  63.0820807 137.6711769
  81.3700292  62.1294643 137.5954245  80.5042884  63.2380246 138.1553067
  82.4642876  67.0100930 128.9090052  82.0262306  66.2936789 128.4495689
  83.2053317  67.2377044 128.3475144  79.2544042  61.6997866 135.4302148
  78.4411907  61.9992037 135.8367340  79.7503036  61.3053555 136.1476630
  81.4052620  71.6955623 137.3636412  81.3628798  71.9216470 136.4344944
  82.3215319  71.4618998 137.5122214  84.8518253  62.1639691 144.2617042
  85.2067641  62.3911164 145.1211507  85.4990385  62.4958068 143.6394297
  90.5815990  65.2858127 134.9666371  90.4433889  65.4759723 134.0387560
  90.2252209  66.0477509 135.4234422  78.7458117  59.2716222 141.0463383
  79.3857496  59.1304981 140.3486346  77.9135647  58.9850735 140.6701985
  90.6085370  67.3534654 139.9777642  91.0421877  67.2609943 140.8260696
  91.3216951  67.3292154 139.3397658  79.5218420  68.5718652 137.1598375
  80.3159019  68.0768972 136.9580950  78.8110113  68.0436515 136.7966081
  84.3413265  70.9536748 141.5110743  84.3950287  71.5227684 142.2788459
  83.4728046  71.1238633 141.1464780  75.8301184  62.7161734 133.2358128
  74.8998772  62.6546189 133.4528090  75.9258656  62.1937687 132.4394769
  75.7486733  59.2416547 135.8236370  76.0093550  60.1561880 135.7145530
  76.5703905  58.7740989 135.9732982  77.2211658  60.6554304 142.9935194
  77.8934712  60.4471666 142.3447843  76.3941445  60.4576390 142.5540426
  91.4700920  67.3958354 142.5110528  91.6636810  68.3004165 142.7569803
  91.3701538  66.9365773 143.3449113  83.1237230  57.2816245 145.0100855
  82.4765145  57.9806195 144.9165331  83.8938246  57.7152389 145.3777103
  86.5316028  67.5465097 148.0851408  86.3801535  67.3175649 147.1681492
  86.5220708  68.5035698 148.0982753  83.3001365  65.1197010 143.0697675
  84.2293425  65.2708169 142.8966642  82.8792395  65.2081031 142.2146321
  82.0989696  69.1447674 140.8396212  81.9600782  68.7766459 141.7122150
  81.3104293  69.6595314 140.6680170  82.6937848  74.2456771 132.1821749
  82.8689604  73.7744814 132.9967371  82.0070636  74.8722537 132.4103010
  83.6494912  68.5229277 138.2285050  83.3144744  68.4830047 139.1242700
  83.1498857  67.8573993 137.7555460  77.6239156  63.9296907 143.7537631
  77.4858954  63.1977146 144.3549170  78.5344079  63.8405807 143.4721819
  86.5854103  65.8685311 128.5022110  85.9683274  65.1432139 128.4055162
  86.1170592  66.6294672 128.1589184  80.2521456  63.6416866 143.2421311
  80.9621075  63.0010058 143.2007929  80.2090764  63.8929761 144.1647492
  88.2408235  70.5784220 146.1627890  88.1820781  69.8943440 145.4958473
  88.6427753  71.3203210 145.7108516  78.9650390  60.6282084 145.0616950
  78.4287747  60.1772823 145.7138547  78.3767099  60.7627993 144.3187415
  77.2598934  77.3946133 138.9561609  77.4995532  78.0264658 139.6340628
  76.4168130  77.0434173 139.2426968  78.3752649  60.0870736 127.6243414
  77.4982115  59.9659536 127.2605661  78.8510402  59.2956814 127.3722303
  88.2425642  68.5423804 144.3941870  87.3552421  68.2049725 144.5168269
  88.8124193  67.8106835 144.6310635  69.8954789  64.8747895 137.7184921
  70.5825829  64.5609625 137.1305936  69.7402918  65.7789260 137.4452173
  74.6989511  59.7638092 142.1469945  74.6147700  59.1563761 141.4120355
  73.8772218  60.2547110 142.1479441  81.7726796  73.2025256 141.3603113
  81.6996967  74.0080227 141.8722418  81.3304189  73.4017222 140.5351134
  81.5616575  72.4397026 134.8705934  80.7784097  72.9818706 134.9644159
  82.2609320  72.9571006 135.2700176  84.8713225  58.2491655 137.5140140
  85.3681925  57.4961618 137.1941210  84.1000207  58.2855972 136.9483349
  92.7242983  63.9532021 139.1558431  92.7132859  64.8356736 138.7852364
  91.8560362  63.6003572 138.9612968  84.2325479  73.1012090 143.5161272
  84.9453451  73.7359555 143.4437173  83.7415508  73.1975956 142.7001273
  85.9543006  67.0063343 135.0878563  85.0199285  67.1264805 134.9183268
  86.1319674  66.1035809 134.8238573  81.4548194  60.3909038 137.2411824
  81.0845982  59.8380079 137.9292730  81.9507287  59.7867172 136.6886825
  89.3415557  62.8480662 135.6228597  89.8076010  63.6808653 135.5488900
  89.7923058  62.3825643 136.3273856  79.2837393  70.8506533 144.3366842
  79.9846852  71.4843016 144.4896237  78.8132508  71.1921265 143.5762482
  87.4091788  69.1924483 132.6214749  87.6851632  69.0781078 133.5308624
  86.5396287  68.7941968 132.5826923  87.3132220  55.2161249 139.6619499
  86.3995300  55.4465476 139.8301706  87.7425322  55.2999693 140.5133531
  87.0838679  63.4051141 142.1619393  86.4310129  63.6527048 141.5071846
  87.4619058  62.5915279 141.8281870  84.0445852  73.4410834 136.2647563
  84.2268247  72.6232490 136.7275315  84.8678838  73.6578526 135.8272453
  84.3788018  72.3679019 133.5262612  84.9075784  71.8571474 132.9132774
  84.6416238  72.0521549 134.3908145  83.1326252  64.1470952 148.6485430
  82.4566889  64.0465081 149.3187805  83.9553886  63.9910166 149.1121427
  74.8805111  70.3842888 141.2697945  75.4658548  69.6386576 141.4025849
  74.6829949  70.6946845 142.1534609  77.7343766  73.4194136 136.2860387
  77.0654141  73.9040263 135.8024428  77.5956636  73.6663356 137.2003766
  69.4722765  62.9548489 139.9902388  69.5106865  62.4212079 140.7839506
  68.9663058  62.4283694 139.3713365  81.8749035  75.4537879 142.8843046
  82.4267343  75.6169501 143.6492131  82.2155228  76.0442317 142.2123071
  76.8513528  57.8013029 143.4864931  76.9154854  58.6627860 143.0742328
  76.7880648  57.1887031 142.7537289  76.3265800  59.8736162 147.1337965
  76.9537839  59.4913239 147.7475489  75.4693719  59.6550364 147.4993657
  86.7259909  70.2799137 148.7391700  87.2699813  70.8929095 148.2446655
  86.1446754  70.8378715 149.2558713  73.1031343  61.6812591 133.0656320
  73.3984784  60.7723269 133.0123373  72.2019379  61.6600330 132.7437322
  85.0117422  73.4019855 139.8706728  84.8868561  72.6009595 139.3617674
  85.6696513  73.8966048 139.3820698  76.6325590  59.7568587 139.0483868
  75.9112176  60.3704555 138.9091342  77.4218846  60.2926352 138.9700514
  87.0752330  71.2028875 141.4986278  86.1282666  71.0834226 141.4264605
  87.4235103  70.3151373 141.5812540  79.4351904  57.0923014 145.3224520
  79.9586305  57.3385310 146.0850829  79.2164237  57.9243049 144.9027657
  74.8319185  59.3626688 133.1895645  74.5031891  58.4824067 133.0070751
  75.1858555  59.3074357 134.0772034  84.0798763  70.9981591 137.6990630
  83.9323726  70.0698299 137.8798200  84.9052257  71.0201682 137.2147706
  77.9461008  59.6499658 133.5571122  78.2857080  60.1785579 132.8349731
  78.3933128  59.9880064 134.3329689  87.6832885  71.8210150 138.7855503
  88.6079433  71.6153011 138.6479954  87.5148189  71.5726551 139.6944845
  80.6404449  58.0336709 143.0074191  80.3001269  57.2344522 143.4094870
  79.9343455  58.3338420 142.4351024  81.2920920  55.1186021 141.4601514
  82.1146990  54.6446500 141.3380404  81.5358984  55.8976505 141.9600200
  79.9329155  58.1474280 131.7564415  80.6537517  58.5255533 131.2528132
  79.3094459  58.8663157 131.8599393  84.0760278  58.8519429 132.6922748
  84.2923892  59.7344067 132.3911576  83.5954345  58.4605642 131.9628390
  78.8159499  61.8105142 139.2693492  78.6704080  62.1245445 140.1617774
  78.3384703  62.4290042 138.7164391  80.6755882  58.8007690 139.3174382
  80.6617451  57.9048783 138.9806680  81.3928310  58.8078354 139.9512668
  82.5282013  59.2345030 141.3627509  82.2699791  60.1562101 141.3611840
  81.9967053  58.8375465 142.0527973  87.4728202  72.3395817 134.1417595
  87.6465079  71.7742240 133.3891447  87.9657093  73.1396712 133.9597084
  73.2905161  64.3510486 142.2081153  72.7458629  65.1270294 142.3401428
  74.1684511  64.6981291 142.0500275  80.0792778  57.6822070 134.5861952
  80.2008689  56.7538716 134.7852839  79.7894820  57.6960756 133.6740267
  82.9483968  55.3676981 137.7228672  82.9705665  55.4316314 136.7680651
  83.3652027  54.5281489 137.9169178  93.3267593  65.1032240 135.7607894
  93.7698739  64.3539565 135.3627018  92.4494103  65.0942377 135.3781626
  88.4603374  71.6562582 131.2414493  89.1554279  72.2769274 131.4601807
  88.8026524  70.8057933 131.5166871  74.0771183  63.4780383 145.1011310
  73.3352919  63.6263018 145.6875941  73.7563927  63.7388648 144.2378060
  90.3594797  69.1062287 132.7701824  90.8846121  69.4449560 132.0451144
  90.2717150  68.1709303 132.5864958  82.0214846  73.0196361 144.8991700
  82.3301972  72.7745508 145.7714400  82.8190328  73.2242999 144.4110570
  82.0435458  75.1734271 137.1297077  81.6040448  74.6810649 137.8229933
  82.7943575  74.6307238 136.8889152  74.5227797  71.3645811 137.1321705
  75.3485817  71.0649583 136.7520348  74.1721849  70.5953434 137.5811494
  79.4909330  70.7172280 139.2019378  78.8689339  70.0542985 138.9021606
  80.1614197  70.7433412 138.5193026  72.7236402  69.2832138 138.0910638
  71.8868310  68.8554312 137.9094640  72.6960047  69.4764581 139.0281430
  79.5633858  59.1954068 148.7951884  79.6122013  60.0716190 148.4129654
  80.1056372  58.6531461 148.2223528  90.0488703  69.7395191 148.0753022
  89.2584247  69.7219330 147.5357521  89.8122058  70.2783485 148.8302058
  90.1686578  66.5887657 145.3885750  90.2184583  66.4237665 146.3301273
  90.0600502  65.7214916 144.9983631  79.0522837  69.2676203 132.6777839
  79.2010957  69.9511667 132.0244512  79.8589280  69.2481293 133.1927295
  87.4590341  62.5718585 146.7045057  88.3600203  62.4325050 146.4129055
  87.5338315  62.7373040 147.6443234  81.7933146  59.9485440 145.5498243
  80.9236455  60.2419006 145.2780832  82.0292626  60.5325885 146.2705507
  91.6704775  69.0084599 145.6327772  91.3789583  69.3714579 146.4691233
  91.0576906  68.2951607 145.4541104  92.8700457  66.5737479 138.1530342
  93.7047349  67.0127283 138.3167902  93.0059586  66.0976132 137.3338588
  89.9191963  64.1317213 144.1007830  90.3946085  64.3244860 143.2926681
  88.9957529  64.1876399 143.8551213  76.8075470  65.2941381 133.6838908
  76.5621512  64.3903711 133.8819118  76.9771384  65.2958531 132.7418386
  84.4972180  56.1665057 143.0663664  85.0154124  56.9026084 142.7410152
  84.1427313  56.4729050 143.9010423  76.0771117  61.0269738 131.1825069
  75.3840362  61.1014093 130.5265105  75.8322869  60.2630082 131.7046586
  84.7484774  52.5865340 138.5864560  85.0286528  51.9188529 139.2124987
  85.5335381  52.7794435 138.0739224  82.5518242  71.7624333 130.1489586
  81.9792210  72.3814521 129.6960058  83.1251036  72.3123695 130.6829508
  88.6193632  61.0082974 142.3336135  89.5711055  61.1081071 142.3548359
  88.4497083  60.2161242 142.8434220  86.6408012  58.0938557 142.5195536
  86.0457944  58.3743569 141.8242025  86.3557708  58.5832458 143.2912277
  85.7715502  72.0461484 131.2798169  86.7046175  71.9807045 131.4831044
  85.6838715  72.8817750 130.8212701  88.4003519  71.3627354 128.2402116
  88.3217150  71.0287217 129.1337874  89.2213186  71.8549122 128.2393589
  91.0981710  64.2289093 141.4478435  91.0658030  63.2905094 141.6338119
  91.7082334  64.3073130 140.7144260  82.9365041  63.0985146 127.4905639
  83.8824146  62.9691354 127.5594057  82.5579286  62.3599808 127.9675067
  91.2476199  61.0200137 141.4936718  90.7315247  60.2358593 141.3066647
  92.1316147  60.6918853 141.6583238  88.9086925  54.7641152 137.4532531
  88.7111747  54.4556240 138.3375863  89.5186631  55.4902791 137.5830461
  96.9158260  65.2905100 140.5884472  97.6461648  65.0290388 141.1492175
  96.3065205  64.5533822 140.6286540  94.9973557  63.4312963 141.1858923
  94.2706721  63.2968928 140.5775414  94.5820844  63.7389791 141.9915641
  82.8203733  67.1502892 148.9506296  83.7406743  67.3281491 149.1446342
  82.7853317  66.2058938 148.7985995  81.1207958  61.0235123 127.4260524
  80.2139413  60.7268235 127.5023238  81.3983939  60.7264941 126.5594810
  72.0385898  62.3441486 137.8759571  71.7188683  61.4906794 137.5833945
  71.4919327  62.5590064 138.6317538  75.8165806  65.0603927 141.5929077
  76.0351816  65.9921035 141.6117111  76.2291580  64.7011901 142.3783881
  82.7370024  55.5672012 133.5804765  81.9270752  55.2219097 133.9560012
  83.4254441  55.2579556 134.1692377  84.6660572  54.6450059 135.2029062
  85.2191611  55.0645513 135.8619085  84.9030658  53.7185807 135.2452018
  80.6893671  60.6337133 150.9831826  80.5890398  61.5831490 150.9143917
  80.4715213  60.3055372 150.1107896  79.8906743  57.8822058 127.5672503
  80.7525907  58.2076956 127.8268321  80.0757087  57.0953554 127.0545569
  71.9074158  65.9644397 139.8452692  71.2137630  65.5498350 139.3322647
  72.6547149  66.0064934 139.2486111  88.0439379  56.7550584 134.7107726
  87.4638048  57.4135388 134.3285779  87.7775312  55.9327929 134.2995144
  86.4942946  56.1555642 136.9129047  86.9942724  56.2672176 136.1043365
  87.1378553  55.8516695 137.5529855  80.5524941  64.0634272 149.7996888
  80.0692023  64.8634632 150.0060777  80.6385880  64.0742216 148.8464332
  73.8210901  65.8962651 137.7218707  73.7981589  65.9950339 136.7700590
  74.1311538  66.7427802 138.0435873  76.4798279  67.9538806 141.8365321
  77.4341532  67.9222749 141.7695253  76.2810802  67.4929430 142.6515547
  77.0697661  66.5239922 144.4036119  77.8890550  67.0184001 144.4270956
  77.3434469  65.6071890 144.3753687  86.8264257  58.9150675 133.7664075
  85.9390112  59.2000325 133.5484269  87.2418246  58.7544438 132.9191351
  90.1778793  58.9397196 137.4818414  90.9539183  59.4293648 137.7543031
  89.4526928  59.3655250 137.9390283  92.6151352  59.6524815 138.5392354
  93.2095843  59.4120551 137.8285663  92.6877936  58.9331945 139.1665891
  74.8348508  73.4958426 138.8535519  74.7002976  72.7358827 138.2873517
  74.4180570  74.2199326 138.3864308  85.9707471  68.6795349 127.8612095
  86.6743321  68.8845352 128.4769750  85.2470119  69.2472111 128.1261178
  86.8005281  64.4305211 133.9814365  86.7440482  64.8873762 133.1421997
  87.3533623  63.6695895 133.8037208  90.6110087  60.2194942 134.8064484
  90.3547021  59.8191578 135.6372692  89.9862955  60.9338736 134.6814623
  94.9222425  62.9591016 137.3135776  94.3621983  63.0284205 138.0867338
  94.3165928  62.7832000 136.5935272  77.9917634  74.3927743 139.0653962
  77.8750018  75.3373175 138.9632652  77.1710080  74.0901304 139.4539761
  87.8794168  69.1177878 129.9110555  88.7139772  68.6859077 129.7288029
  87.7178511  68.9459892 130.8387449  87.5340060  65.6209992 131.2766894
  87.4788864  65.4554263 130.3355338  86.9086116  66.3286025 131.4329084
  72.3232575  60.8578056 145.1028316  72.9691439  60.3477010 145.5915541
  72.1149726  61.5946738 145.6771741  84.8485967  67.9258904 150.6020457
  85.7177127  68.0999556 150.2407092  84.3692719  68.7453320 150.4796186
  80.8436186  55.1218101 130.8552212  80.8314856  56.0659941 131.0120483
  81.7359608  54.9388246 130.5611674  79.0172148  75.0456005 142.2809890
  79.9199394  75.0779615 142.5976385  78.7909518  74.1156456 142.2956226
  80.7725750  73.7986991 138.9419969  79.8221381  73.7988853 138.8284341
  81.0758236  73.0519726 138.4256004  84.6588305  51.7160877 135.1098149
  83.8920701  51.1619364 135.2554831  85.0699010  51.7882746 135.9712301
  76.6630066  58.0045673 149.2003330  77.5261528  57.6482478 149.4106655
  76.0895477  57.6659568 149.8878735  96.5078443  79.6347530 140.0065731
  97.1456853  79.5154277 139.3029071  96.3899286  80.5828374 140.0653684
  93.3168149  79.5874958 139.9427256  92.9786661  79.4716022 139.0547791
  94.1857918  79.1866123 139.9228262  89.1754965  81.4410434 135.9324147
  88.6119830  81.3500371 135.1640435  89.0607360  80.6210339 136.4126640
  86.7219397  82.9361626 138.7708367  87.5140689  82.5952450 138.3554667
  86.9616047  83.0456601 139.6910521  94.7554524  85.1081402 131.2438612
  94.1042504  85.6935482 130.8572626  95.5498887  85.6387597 131.3033649
  88.6810151  82.1970539 131.6425746  89.4541027  81.6499526 131.5038622
  89.0335550  83.0614788 131.8540208  91.4451400  80.9023770 141.4394005
  92.0414973  80.6779792 140.7250968  91.5026372  80.1608515 142.0419453
  91.0176429  78.3563205 129.2744196  91.2701950  77.8344726 128.5127659
  90.0800988  78.1929351 129.3770880  96.0619712  77.3598983 137.0818939
  96.8482801  76.9418407 136.7309356  96.3258416  78.2645076 137.2500588
  96.2329789  82.7971834 131.7807596  95.5975622  82.8706460 132.4928501
  95.9027195  83.3865433 131.1026675 101.4628139  77.2974217 137.9851918
 102.1953311  76.7273433 138.2189747 100.7067495  76.9095817 138.4258424
  90.7372718  80.2591311 131.4768571  90.6208976  79.5836214 132.1449655
  90.8474977  79.7723685 130.6600724  93.0804259  79.7201458 135.1815260
  92.7162466  79.1932079 135.8928182  93.9371374  79.3299927 135.0081746
  98.9853559  71.0095791 142.4446527  98.6536884  71.8791202 142.2207742
  98.3899173  70.6932075 143.1240557  92.7209746  74.7491358 130.1776609
  92.8884148  75.6171594 130.5447080  92.5306915  74.9118640 129.2537898
  95.4785079  83.2108337 141.8442439  95.1785802  84.1133376 141.7358246
  95.1336138  82.9440520 142.6963592  88.9297560  79.6622134 137.8779144
  88.0048057  79.5298348 138.0856835  89.1781973  80.4416353 138.3749086
  98.8782222  75.7290877 139.5239877  97.9699100  75.6606285 139.2298638
  98.8269818  76.2062822 140.3521702  92.6998966  77.2049015 131.1623276
  92.5798592  77.6506066 132.0008756  92.0051555  77.5534333 130.6036814
  86.2906371  79.3055407 138.7122933  86.4198752  79.5589886 139.6262344
  85.6103823  79.8983115 138.3927588  90.4605858  89.9752657 134.8113407
  90.3829888  90.9260482 134.8901888  89.8567502  89.6298530 135.4688333
 100.7443869  73.9307315 141.3017751 100.1018249  74.2239848 140.6557545
 100.2398797  73.8160236 142.1070947  98.3984033  77.6770489 131.9903610
  99.3101889  77.9097875 131.8151307  97.8893680  78.2607533 131.4278688
  91.2069461  79.9565976 147.0292741  91.9484145  80.4951020 146.7527564
  90.5006446  80.5832265 147.1864293  93.0355870  77.0367723 142.9998459
  93.8817065  77.4607137 143.1433108  92.9754508  76.3801347 143.6937022
  97.0053615  82.6596307 139.3817191  96.3762477  82.8242021 138.6793259
  96.6179277  83.0737917 140.1528155 100.8842847  83.5950745 136.7361555
 100.1993885  83.9749646 136.1858588 100.9686696  84.2046071 137.4693503
  96.1855316  74.6972091 144.6579633  95.9416247  75.4514152 144.1213909
  96.4615246  75.0757439 145.4926880  98.1393778  81.2410704 143.3356899
  98.3510674  81.8842464 142.6591280  98.0923527  80.4073020 142.8678829
  95.7420007  73.8528525 140.2393471  94.8804486  74.1509778 140.5310208
  95.7682442  74.0698923 139.3074503  92.5581577  82.3970715 136.6467276
  93.0219922  82.6758418 135.8571899  92.2938375  81.4954160 136.4640367
  89.4505658  81.9442197 139.5847040  90.0207015  82.3729465 138.9464524
  90.0413770  81.6624781 140.2831225  91.4950463  78.5193867 133.4556841
  92.1974506  78.9714911 133.9230768  91.1631091  77.8777686 134.0836735
  89.9430824  77.1105624 147.8308051  89.3129485  77.7921905 148.0643448
  89.8366912  76.9988706 146.8861189  85.2375797  76.7777420 138.7573975
  84.4474851  77.0334949 138.2814086  85.7287044  77.5925758 138.8626016
  87.1890542  77.1421999 135.7157452  86.3921705  77.2540694 136.2340947
  86.9616134  77.4808652 134.8498342  83.5213500  77.0307911 141.1888966
  83.7721538  77.9154920 141.4546542  84.0573048  76.8512512 140.4164058
 107.3445599  80.4621408 137.8564227 106.5909308  79.8928806 137.7008232
 107.4793141  80.4284072 138.8034862  92.7344227  85.3334810 133.5318947
  92.5989902  86.1786346 133.9603794  93.2754040  85.5354088 132.7684880
  89.2211567  71.4126390 150.1933302  88.8278513  70.8592588 150.8680946
  90.0377707  71.7236968 150.5839819  86.1873625  82.8510248 134.1046872
  86.6998145  83.6453498 134.2552436  86.8396338  82.1536539 134.0380473
  87.9968509  85.9676004 136.1869625  88.1735138  86.8893969 135.9990609
  88.7925343  85.6534424 136.6164005  92.1379528  72.8284269 147.7853558
  92.8789241  73.4291422 147.7058021  92.3697451  72.0861907 147.2271601
  87.2820866  78.0140636 146.0631788  87.1674381  77.1125893 146.3638887
  86.4265384  78.2604333 145.7116605  89.1199825  87.4854178 142.1879967
  89.6707250  87.3571242 141.4156961  88.2811301  87.7849067 141.8374860
  96.0836691  68.8565372 142.0617840  95.7400960  69.7467014 141.9856951
  96.4515654  68.6667030 141.1987425  84.1522542  81.1798902 134.8806442
  84.9897764  81.5895911 134.6640150  84.3300809  80.2398345 134.8506636
  96.0486974  78.8473983 130.5690275  95.5333597  79.6178588 130.8078663
  95.7764282  78.1739119 131.1923337  93.6334085  73.6923684 135.6275514
  92.7775681  73.3030534 135.4481152  94.0461036  73.7715645 134.7675299
  95.1633231  71.2270027 140.0267073  94.6598027  71.1900162 139.2134879
  95.4563838  72.1362770 140.0863730  91.4076117  71.3108757 139.0333255
  92.2729114  71.1151566 138.6739145  91.4753626  71.0819109 139.9602612
 101.0221248  81.6006338 132.5043449 100.2450691  81.2617497 132.0598611
 101.7012729  81.6058961 131.8298414  95.8373277  76.7201075 132.3950056
  95.5323412  77.0347224 133.2460200  96.7903719  76.7982495 132.4377389
  94.2819709  82.8791298 134.0443010  93.7541070  82.1444058 133.7316248
  93.7807211  83.6565975 133.7982979  99.2612555  81.0740319 139.1610057
  98.6036229  81.7639580 139.2490185 100.0652954  81.4636751 139.5044043
  89.0138436  73.5410965 136.4049622  89.5882188  73.3186146 135.6722815
  89.6009419  73.6099659 137.1578223  98.0718014  79.4284692 137.2113998
  98.5849895  80.0614683 137.7135708  98.7219237  78.8285887 136.8457358
  89.3408023  75.5715426 130.4245507  88.5045336  75.9090112 130.7454782
  89.2012793  75.4364406 129.4872644  91.3161104  70.4152214 135.1324691
  90.6625516  70.1001231 134.5081306  91.2741578  69.7927954 135.8584514
  92.4272309  80.6971509 127.0477983  91.5199371  80.4660762 127.2469132
  92.9243341  79.9009128 127.2351965  95.3340388  89.4069016 129.9674670
  94.6602087  89.7100713 130.5759627  95.7206210  90.2098096 129.6180127
  94.5498844  76.9034147 139.4572339  93.6321406  77.1249094 139.2994027
  94.9658988  76.9780458 138.5984046  95.3333892  78.3025563 134.5875019
  96.0805711  78.8146960 134.2782141  95.6025482  77.9809616 135.4479413
  93.6060542  80.7984104 131.5701974  92.6971762  80.5143136 131.6674443
  93.6355626  81.2183182 130.7105280  98.8379810  84.4090693 135.3393141
  98.3842137  83.5681603 135.3958332  98.2073776  85.0452091 135.6767921
  97.7812729  75.3382679 136.5693809  97.0435486  74.8260065 136.9004051
  98.0339503  74.8983061 135.7577085  97.2812749  86.2467190 136.2742959
  97.5735723  86.8072247 135.5555325  97.7911370  86.5395751 137.0296118
  97.8824357  68.1158931 137.1635578  98.1883233  67.2556295 136.8761493
  98.6076961  68.7076551 136.9634572  84.1748713  78.5189618 135.5517176
  83.9773113  77.9258978 134.8268242  83.6195377  78.2141828 136.2693115
  92.1545436  78.4112724 137.6711769  92.2094046  77.4586561 137.5954245
  91.3436638  78.5672163 138.1553067  93.3036630  82.3392847 128.9090052
  92.8656060  81.6228706 128.4495689  94.0447071  82.5668962 128.3475144
  90.0937796  77.0289784 135.4302148  89.2805662  77.3283954 135.8367340
  90.5896790  76.6345473 136.1476630  92.2446374  87.0247541 137.3636412
  92.2022553  87.2508387 136.4344944  93.1609073  86.7910915 137.5122214
  95.6912008  77.4931608 144.2617042  96.0461396  77.7203082 145.1211507
  96.3384139  77.8249985 143.6394297 101.4209745  80.6150044 134.9666371
 101.2827644  80.8051640 134.0387560 101.0645964  81.3769427 135.4234422
  89.5851871  74.6008139 141.0463383  90.2251250  74.4596899 140.3486346
  88.7529402  74.3142653 140.6701985 101.4479125  82.6826571 139.9777642
 101.8815631  82.5901860 140.8260696 102.1610705  82.6584072 139.3397658
  90.3612175  83.9010570 137.1598375  91.1552773  83.4060890 136.9580950
  89.6503867  83.3728433 136.7966081  86.6694938  78.0453652 133.2358128
  85.7392527  77.9838107 133.4528090  86.7652410  77.5229604 132.4394769
  86.5880487  74.5708464 135.8236370  86.8487305  75.4853798 135.7145530
  87.4097660  74.1032907 135.9732982  88.0605413  75.9846222 142.9935194
  88.7328466  75.7763584 142.3447843  87.2335199  75.7868308 142.5540426
  93.9630985  72.6108163 145.0100855  93.3158900  73.3098112 144.9165331
  94.7332000  73.0444306 145.3777103  94.1395119  80.4488927 143.0697675
  95.0687179  80.6000087 142.8966642  93.7186149  80.5372948 142.2146321
  92.9383451  84.4739592 140.8396212  92.7994537  84.1058376 141.7122150
  92.1498047  84.9887231 140.6680170  93.5331603  89.5748688 132.1821749
  93.7083359  89.1036732 132.9967371  92.8464391  90.2014455 132.4103010
  94.4888666  83.8521195 138.2285050  94.1538499  83.8121965 139.1242700
  93.9892612  83.1865910 137.7555460  88.4632910  79.2588825 143.7537631
  88.3252708  78.5269063 144.3549170  89.3737834  79.1697725 143.4721819
  97.4247858  81.1977229 128.5022110  96.8077028  80.4724057 128.4055162
  96.9564346  81.9586589 128.1589184  91.0915211  78.9708784 143.2421311
  91.8014829  78.3301976 143.2007929  91.0484519  79.2221679 144.1647492
  89.8044145  75.9574002 145.0616950  89.2681502  75.5064740 145.7138547
  89.2160853  76.0919911 144.3187415  88.0992688  92.7238051 138.9561609
  88.3389286  93.3556575 139.6340628  87.2561885  92.3726091 139.2426968
  89.2146404  75.4162653 127.6243414  88.3375870  75.2951454 127.2605661
  89.6904157  74.6248732 127.3722303  80.7348544  80.2039813 137.7184921
  81.4219584  79.8901543 137.1305936  80.5796672  81.1081178 137.4452173
  85.5383266  75.0930010 142.1469945  85.4541455  74.4855679 141.4120355
  84.7165972  75.5839028 142.1479441  92.4010330  87.7688944 134.8705934
  91.6177852  88.3110624 134.9644159  93.1003075  88.2862923 135.2700176
  95.7106980  73.5783573 137.5140140  96.2075679  72.8253535 137.1941210
  94.9393961  73.6147890 136.9483349 103.5636737  79.2823939 139.1558431
 103.5526613  80.1648654 138.7852364 102.6954117  78.9295489 138.9612968
  96.7936760  82.3355260 135.0878563  95.8593039  82.4556723 134.9183268
  96.9713429  81.4327727 134.8238573  92.2941949  75.7200956 137.2411824
  91.9239736  75.1671996 137.9292730  92.7901041  75.1159090 136.6886825
 100.1809312  78.1772580 135.6228597 100.6469764  79.0100571 135.5488900
 100.6316812  77.7117561 136.3273856  98.2485543  84.5216401 132.6214749
  98.5245387  84.4072995 133.5308624  97.3790042  84.1233886 132.5826923
  98.1525975  70.5453167 139.6619499  97.2389054  70.7757393 139.8301706
  98.5819076  70.6291611 140.5133531  97.9232433  78.7343058 142.1619393
  97.2703883  78.9818966 141.5071846  98.3012813  77.9207197 141.8281870
  94.8839607  88.7702752 136.2647563  95.0662001  87.9524408 136.7275315
  95.7072593  88.9870444 135.8272453  95.2181772  87.6970937 133.5262612
  95.7469539  87.1863391 132.9132774  95.4809992  87.3813467 134.3908145
  85.7198865  85.7134806 141.2697945  86.3052302  84.9678494 141.4025849
  85.5223704  86.0238763 142.1534609  88.5737520  88.7486053 136.2860387
  87.9047896  89.2332181 135.8024428  88.4350390  88.9955274 137.2003766
  80.3116520  78.2840406 139.9902388  80.3500619  77.7503997 140.7839506
  79.8056813  77.7575612 139.3713365  87.6907282  73.1304947 143.4864931
  87.7548609  73.9919778 143.0742328  87.6274402  72.5178948 142.7537289
  87.1659555  75.2028079 147.1337965  87.7931594  74.8205157 147.7475489
  86.3087474  74.9842281 147.4993657  83.9425098  77.0104508 133.0656320
  84.2378539  76.1015187 133.0123373  83.0413133  76.9892248 132.7437322
  95.8511176  88.7311773 139.8706728  95.7262316  87.9301512 139.3617674
  96.5090267  89.2257966 139.3820698  87.4719345  75.0860505 139.0483868
  86.7505930  75.6996473 138.9091342  88.2612600  75.6218270 138.9700514
  90.2745658  72.4214932 145.3224520  90.7980060  72.6677228 146.0850829
  90.0557991  73.2534966 144.9027657  85.6712939  74.6918606 133.1895645
  85.3425645  73.8115985 133.0070751  86.0252310  74.6366275 134.0772034
  94.9192518  86.3273509 137.6990630  94.7717480  85.3990216 137.8798200
  95.7446011  86.3493600 137.2147706  88.7854762  74.9791576 133.5571122
  89.1250835  75.5077497 132.8349731  89.2326883  75.3171982 134.3329689
  98.5226640  87.1502068 138.7855503  99.4473187  86.9444929 138.6479954
  98.3541943  86.9018469 139.6944845  91.4798203  73.3628627 143.0074191
  91.1395023  72.5636440 143.4094870  90.7737209  73.6630337 142.4351024
  92.1314675  70.4477939 141.4601514  92.9540744  69.9738417 141.3380404
  92.3752738  71.2268423 141.9600200  90.7722909  73.4766198 131.7564415
  91.4931272  73.8547450 131.2528132  90.1488214  74.1955074 131.8599393
  94.9154032  74.1811346 132.6922748  95.1317647  75.0635984 132.3911576
  94.4348099  73.7897560 131.9628390  89.6553254  77.1397060 139.2693492
  89.5097834  77.4537363 140.1617774  89.1778457  77.7581960 138.7164391
  91.5149637  74.1299608 139.3174382  91.5011205  73.2340701 138.9806680
  92.2322065  74.1370271 139.9512668  93.3675767  74.5636948 141.3627509
  93.1093545  75.4854019 141.3611840  92.8360808  74.1667382 142.0527973
  98.3121956  87.6687735 134.1417595  98.4858834  87.1034157 133.3891447
  98.8050847  88.4688630 133.9597084  84.1298916  79.6802404 142.2081153
  83.5852384  80.4562212 142.3401428  85.0078266  80.0273209 142.0500275
  90.9186532  73.0113988 134.5861952  91.0402444  72.0830634 134.7852839
  90.6288575  73.0252674 133.6740267  93.7877723  70.6968898 137.7228672
  93.8099420  70.7608231 136.7680651  94.2045782  69.8573407 137.9169178
 104.1661347  80.4324158 135.7607894 104.6092493  79.6831483 135.3627018
 103.2887857  80.4234294 135.3781626  99.2997128  86.9854499 131.2414493
  99.9948033  87.6061192 131.4601807  99.6420279  86.1349851 131.5166871
  84.9164938  78.8072300 145.1011310  84.1746674  78.9554936 145.6875941
  84.5957682  79.0680566 144.2378060 101.1988552  84.4354205 132.7701824
 101.7239876  84.7741478 132.0451144 101.1110904  83.5001220 132.5864958
  92.8829212  90.5026188 137.1297077  92.4434203  90.0102567 137.8229933
  93.6337329  89.9599156 136.8889152  85.3621551  86.6937729 137.1321705
  86.1879571  86.3941501 136.7520348  85.0115603  85.9245352 137.5811494
  90.3303085  86.0464197 139.2019378  89.7083094  85.3834902 138.9021606
  91.0007951  86.0725329 138.5193026  83.5630156  84.6124056 138.0910638
  82.7262065  84.1846230 137.9094640  83.5353802  84.8056499 139.0281430
  90.4027612  74.5245985 148.7951884  90.4515767  75.4008108 148.4129654
  90.9450126  73.9823378 148.2223528  89.8916591  84.5968121 132.6777839
  90.0404712  85.2803585 132.0244512  90.6983035  84.5773211 133.1927295
  92.6326900  75.2777358 145.5498243  91.7630210  75.5710924 145.2780832
  92.8686381  75.8617803 146.2705507 103.7094212  81.9029396 138.1530342
 104.5441103  82.3419200 138.3167902 103.8453341  81.4268049 137.3338588
  87.6469224  80.6233298 133.6838908  87.4015266  79.7195628 133.8819118
  87.8165139  80.6250449 132.7418386  95.3365934  71.4956975 143.0663664
  95.8547878  72.2318002 142.7410152  94.9821067  71.8020968 143.9010423
  86.9164872  76.3561656 131.1825069  86.2234117  76.4306011 130.5265105
  86.6716624  75.5921999 131.7046586  95.5878528  67.9157257 138.5864560
  95.8680282  67.2480446 139.2124987  96.3729135  68.1086353 138.0739224
  93.3911997  87.0916251 130.1489586  92.8185964  87.7106438 129.6960058
  93.9644791  87.6415613 130.6829508  99.4587387  76.3374891 142.3336135
 100.4104810  76.4372989 142.3548359  99.2890837  75.5453160 142.8434220
  97.4801766  73.4230474 142.5195536  96.8851698  73.7035487 141.8242025
  97.1951463  73.9124375 143.2912277  96.6109257  87.3753401 131.2798169
  97.5439930  87.3098963 131.4831044  96.5232470  88.2109668 130.8212701
  99.2397273  86.6919272 128.2402116  99.1610905  86.3579135 129.1337874
 100.0606940  87.1841039 128.2393589 101.9375465  79.5581011 141.4478435
 101.9051785  78.6197012 141.6338119 102.5476088  79.6365048 140.7144260
  93.7758795  78.4277064 127.4905639  94.7217900  78.2983272 127.5594057
  93.3973040  77.6891726 127.9675067 102.0869953  76.3492054 141.4936718
 101.5709002  75.5650511 141.3066647 102.9709902  76.0210771 141.6583238
  99.7480680  70.0933070 137.4532531  99.5505501  69.7848158 138.3375863
 100.3580386  70.8194709 137.5830461 105.8367312  78.7604880 141.1858923
 105.1100475  78.6260845 140.5775414 105.4214598  79.0681709 141.9915641
  91.9601713  76.3527040 127.4260524  91.0533168  76.0560153 127.5023238
  92.2377694  76.0556858 126.5594810  82.8779653  77.6733404 137.8759571
  82.5582437  76.8198712 137.5833945  82.3313081  77.8881982 138.6317538
  86.6559561  80.3895845 141.5929077  86.8745570  81.3212952 141.6117111
  87.0685334  80.0303819 142.3783881  93.5763778  70.8963930 133.5804765
  92.7664507  70.5511015 133.9560012  94.2648195  70.5871474 134.1692377
  95.5054327  69.9741977 135.2029062  96.0585365  70.3937430 135.8619085
  95.7424413  69.0477725 135.2452018  90.7300497  73.2113975 127.5672503
  91.5919661  73.5368874 127.8268321  90.9150841  72.4245471 127.0545569
  82.7467913  81.2936315 139.8452692  82.0531384  80.8790268 139.3322647
  83.4940904  81.3356852 139.2486111  98.8833134  72.0842502 134.7107726
  98.3031803  72.7427306 134.3285779  98.6169066  71.2619847 134.2995144
  97.3336700  71.4847560 136.9129047  97.8336478  71.5964094 136.1043365
  97.9772308  71.1808612 137.5529855  84.6604656  81.2254569 137.7218707
  84.6375344  81.3242256 136.7700590  84.9705292  82.0719720 138.0435873
  87.3192033  83.2830724 141.8365321  88.2735287  83.2514666 141.7695253
  87.1204557  82.8221348 142.6515547  87.9091416  81.8531840 144.4036119
  88.7284305  82.3475919 144.4270956  88.1828223  80.9363808 144.3753687
  97.6658012  74.2442592 133.7664075  96.7783867  74.5292243 133.5484269
  98.0812001  74.0836356 132.9191351 101.0172548  74.2689113 137.4818414
 101.7932938  74.7585566 137.7543031 100.2920682  74.6947167 137.9390283
 103.4545106  74.9816733 138.5392354 104.0489597  74.7412468 137.8285663
 103.5271690  74.2623863 139.1665891  85.6742262  88.8250343 138.8535519
  85.5396730  88.0650744 138.2873517  85.2574324  89.5491243 138.3864308
  96.8101225  84.0087267 127.8612095  97.5137075  84.2137269 128.4769750
  96.0863874  84.5764029 128.1261178  97.6399035  79.7597128 133.9814365
  97.5834237  80.2165680 133.1421997  98.1927378  78.9987813 133.8037208
 101.4503841  75.5486860 134.8064484 101.1940776  75.1483496 135.6372692
 100.8256709  76.2630654 134.6814623 105.7616179  78.2882933 137.3135776
 105.2015737  78.3576123 138.0867338 105.1559683  78.1123918 136.5935272
  88.8311388  89.7219660 139.0653962  88.7143772  90.6665093 138.9632652
  88.0103834  89.4193222 139.4539761  98.7187923  84.4469796 129.9110555
  99.5533527  84.0150995 129.7288029  98.5572266  84.2751810 130.8387449
  98.3733815  80.9501909 131.2766894  98.3182619  80.7846181 130.3355338
  97.7479870  81.6577942 131.4329084  83.1626330  76.1869974 145.1028316
  83.8085193  75.6768928 145.5915541  82.9543481  76.9238656 145.6771741
  91.6829940  70.4510018 130.8552212  91.6708610  71.3951858 131.0120483
  92.5753362  70.2680164 130.5611674  91.6119504  89.1278909 138.9419969
  90.6615135  89.1280771 138.8284341  91.9151990  88.3811643 138.4256004
  95.4982060  67.0452795 135.1098149  94.7314455  66.4911282 135.2554831
  95.9092765  67.1174664 135.9712301  87.5023821  73.3337591 149.2003330
  88.3655282  72.9774396 149.4106655  86.9289231  72.9951486 149.8878735
  99.5203906  97.5262457 131.6425746 100.2934782  96.9791444 131.5038622
  99.8729304  98.3906706 131.8540208 101.8570183  93.6855123 129.2744196
 102.1095704  93.1636644 128.5127659 100.9194742  93.5221268 129.3770880
 101.5766472  95.5883229 131.4768571 101.4602730  94.9128132 132.1449655
 101.6868732  95.1015603 130.6600724 103.5603500  90.0783276 130.1776609
 103.7277902  90.9463512 130.5447080 103.3700669  90.2410557 129.2537898
 103.5392721  92.5340933 131.1623276 103.4192346  92.9797984 132.0008756
 102.8445309  92.8826251 130.6036814 109.2377787  93.0062406 131.9903610
 110.1495643  93.2389793 131.8151307 108.7287434  93.5899450 131.4278688
 102.3344217  93.8485785 133.4556841 103.0368261  94.3006829 133.9230768
 102.0024846  93.2069604 134.0836735  98.0284297  92.4713917 135.7157452
  97.2315460  92.5832611 136.2340947  97.8009889  92.8100569 134.8498342
  94.9916296  96.5090820 134.8806442  95.8291518  96.9187828 134.6640150
  95.1694564  95.5690262 134.8506636 106.8880728  94.1765901 130.5690275
 106.3727352  94.9470505 130.8078663 106.6158037  93.5031037 131.1923337
 104.4727839  89.0215602 135.6275514 103.6169436  88.6322452 135.4481152
 104.8854791  89.1007562 134.7675299 106.6767031  92.0492993 132.3950056
 106.3717167  92.3639142 133.2460200 107.6297473  92.1274413 132.4377389
  99.8532191  88.8702882 136.4049622 100.4275943  88.6478064 135.6722815
 100.4403173  88.9391577 137.1578223 100.1801778  90.9007343 130.4245507
  99.3439090  91.2382030 130.7454782 100.0406548  90.7656323 129.4872644
 102.1554859  85.7444131 135.1324691 101.5019271  85.4293148 134.5081306
 102.1135333  85.1219872 135.8584514 103.2666063  96.0263426 127.0477983
 102.3593125  95.7952680 127.2469132 103.7637095  95.2301046 127.2351965
 104.4454297  96.1276021 131.5701974 103.5365516  95.8435054 131.6674443
 104.4749381  96.5475100 130.7105280 108.7218111  83.4450849 137.1635578
 109.0276988  82.5848212 136.8761493 109.4470716  84.0368469 136.9634572
  95.0142467  93.8481535 135.5517176  94.8166867  93.2550896 134.8268242
  94.4589131  93.5433746 136.2693115 104.1430385  97.6684765 128.9090052
 103.7049815  96.9520624 128.4495689 104.8840825  97.8960880 128.3475144
 100.9331551  92.3581702 135.4302148 100.1199416  92.6575872 135.8367340
 101.4290545  91.9637390 136.1476630  97.5088693  93.3745569 133.2358128
  96.5786281  93.3130025 133.4528090  97.6046165  92.8521522 132.4394769
  97.4274242  89.9000382 135.8236370  97.6881059  90.8145715 135.7145530
  98.2491414  89.4324825 135.9732982 108.2641612  96.5269147 128.5022110
 107.6470783  95.8015975 128.4055162 107.7958101  97.2878507 128.1589184
 100.0540158  90.7454571 127.6243414  99.1769624  90.6243372 127.2605661
 100.5297911  89.9540649 127.3722303  91.5742298  95.5331731 137.7184921
  92.2613338  95.2193461 137.1305936  91.4190427  96.4373095 137.4452173
  94.7818852  92.3396426 133.0656320  95.0772293  91.4307105 133.0123373
  93.8806888  92.3184166 132.7437322  96.5106694  90.0210524 133.1895645
  96.1819400  89.1407903 133.0070751  96.8646064  89.9658192 134.0772034
  99.6248517  90.3083494 133.5571122  99.9644589  90.8369415 132.8349731
 100.0720637  90.6463900 134.3329689 101.6116664  88.8058115 131.7564415
 102.3325026  89.1839368 131.2528132 100.9881968  89.5246992 131.8599393
 105.7547787  89.5103264 132.6922748 105.9711401  90.3927902 132.3911576
 105.2741854  89.1189478 131.9628390 101.7580287  88.3405906 134.5861952
 101.8796198  87.4122552 134.7852839 101.4682329  88.3544592 133.6740267
 104.6271477  86.0260816 137.7228672 104.6493174  86.0900149 136.7680651
 105.0439536  85.1865325 137.9169178  98.4862979  95.9525216 133.6838908
  98.2409021  95.0487546 133.8819118  98.6558893  95.9542366 132.7418386
  97.7558626  91.6853574 131.1825069  97.0627871  91.7597929 130.5265105
  97.5110378  90.9213917 131.7046586 106.4272283  83.2449175 138.5864560
 106.7074037  82.5772364 139.2124987 107.2122890  83.4378270 138.0739224
 104.6152550  93.7568982 127.4905639 105.5611655  93.6275190 127.5594057
 104.2366795  93.0183643 127.9675067 102.7995467  91.6818958 127.4260524
 101.8926922  91.3852071 127.5023238 103.0771448  91.3848776 126.5594810
  93.7173407  93.0025321 137.8759571  93.3976192  92.1490630 137.5833945
  93.1706836  93.2173899 138.6317538 104.4157533  86.2255848 133.5804765
 103.6058261  85.8802933 133.9560012 105.1041950  85.9163391 134.1692377
 106.3448081  85.3033894 135.2029062 106.8979120  85.7229348 135.8619085
 106.5818167  84.3769643 135.2452018 101.5694252  88.5405893 127.5672503
 102.4313416  88.8660791 127.8268321 101.7544596  87.7537389 127.0545569
 109.7226888  87.4134420 134.7107726 109.1425557  88.0719224 134.3285779
 109.4562821  86.5911764 134.2995144 108.5051766  89.5734510 133.7664075
 107.6177621  89.8584161 133.5484269 108.9205755  89.4128273 132.9191351
 107.6494980  99.3379185 127.8612095 108.3530830  99.5429187 128.4769750
 106.9257628  99.9055947 128.1261178 102.5223695  85.7801936 130.8552212
 102.5102365  86.7243776 131.0120483 103.4147117  85.5972082 130.5611674
 106.3375814  82.3744713 135.1098149 105.5708210  81.8203200 135.2554831
 106.7486519  82.4466582 135.9712301  62.2373262  16.1267771 117.9683919
  61.5861241  16.7121852 117.5817932  63.0317624  16.6573966 118.0278956
  56.1628889  13.2156909 118.3671053  56.9359765  12.6685896 118.2283929
  56.5154288  14.0801158 118.5785514  58.4995167   9.3749575 115.9989503
  58.7520687   8.8531096 115.2372966  57.5619726   9.2115720 116.1016186
  63.7148527  13.8158203 118.5052903  63.0794360  13.8892830 119.2173808
  63.3845933  14.4051802 117.8271982  57.9424596  20.9939027 121.5358714
  57.8648626  21.9446852 121.6147194  57.3386240  20.6484899 122.1933640
  65.8802770   8.6956858 118.7148916  66.7920626   8.9284245 118.5396614
  65.3712417   9.2793902 118.1523995  68.3661585  14.6137114 123.4606862
  67.6812623  14.9936016 122.9103895  68.4505434  15.2232441 124.1938809
  74.8264337  11.4807777 124.5809534  74.0728046  10.9115175 124.4253538
  74.9611878  11.4470442 125.5280169  60.2162965  16.3521180 120.2564253
  60.0808640  17.1972715 120.6849101  60.7572778  16.5540457 119.4930187
  63.5305711   9.8660353 117.2935582  63.0152335  10.6364957 117.5323969
  63.2583020   9.1925489 117.9168643  68.5039986  12.6192707 119.2288755
  67.7269428  12.2803867 118.7843917  69.1831467  12.6245330 118.5543720
  61.7638446  13.8977668 120.7688317  61.2359808  13.1630428 120.4561555
  61.2625949  14.6752344 120.5228285  59.9091047  11.7157878 113.7723290
  59.0018108  11.4847132 113.9714439  60.4062079  10.9195498 113.9597272
  62.8159126  20.4255385 116.6919976  62.1420824  20.7287082 117.3004934
  63.2024948  21.2284466 116.3425433  61.0879280  11.8170473 118.2947280
  60.1790499  11.5329506 118.3919750  61.1174364  12.2369552 117.4350587
  66.3198548  15.4277063 122.0638448  65.8660875  14.5867973 122.1203638
  65.6892514  16.0638461 122.4013228  64.7631487  17.2653559 122.9988266
  65.0554461  17.8258616 122.2800632  65.2730107  17.5582120 123.7541425
  60.7855368  13.3579217 115.6335359  60.3474798  12.6415076 115.1740996
  61.5265809  13.5855332 115.0720450  68.9028483  11.6336414 121.6911677
  68.7646381  11.8238010 120.7632867  68.5464702  12.3955797 122.1479728
  61.0150341  20.5935058 118.9067055  61.1902096  20.1223101 119.7212678
  60.3283129  21.2200824 119.1348316  64.9066596  12.2163598 115.2267416
  64.2895766  11.4910427 115.1300469  64.4383084  12.9772959 114.8834491
  56.6965141   6.4349023 114.3488721  55.8194608   6.3137824 113.9850967
  57.1722895   5.6435101 114.0967609  59.8829067  18.7875313 121.5951241
  59.0996589  19.3296993 121.6889466  60.5821813  19.3049293 121.9945482
  64.2755498  13.3541630 121.8123870  63.3411777  13.4743092 121.6428574
  64.4532167  12.4514097 121.5483880  65.7304281  15.5402770 119.3460056
  66.0064125  15.4259365 120.2553930  64.8608779  15.1420255 119.3072229
  62.3658345  19.7889121 122.9892870  62.5480739  18.9710777 123.4520622
  63.1891331  20.0056813 122.5517760  62.7000510  18.7157306 120.2507918
  63.2288277  18.2049761 119.6378080  62.9628730  18.3999837 121.1153451
  65.7940694  18.6874105 120.8662901  65.9677571  18.1220527 120.1136754
  66.2869585  19.4874999 120.6842391  71.6480085  11.4510528 122.4853201
  72.0911231  10.7017853 122.0872324  70.7706595  11.4420664 122.1026933
  66.7815866  18.0040869 117.9659799  67.4766771  18.6247562 118.1847114
  67.1239016  17.1536220 118.2412177  68.6807289  15.4540575 119.4947130
  69.2058613  15.7927847 118.7696450  68.5929642  14.5187590 119.3110265
  60.3647950  21.5212558 123.8542383  59.9252940  21.0288936 124.5475240
  61.1156067  20.9785525 123.6134459  57.3735329  15.6154490 119.4023146
  57.5223450  16.2989955 118.7489818  58.1801773  15.5959580 119.9172601
  71.1912950  12.9215766 124.8775648  72.0259841  13.3605570 125.0413209
  71.3272078  12.4454419 124.0583894  60.8730735  18.1102621 116.8734893
  60.3004702  18.7292808 116.4205365  61.4463528  18.6601982 117.4074815
  64.0927995  18.3939771 118.0043475  65.0258668  18.3285332 118.2076351
  64.0051207  19.2296038 117.5458008  66.7216011  17.7105641 114.9647423
  66.6429643  17.3765505 115.8583181  67.5425678  18.2027409 114.9638895
  61.2577533   9.4463433 114.2150946  62.2036638   9.3169642 114.2839364
  60.8791778   8.7078095 114.6920374  59.4420450   7.3713410 114.1505831
  58.5351906   7.0746523 114.2268544  59.7196431   7.0743228 113.2840117
  58.2119235   4.2300345 114.2917810  59.0738399   4.5555243 114.5513627
  58.3969579   3.4431841 113.7790876  64.2919963  15.0273637 114.5857401
  64.9955813  15.2323639 115.2015057  63.5682612  15.5950398 114.8506485
  65.1217773  10.7783498 120.7059671  65.0652975  11.2352049 119.8667304
  65.6746116  10.0174182 120.5282514  66.2006660  15.4656166 116.6355861
  67.0352264  15.0337364 116.4533336  66.0391003  15.2938179 117.5632756
  65.8552553  11.9688279 118.0012201  65.8001356  11.8032550 117.0600645
  65.2298608  12.6764312 118.1574390  74.8290935  25.9825817 126.7311038
  75.4669345  25.8632564 126.0274378  74.7111778  26.9306661 126.7898990
  71.6380642  25.9353245 126.6672563  71.2999153  25.8194310 125.7793098
  72.5070410  25.5344410 126.6473569  67.4967457  27.7888721 122.6569454
  66.9332323  27.6978658 121.8885741  67.3819852  26.9688626 123.1371946
  72.1200425  27.0888097 132.6258768  72.1089066  26.6940895 131.7539272
  72.2821064  26.3554169 133.2192540  65.0431889  29.2839913 125.4953674
  65.8353181  28.9430738 125.0799973  65.2828540  29.3934888 126.4155827
  73.0767016  31.4559689 117.9683919  72.4254996  32.0413769 117.5817932
  73.8711379  31.9865884 118.0278956  67.0022643  28.5448826 118.3671053
  67.7753519  27.9977813 118.2283929  67.3548042  29.4093076 118.5785514
  68.8407686  29.8725208 131.5737952  68.5497552  30.7770839 131.4584619
  69.4764670  29.9141736 132.2882022  69.7663893  27.2502057 128.1639312
  70.3627465  27.0258079 127.4496275  69.8238864  26.5086802 128.7664760
  69.3388921  24.7041492 115.9989503  69.5914442  24.1823014 115.2372966
  68.4013480  24.5407638 116.1016186  74.3832204  23.7077271 123.8064246
  75.1695293  23.2896694 123.4554663  74.6470908  24.6123363 123.9745894
  74.5542281  29.1450121 118.5052903  73.9188114  29.2184748 119.2173808
  74.2239688  29.7343720 117.8271982  79.7840631  23.6452504 124.7097225
  80.5165803  23.0751721 124.9435054  79.0279987  23.2574104 125.1503730
  69.0585210  26.6069598 118.2013878  68.9421468  25.9314502 118.8694962
  69.1687470  26.1201972 117.3846031  71.4016751  26.0679745 121.9060567
  71.0374958  25.5410366 122.6173488  72.2583867  25.6778214 121.7327052
  77.3066051  17.3574078 129.1691833  76.9749376  18.2269489 128.9453048
  76.7111665  17.0410362 129.8485864  71.0422238  21.0969645 116.9021916
  71.2096640  21.9649882 117.2692387  70.8519407  21.2596927 115.9783205
  73.7997571  29.5586624 128.5687746  73.4998294  30.4611663 128.4603553
  73.4548630  29.2918807 129.4208899  67.2510052  26.0100421 124.6024450
  66.3260549  25.8776635 124.8102142  67.4994466  26.7894640 125.0994393
  77.1994715  22.0769164 126.2485183  76.2911592  22.0084573 125.9543944
  77.1482311  22.5541109 127.0767009  71.0211459  23.5527303 117.8868582
  70.9011084  23.9984353 118.7254063  70.3264047  23.9012620 117.3282120
  64.6118863  25.6533694 125.4368239  64.7411245  25.9068173 126.3507651
  63.9316315  26.2461402 125.1172894  68.7818351  36.3230944 121.5358714
  68.7042380  37.2738769 121.6147194  68.1779994  35.9776817 122.1933640
  79.0656361  20.2785603 128.0263057  78.4230741  20.5718136 127.3802852
  78.5611290  20.1638523 128.8316254  76.7196525  24.0248776 118.7148916
  77.6314381  24.2576163 118.5396614  76.2106172  24.6085820 118.1523995
  75.0037292  28.4473404 132.3510209  75.4120649  28.0055814 131.6064841
  74.2814554  27.8726031 132.6044402  71.3568363  23.3846010 129.7243766
  72.2029558  23.8085424 129.8678415  71.2967000  22.7279635 130.4182329
  75.3266107  29.0074594 126.1062498  74.6974970  29.1720308 125.4038566
  74.9391769  29.4216204 126.8773462  79.2055339  29.9429032 123.4606862
  78.5206377  30.3227933 122.9103895  79.2899188  30.5524359 124.1938809
  76.4606271  27.5888991 130.0602205  76.6723166  28.2320751 129.3836586
  76.4136019  26.7551308 129.5924135  74.0632500  20.2006812 126.9638777
  73.2016979  20.4988065 127.2555515  74.0894934  20.4177211 126.0319810
  70.8794069  28.7449002 123.3712583  71.3432415  29.0236705 122.5817205
  70.6150867  27.8432447 123.1885674  67.7718150  28.2920484 126.3092346
  68.3419507  28.7207752 125.6709831  68.3626262  28.0103069 127.0076532
  69.8162955  24.8672155 120.1802148  70.5186998  25.3193198 120.6476074
  69.4843584  24.2255974 120.8082041  63.5588289  23.1255707 125.4819282
  62.7687343  23.3813236 125.0059392  64.0499536  23.9404045 125.5871322
  77.5752099  30.4660947 128.2324562  78.3969542  30.0641134 127.9507244
  77.5714501  30.3629181 129.1840678  65.5103034  23.4900287 122.4402758
  64.7134198  23.6018981 122.9586254  65.2828627  23.8286939 121.5743649
  71.3408702  30.0144990 130.3885273  71.4053135  30.4765397 131.2243445
  70.6319626  29.3842355 130.5167583  85.6658092  26.8099695 124.5809534
  84.9121800  26.2407093 124.4253538  85.8005633  26.7762360 125.5280169
  71.0556720  31.6813097 120.2564253  70.9202394  32.5264633 120.6849101
  71.5966532  31.8832375 119.4930187  64.5086117  29.1988535 120.8292178
  65.0210638  29.9931786 120.9797743  65.1608830  28.5014826 120.7625780
  66.3181002  32.3154292 122.9114932  66.4947630  33.2372256 122.7235915
  67.1137835  32.0012711 123.3409311  72.6825196  32.3036664 134.3864595
  72.2389050  31.5173042 134.0685500  73.3442410  32.4915814 133.7208486
  67.4412317  33.8332465 128.9125274  67.9919742  33.7049529 128.1402268
  66.6023793  34.1327354 128.5620167  74.7806434  32.5839464 132.4145997
  74.7624909  33.4048345 131.9226266  75.7026354  32.4593539 132.6396138
  71.2379488  30.0983593 133.2569505  71.7707825  29.3371881 133.0268813
  70.7093569  29.8057245 133.9993660  62.4735034  27.5277190 121.6051749
  63.3110256  27.9374198 121.3885457  62.6513302  26.5876632 121.5751943
  74.3699466  25.1952270 117.2935582  73.8546089  25.9656875 117.5323969
  74.0976774  24.5217406 117.9168643  71.9546577  20.0401971 122.3520820
  71.0988173  19.6508821 122.1726459  72.3673529  20.1193932 121.4920606
  73.4845724  17.5748314 126.7512380  72.9810519  17.5378450 125.9380185
  73.7776330  18.4841057 126.8109037  69.7288610  17.6587044 125.7578562
  70.5941606  17.4629853 125.3984451  69.7966118  17.4297396 126.6847919
  79.3433740  27.9484625 119.2288755  78.5663183  27.6095784 118.7843917
  80.0225221  27.9537248 118.5543720  74.1585769  23.0679362 119.1195363
  73.8535905  23.3825512 119.9705506  75.1116211  23.1460782 119.1622696
  72.6032201  29.2269586 120.7688317  72.0753563  28.4922345 120.4561555
  72.1019704  30.0044262 120.5228285  77.5825047  27.4218606 125.8855363
  76.9248721  28.1117868 125.9735492  78.3865446  27.8115038 126.2289350
  67.3350929  19.8889252 123.1294929  67.9094680  19.6664433 122.3968122
  67.9221911  19.9577946 123.8823530  76.3930506  25.7762979 123.9359305
  76.9062388  26.4092971 124.4381015  77.0431730  25.1764174 123.5702665
  67.6620516  21.9193713 117.1490814  66.8257828  22.2568400 117.4700089
  67.5225285  21.7842693 116.2117951  69.6373596  16.7630501 121.8569998
  68.9838009  16.4479518 121.2326613  69.5954070  16.1406241 122.5829821
  70.7484801  27.0449796 113.7723290  69.8411863  26.8139049 113.9714439
  71.2455833  26.2487415 113.9597272  73.6552880  35.7547303 116.6919976
  72.9814579  36.0579000 117.3004934  74.0418702  36.5576384 116.3425433
  72.8711337  23.2512434 126.1817646  71.9533898  23.4727381 126.0239334
  73.2871480  23.3258745 125.3229353  73.6546384  24.6503850 121.3120326
  74.4018203  25.1625247 121.0027448  73.9237974  24.3287903 122.1724719
  71.9273035  27.1462391 118.2947280  71.0184254  26.8621424 118.3919750
  71.9568118  27.5661469 117.4350587  77.1592302  30.7568980 122.0638448
  76.7054629  29.9159890 122.1203638  76.5286269  31.3930379 122.4013228
  76.1025222  21.6860966 123.2939115  75.3647978  21.1738353 123.6249358
  76.3551995  21.2461348 122.4822392  75.6025241  32.5945477 122.9988266
  75.8948216  33.1550534 122.2800632  76.1123862  32.8874038 123.7541425
  76.2036849  14.4637218 123.8880884  76.5095726  13.6034582 123.6006800
  76.9289454  15.0554839 123.6879878  62.4961205  24.8667905 122.2762482
  62.2985605  24.2737266 121.5513549  61.9407869  24.5620115 122.9938421
  70.4757929  24.7591011 124.3957076  70.5306538  23.8064848 124.3199552
  69.6649131  24.9150451 124.8798374  71.6249122  28.6871135 115.6335359
  71.1868552  27.9706993 115.1740996  72.3659563  28.9147249 115.0720450
  68.4150289  23.3768071 122.1547454  67.6018154  23.6762242 122.5612647
  68.9109283  22.9823760 122.8721937  70.5658866  33.3725828 124.0881719
  70.5235045  33.5986674 123.1590251  71.4821565  33.1389203 124.2367520
  74.0124500  23.8409896 130.9862348  74.3673888  24.0681369 131.8456814
  74.6596631  24.1728272 130.3639604  79.7422237  26.9628332 121.6911677
  79.6040136  27.1529928 120.7632867  79.3858456  27.7247714 122.1479728
  67.9064363  20.9486427 127.7708689  68.5463743  20.8075186 127.0731653
  67.0741894  20.6620940 127.3947291  79.7691617  29.0304859 126.7022949
  80.2028123  28.9380148 127.5506003  80.4823197  29.0062359 126.0642965
  68.6824667  30.2488857 123.8843682  69.4765266  29.7539177 123.6826257
  67.9716360  29.7206720 123.5211387  73.5019512  32.6306953 128.2356049
  73.5556534  33.1997889 129.0033765  72.6334293  32.8008838 127.8710087
  64.9907431  24.3931939 119.9603434  64.0605019  24.3316394 120.1773397
  65.0864903  23.8707892 119.1640076  64.9092980  20.9186752 122.5481676
  65.1699797  21.8332085 122.4390837  65.7310152  20.4511194 122.6978289
  80.6307166  29.0728559 129.2355834  80.8243056  29.9774370 129.4815109
  80.5307785  28.6135978 130.0694419  75.6922275  29.2235302 134.8096715
  75.5407781  28.9945854 133.8926799  75.6826954  30.1805903 134.8228060
  72.4607611  26.7967215 129.7942981  73.3899671  26.9478374 129.6211949
  72.0398641  26.8851235 128.9391628  71.2595943  30.8217879 127.5641519
  71.1207029  30.4536664 128.4367457  70.4710539  31.3365519 127.3925477
  71.8544095  35.9226976 118.9067055  72.0295851  35.4515019 119.7212678
  71.1676883  36.5492742 119.1348316  72.8101158  30.1999482 124.9530357
  72.4750991  30.1600252 125.8488007  72.3105104  29.5344198 124.4800767
  75.7460350  27.5455516 115.2267416  75.1289521  26.8202344 115.1300469
  75.2776838  28.3064876 114.8834491  69.4127703  25.3187071 129.9666618
  70.1227322  24.6780263 129.9253236  69.3697011  25.5699966 130.8892798
  77.4014482  32.2554425 132.8873197  77.3427028  31.5713645 132.2203780
  77.8034000  32.9973415 132.4353823  66.4205180  39.0716338 125.6806916
  66.6601779  39.7034863 126.3585934  65.5774377  38.7204378 125.9672275
  67.5358896  21.7640940 114.3488721  66.6588362  21.6429741 113.9850967
  68.0116649  20.9727019 114.0967609  77.4031889  30.2194008 131.1187176
  76.5158668  29.8819930 131.2413575  77.9730440  29.4877040 131.3555942
  59.0561036  26.5518100 124.4430228  59.7432076  26.2379830 123.8551243
  58.9009165  27.4559465 124.1697479  70.9333042  34.8795461 128.0848420
  70.8603214  35.6850432 128.5967724  70.4910435  35.0787427 127.2596441
  70.7222822  34.1167231 121.5951241  69.9390344  34.6588911 121.6889466
  71.4215567  34.6341210 121.9945482  74.0319472  19.9261860 124.2385447
  74.5288172  19.1731823 123.9186517  73.2606454  19.9626177 123.6728656
  81.8849229  25.6302226 125.8803738  81.8739106  26.5126941 125.5097671
  81.0166609  25.2773777 125.6858275  73.3931726  34.7782295 130.2406578
  74.1059698  35.4129760 130.1682480  72.9021754  34.8746161 129.4246580
  75.1149253  28.6833548 121.8123870  74.1805531  28.8035010 121.6428574
  75.2925921  27.7806014 121.5483880  70.6154441  22.0679243 123.9657131
  70.2452228  21.5150284 124.6538037  71.1113533  21.4637377 123.4132131
  78.5021804  24.5250867 122.3473904  78.9682256  25.3578858 122.2734207
  78.9529305  24.0595848 123.0519163  68.4443639  32.5276738 131.0612149
  69.1453099  33.1613221 131.2141543  67.9738754  32.8691470 130.3007788
  76.5698035  30.8694688 119.3460056  76.8457879  30.7551283 120.2553930
  75.7002534  30.4712173 119.3072229  76.4738467  16.8931454 126.3864805
  75.5601547  17.1235681 126.5547012  76.9031568  16.9769898 127.2378838
  76.2444925  25.0821346 128.8864699  75.5916376  25.3297253 128.2317152
  76.6225305  24.2685484 128.5527177  73.2052099  35.1181039 122.9892870
  73.3874494  34.3002695 123.4520622  74.0285085  35.3348731 122.5517760
  73.5394265  34.0449224 120.2507918  74.0682031  33.5341679 119.6378080
  73.8022484  33.7291754 121.1153451  64.0411357  32.0613093 127.9943252
  64.6264794  31.3156781 128.1271156  63.8436196  32.3717050 128.8779916
  66.8950013  35.0964341 123.0105694  66.2260388  35.5810468 122.5269734
  66.7562882  35.3433561 123.9249073  71.0355281  37.1308084 129.6088352
  71.5873589  37.2939706 130.3737438  71.3761475  37.7212522 128.9368377
  75.8866156  31.9569342 135.4637007  76.4306060  32.5699300 134.9691962
  75.3053000  32.5148920 135.9804020  62.2637590  23.3582796 119.7901626
  62.5591031  22.4493474 119.7368680  61.3625626  23.3370535 119.4682629
  74.1723669  35.0790060 126.5952035  74.0474808  34.2779800 126.0862980
  74.8302760  35.5736253 126.1066005  65.7931837  21.4338792 125.7729175
  65.0718423  22.0474760 125.6336648  66.5825093  21.9696557 125.6945821
  76.2358577  32.8799080 128.2231585  75.2888912  32.7604431 128.1509911
  76.5841350  31.9921578 128.3057846  63.9925431  21.0396893 119.9140951
  63.6638138  20.1594272 119.7316057  64.3464802  20.9844562 120.8017341
  73.2405010  32.6751796 124.4235937  73.0929973  31.7468503 124.6043507
  74.0658504  32.6971887 123.9393012  67.1067255  21.3269863 120.2816429
  67.4463327  21.8555784 119.5595037  67.5539375  21.6650269 121.0574996
  76.8439132  33.4980355 125.5100810  77.7685680  33.2923216 125.3725261
  76.6754435  33.2496756 126.4190151  69.0935402  19.8244485 118.4809722
  69.8143764  20.2025738 117.9773439  68.4700706  20.5433362 118.5844700
  73.2366525  20.5289634 119.4168054  73.4530139  21.4114272 119.1156882
  72.7560592  20.1375847 118.6873696  67.9765746  23.4875347 125.9938799
  67.8310327  23.8015650 126.8863080  67.4990950  24.1060247 125.4409697
  69.8362129  20.4777895 126.0419688  69.8223698  19.5818988 125.7051986
  70.5534557  20.4848559 126.6757974  71.6888260  20.9115235 128.0872816
  71.4306037  21.8332306 128.0857146  71.1573300  20.5145670 128.7773280
  76.6334448  34.0166022 120.8662901  76.8071326  33.4512445 120.1136754
  77.1263340  34.8166917 120.6842391  62.4511408  26.0280691 128.9326460
  61.9064876  26.8040499 129.0646734  63.3290758  26.3751496 128.7745581
  69.2399025  19.3592275 121.3107258  69.3614936  18.4308921 121.5098146
  68.9501067  19.3730961 120.3985574  72.1090215  17.0447186 124.4473978
  72.1311912  17.1086519 123.4925958  72.5258274  16.2051694 124.6414485
  82.4873839  26.7802445 122.4853201  82.9304985  26.0309770 122.0872324
  81.6100350  26.7712582 122.1026933  77.6209621  33.3332787 117.9659799
  78.3160525  33.9539479 118.1847114  77.9632771  32.4828138 118.2412177
  79.5201044  30.7832492 119.4947130  80.0452368  31.1219765 118.7696450
  79.4323396  29.8479508 119.3110265  71.1821093  34.6966566 131.6237007
  71.4908219  34.4515713 132.4959706  71.9796575  34.9013204 131.1355877
  71.2041705  36.8504475 123.8542383  70.7646695  36.3580854 124.5475240
  71.9549822  36.3077443 123.6134459  63.6834044  33.0416016 123.8567011
  64.5092064  32.7419788 123.4765655  63.3328096  32.2723639 124.3056800
  68.6515577  32.3942485 125.9264685  68.0295586  31.7313190 125.6266913
  69.3220444  32.4203616 125.2438333  61.8842649  30.9602343 124.8155945
  61.0474557  30.5324517 124.6339946  61.8566294  31.1534786 125.7526736
  79.2094950  31.4165396 134.7998328  78.4190494  31.3989535 134.2602828
  78.9728305  31.9553690 135.5547365  79.3292825  28.2657862 132.1131057
  79.3790830  28.1007870 133.0546580  79.2206748  27.3985121 131.7228937
  68.2129084  30.9446408 119.4023146  68.3617204  31.6281872 118.7489818
  69.0195527  30.9251498 119.9172601  80.8311022  30.6854804 132.3573078
  80.5395830  31.0484784 133.1936539  80.2183153  29.9721812 132.1786410
  82.0306704  28.2507684 124.8775648  82.8653596  28.6897488 125.0413209
  82.1665833  27.7746337 124.0583894  79.0798210  25.8087418 130.8253136
  79.5552332  26.0015065 130.0171988  78.1563775  25.8646604 130.5796520
  65.9681717  26.9711586 120.4084215  65.7227759  26.0673916 120.6064425
  66.1377631  26.9728736 119.4663693  65.2377364  22.7039943 117.9070376
  64.5446609  22.7784298 117.2510412  64.9929116  21.9400287 118.4291893
  73.9091021  14.2635544 125.3109867  74.1892774  13.5958734 125.9370293
  74.6941628  14.4564640 124.7984531  71.7124489  33.4394538 116.8734893
  71.1398456  34.0584725 116.4205365  72.2857283  33.9893900 117.4074815
  77.7799879  22.6853178 129.0581442  78.7317302  22.7851276 129.0793666
  77.6103329  21.8931447 129.5679526  75.8014259  19.7708762 129.2440843
  75.2064191  20.0513774 128.5487331  75.5163955  20.2602663 130.0157584
  74.9321749  33.7231688 118.0043475  75.8652422  33.6577250 118.2076351
  74.8444962  34.5587955 117.5458008  77.5609766  33.0397559 114.9647423
  77.4823397  32.7057422 115.8583181  78.3819432  33.5319327 114.9638895
  80.2587957  25.9059298 128.1723741  80.2264277  24.9675299 128.3583425
  80.8688581  25.9843335 127.4389566  72.0971288  24.7755351 114.2150946
  73.0430392  24.6461559 114.2839364  71.7185533  24.0370013 114.6920374
  80.4082445  22.6970342 128.2182025  79.8921494  21.9128798 128.0311954
  81.2922394  22.3689058 128.3828544  78.0693172  16.4411357 124.1777837
  77.8717993  16.1326445 125.0621169  78.6792878  17.1672996 124.3075767
  86.0764507  26.9675305 127.3129778  86.8067895  26.7060593 127.8737482
  85.4671452  26.2304027 127.3531846  84.1579804  25.1083168 127.9104229
  83.4312967  24.9739132 127.3020721  83.7427091  25.4159996 128.7160948
  70.2814205  22.7005327 114.1505831  69.3745660  22.4038440 114.2268544
  70.5590186  22.4035146 113.2840117  61.1992145  24.0211691 124.6004877
  60.8794930  23.1676999 124.3079251  60.6525573  24.2360269 125.3562844
  64.9772053  26.7374132 128.3174384  65.1958063  27.6691240 128.3362417
  65.3897827  26.3782106 129.1029188  71.8976271  17.2442217 120.3050072
  71.0876999  16.8989302 120.6805318  72.5860688  16.9349761 120.8937684
  73.8266819  16.3220264 121.9274369  74.3797857  16.7415717 122.5864392
  74.0636905  15.3956012 121.9697325  69.0512989  19.5592263 114.2917810
  69.9132153  19.8847161 114.5513627  69.2363334  18.7723759 113.7790876
  61.0680405  27.6414602 126.5697999  60.3743877  27.2268555 126.0567953
  61.8153396  27.6835139 125.9731418  77.2045626  18.4320789 121.4353033
  76.6244295  19.0905593 121.0531085  76.9381559  17.6098134 121.0240450
  75.6549192  17.8325847 123.6374353  76.1548971  17.9442381 122.8288672
  76.2984800  17.5286900 124.2775162  62.9817148  27.5732856 124.4464014
  62.9587836  27.6720543 123.4945897  63.2917784  28.4198007 124.7681180
  65.6404526  29.6309011 128.5610628  66.5947779  29.5992954 128.4940560
  65.4417049  29.1699635 129.3760854  66.2303908  28.2010127 131.1281426
  67.0496797  28.6954206 131.1516263  66.5040715  27.2842095 131.0998993
  75.9870504  20.5920880 120.4909381  75.0996359  20.8770530 120.2729576
  76.4024493  20.4314643 119.6436658  79.3385040  20.6167401 124.2063720
  80.1145430  21.1063853 124.4788337  78.6133174  21.0425455 124.6635590
  81.7757599  21.3295020 125.2637661  82.3702090  21.0890756 124.5530969
  81.8484182  20.6102150 125.8911197  63.9954754  35.1728631 125.5780826
  63.8609222  34.4129032 125.0118824  63.5786817  35.8969531 125.1109615
  75.1313717  30.3565554 114.5857401  75.8349568  30.5615557 115.2015057
  74.4076366  30.9242316 114.8506485  75.9611528  26.1075415 120.7059671
  75.9046729  26.5643967 119.8667304  76.5139870  25.3466100 120.5282514
  79.7716334  21.8965147 121.5309791  79.5153268  21.4961783 122.3617999
  79.1469202  22.6108941 121.4059930  84.0828672  24.6361221 124.0381082
  83.5228229  24.7054410 124.8112644  83.4772175  24.4602205 123.3180579
  67.1523880  36.0697948 125.7899269  67.0356264  37.0143380 125.6877959
  66.3316327  35.7671509 126.1785068  77.0400415  30.7948083 116.6355861
  77.8746019  30.3629282 116.4533336  76.8784758  30.6230097 117.5632756
  76.6946307  27.2980197 118.0012201  76.6395111  27.1324468 117.0600645
  76.0692362  28.0056230 118.1574390  70.0042433  16.7988306 117.5797519
  69.9921102  17.7430146 117.7365790  70.8965854  16.6158451 117.2856980
  68.1778394  36.7226210 129.0055197  69.0805641  36.7549820 129.3221692
  67.9515765  35.7926661 129.0201533  69.9331996  35.4757196 125.6665276
  68.9827627  35.4759058 125.5529648  70.2364483  34.7289931 125.1501310
  73.8194552  13.3931082 121.8343456  73.0526948  12.8389569 121.9800138
  74.2305257  13.4652951 122.6957607  85.6684690  41.3117735 126.7311038
  86.3063100  41.1924482 126.0274378  85.5505533  42.2598578 126.7898990
  82.4774396  41.2645163 126.6672563  82.1392908  41.1486227 125.7793098
  83.3464164  40.8636328 126.6473569  78.3361212  43.1180639 122.6569454
  77.7726077  43.0270576 121.8885741  78.2213607  42.2980544 123.1371946
  82.9594179  42.4180014 132.6258768  82.9482820  42.0232813 131.7539272
  83.1214819  41.6846087 133.2192540  75.8825644  44.6131831 125.4953674
  76.6746936  44.2722655 125.0799973  76.1222294  44.7226806 126.4155827
  83.9160771  46.7851607 117.9683919  83.2648750  47.3705687 117.5817932
  84.7105133  47.3157802 118.0278956  77.8416398  43.8740744 118.3671053
  78.6147274  43.3269731 118.2283929  78.1941797  44.7384993 118.5785514
  79.6801440  45.2017126 131.5737952  79.3891306  46.1062757 131.4584619
  80.3158425  45.2433654 132.2882022  80.6057647  42.5793975 128.1639312
  81.2021219  42.3549997 127.4496275  80.6632619  41.8378720 128.7664760
  80.1782676  40.0333410 115.9989503  80.4308196  39.5114931 115.2372966
  79.2407235  39.8699555 116.1016186  85.2225958  39.0369188 123.8064246
  86.0089048  38.6188612 123.4554663  85.4864663  39.9415281 123.9745894
  85.3936036  44.4742039 118.5052903  84.7581869  44.5476665 119.2173808
  85.0633442  45.0635638 117.8271982  90.6234386  38.9744422 124.7097225
  91.3559558  38.4043638 124.9435054  89.8673741  38.5866022 125.1503730
  79.8978964  41.9361516 118.2013878  79.7815222  41.2606419 118.8694962
  80.0081224  41.4493890 117.3846031  82.2410505  41.3971663 121.9060567
  81.8768713  40.8702284 122.6173488  83.0977621  41.0070132 121.7327052
  88.1459806  32.6865996 129.1691833  87.8143131  33.5561407 128.9453048
  87.5505419  32.3702280 129.8485864  81.8815992  36.4261563 116.9021916
  82.0490395  37.2941799 117.2692387  81.6913161  36.5888844 115.9783205
  84.6391325  44.8878542 128.5687746  84.3392049  45.7903580 128.4603553
  84.2942385  44.6210725 129.4208899  78.0903807  41.3392339 124.6024450
  77.1654303  41.2068553 124.8102142  78.3388220  42.1186558 125.0994393
  88.0388469  37.4061082 126.2485183  87.1305347  37.3376490 125.9543944
  87.9876065  37.8833027 127.0767009  81.8605213  38.8819220 117.8868582
  81.7404838  39.3276271 118.7254063  81.1657802  39.2304538 117.3282120
  75.4512618  40.9825612 125.4368239  75.5804999  41.2360091 126.3507651
  74.7710069  41.5753320 125.1172894  79.6212105  51.6522862 121.5358714
  79.5436135  52.6030687 121.6147194  79.0173749  51.3068735 122.1933640
  82.1129335  38.8250727 134.1920080  81.3362669  39.3844648 134.1822945
  82.7519898  39.3107510 134.7134951  89.9050116  35.6077520 128.0263057
  89.2624496  35.9010053 127.3802852  89.4005044  35.4930441 128.8316254
  87.5590279  39.3540693 118.7148916  88.4708135  39.5868080 118.5396614
  87.0499926  39.9377738 118.1523995  80.3675707  41.6336181 133.7538047
  81.1090392  42.1721225 133.4772871  79.6612693  42.2602470 133.9109599
  85.8431047  43.7765321 132.3510209  86.2514403  43.3347732 131.6064841
  85.1208308  43.2017949 132.6044402  82.1962117  38.7137928 129.7243766
  83.0423312  39.1377342 129.8678415  82.1360755  38.0571552 130.4182329
  86.1659862  44.3366512 126.1062498  85.5368724  44.5012226 125.4038566
  85.7785524  44.7508121 126.8773462  90.0449094  45.2720950 123.4606862
  89.3600132  45.6519851 122.9103895  90.1292943  45.8816276 124.1938809
  85.3461562  36.3742296 131.3824940  85.1022494  37.1284357 130.8459215
  85.6221493  36.7527644 132.2172187  87.3000025  42.9180909 130.0602205
  87.5116920  43.5612669 129.3836586  87.2529773  42.0843225 129.5924135
  84.9026254  35.5298729 126.9638777  84.0410733  35.8279983 127.2555515
  84.9288689  35.7469128 126.0319810  81.7187823  44.0740920 123.3712583
  82.1826169  44.3528623 122.5817205  81.4544622  43.1724365 123.1885674
  78.6111905  43.6212402 126.3092346  79.1813262  44.0499670 125.6709831
  79.2020016  43.3394986 127.0076532  80.6556710  40.1964072 120.1802148
  81.3580753  40.6485116 120.6476074  80.3237338  39.5547891 120.8082041
  79.1037071  38.7875829 134.5553357  78.4735732  39.4692110 134.7888754
  78.9973159  38.6758911 133.6106496  74.3982044  38.4547625 125.4819282
  73.6081097  38.7105154 125.0059392  74.8893291  39.2695963 125.5871322
  88.4145853  45.7952864 128.2324562  89.2363297  45.3933051 127.9507244
  88.4108256  45.6921098 129.1840678  76.3496789  38.8192204 122.4402758
  75.5527952  38.9310899 122.9586254  76.1222381  39.1578856 121.5743649
  82.1802457  45.3436907 130.3885273  82.2446889  45.8057315 131.2243445
  81.4713380  44.7134272 130.5167583  72.6819746  38.7078115 127.9134272
  72.9327785  39.5925125 128.1791848  73.2179295  38.5282717 127.1409364
  96.5051846  42.1391613 124.5809534  95.7515555  41.5699011 124.4253538
  96.6399387  42.1054277 125.5280169  81.8950474  47.0105015 120.2564253
  81.7596149  47.8556551 120.6849101  82.4360287  47.2124293 119.4930187
  78.3817814  33.0896595 136.9178609  77.9884759  32.5362793 137.5926253
  79.1983954  33.4007173 137.3085126  75.3479872  44.5280453 120.8292178
  75.8604392  45.3223703 120.9797743  76.0002584  43.8306743 120.7625780
  77.1574756  47.6446209 122.9114932  77.3341385  48.5664174 122.7235915
  77.9531590  47.3304629 123.3409311  81.2985775  34.5054474 134.5098865
  82.0395488  35.1061627 134.4303328  81.5303698  33.7632112 133.9516908
  76.4427113  39.6910841 132.7877095  76.3280628  38.7896098 133.0884194
  75.5871631  39.9374538 132.4361911  83.5218951  47.6328581 134.3864595
  83.0782805  46.8464960 134.0685500  84.1836164  47.8207732 133.7208486
  78.2806072  49.1624383 128.9125274  78.8313497  49.0341446 128.1402268
  77.4417548  49.4619272 128.5620167  85.6200189  47.9131381 132.4145997
  85.6018664  48.7340262 131.9226266  86.5420109  47.7885457 132.6396138
  82.0773243  45.4275511 133.2569505  82.6101580  44.6663799 133.0268813
  81.5487324  45.1349163 133.9993660  85.2442938  30.5335577 128.7863147
  84.9007207  31.4237219 128.7102257  85.6121900  30.3437235 127.9232732
  73.3128788  42.8569107 121.6051749  74.1504010  43.2666116 121.3885457
  73.4907056  41.9168549 121.5751943  85.2093220  40.5244188 117.2935582
  84.6939844  41.2948793 117.5323969  84.9370529  39.8509324 117.9168643
  82.7940331  35.3693889 122.3520820  81.9381928  34.9800739 122.1726459
  83.2067283  35.4485850 121.4920606  84.3239478  32.9040232 126.7512380
  83.8204274  32.8670367 125.9380185  84.6170085  33.8132975 126.8109037
  80.5682364  32.9878962 125.7578562  81.4335361  32.7921770 125.3984451
  80.6359873  32.7589314 126.6847919  90.1827495  43.2776543 119.2288755
  89.4056937  42.9387702 118.7843917  90.8618976  43.2829166 118.5543720
  84.9979524  38.3971280 119.1195363  84.6929659  38.7117429 119.9705506
  85.9509966  38.4752700 119.1622696  83.4425955  44.5561503 120.7688317
  82.9147317  43.8214263 120.4561555  82.9413458  45.3336180 120.5228285
  88.4218801  42.7510524 125.8855363  87.7642476  43.4409785 125.9735492
  89.2259201  43.1406956 126.2289350  78.1744683  35.2181170 123.1294929
  78.7488435  34.9956351 122.3968122  78.7615666  35.2869864 123.8823530
  87.2324260  41.1054897 123.9359305  87.7456142  41.7384888 124.4381015
  87.8825484  40.5056092 123.5702665  78.5014270  37.2485631 117.1490814
  77.6651582  37.5860317 117.4700089  78.3619040  37.1134610 116.2117951
  80.4767351  32.0922419 121.8569998  79.8231763  31.7771436 121.2326613
  80.4347825  31.4698159 122.5829821  81.5878556  42.3741714 113.7723290
  80.6805617  42.1430967 113.9714439  82.0849588  41.5779333 113.9597272
  84.4946635  51.0839221 116.6919976  83.8208333  51.3870918 117.3004934
  84.8812457  51.8868301 116.3425433  83.7105091  38.5804352 126.1817646
  82.7927653  38.8019299 126.0239334  84.1265235  38.6550663 125.3229353
  84.4940139  39.9795768 121.3120326  85.2411958  40.4917165 121.0027448
  84.7631728  39.6579821 122.1724719  82.7666789  42.4754309 118.2947280
  81.8578008  42.1913341 118.3919750  82.7961873  42.8953387 117.4350587
  87.9986057  46.0860898 122.0638448  87.5448384  45.2451808 122.1203638
  87.3680023  46.7222296 122.4013228  86.9418976  37.0152884 123.2939115
  86.2041733  36.5030270 123.6249358  87.1945750  36.5753266 122.4822392
  86.4418996  47.9237395 122.9988266  86.7341970  48.4842452 122.2800632
  86.9517616  48.2165956 123.7541425  87.0430603  29.7929136 123.8880884
  87.3489480  28.9326499 123.6006800  87.7683208  30.3846756 123.6879878
  73.3354959  40.1959823 122.2762482  73.1379359  39.6029183 121.5513549
  72.7801623  39.8912033 122.9938421  81.3151683  40.0882929 124.3957076
  81.3700293  39.1356766 124.3199552  80.5042885  40.2442368 124.8798374
  82.4642877  44.0163052 115.6335359  82.0262307  43.2998911 115.1740996
  83.2053318  44.2439167 115.0720450  79.2544043  38.7059989 122.1547454
  78.4411909  39.0054159 122.5612647  79.7503037  38.3115678 122.8721937
  81.4052621  48.7017746 124.0881719  81.3628800  48.9278592 123.1590251
  82.3215320  48.4681120 124.2367520  84.8518255  39.1701813 130.9862348
  85.2067642  39.3973286 131.8456814  85.4990386  39.5020190 130.3639604
  90.5815992  42.2920249 121.6911677  90.4433890  42.4821845 120.7632867
  90.2252210  43.0539632 122.1479728  78.7458118  36.2778344 127.7708689
  79.3857497  36.1367103 127.0731653  77.9135648  35.9912858 127.3947291
  90.6085371  44.3596776 126.7022949  91.0421878  44.2672065 127.5506003
  91.3216952  44.3354277 126.0642965  79.5218422  45.5780775 123.8843682
  80.3159020  45.0831095 123.6826257  78.8110114  45.0498638 123.5211387
  84.3413266  47.9598870 128.2356049  84.3950288  48.5289807 129.0033765
  83.4728048  48.1300755 127.8710087  75.8301185  39.7223857 119.9603434
  74.8998773  39.6608312 120.1773397  75.9258657  39.1999809 119.1640076
  75.7486734  36.2478669 122.5481676  76.0093552  37.1624003 122.4390837
  76.5703907  35.7803112 122.6978289  77.2211660  37.6616427 129.7180501
  77.8934713  37.4533789 129.0693150  76.3941446  37.4638513 129.2785733
  91.4700921  44.4020477 129.2355834  91.6636811  45.3066287 129.4815109
  91.3701539  43.9427896 130.0694419  83.1237232  34.2878367 131.7346162
  82.4765147  34.9868317 131.6410638  83.8938247  34.7214511 132.1022410
  86.5316030  44.5527220 134.8096715  86.3801536  44.3237771 133.8926799
  86.5220709  45.5097821 134.8228060  83.3001366  42.1259132 129.7942981
  84.2293426  42.2770292 129.6211949  82.8792396  42.2143153 128.9391628
  82.0989698  46.1509797 127.5641519  81.9600783  45.7828581 128.4367457
  81.3104294  46.6657436 127.3925477  82.6937850  51.2518893 118.9067055
  82.8689605  50.7806936 119.7212678  82.0070638  51.8784659 119.1348316
  83.6494913  45.5291399 124.9530357  83.3144745  45.4892169 125.8488007
  83.1498859  44.8636115 124.4800767  77.6239157  40.9359030 130.4782938
  77.4858955  40.2039268 131.0794477  78.5344080  40.8467930 130.1967126
  86.5854105  42.8747434 115.2267416  85.9683275  42.1494262 115.1300469
  86.1170593  43.6356794 114.8834491  80.2521457  40.6478989 129.9666618
  80.9621076  40.0072181 129.9253236  80.2090766  40.8991884 130.8892798
  88.2408236  47.5846342 132.8873197  88.1820782  46.9005562 132.2203780
  88.6427755  48.3265332 132.4353823  78.9650391  37.6344207 131.7862257
  78.4287748  37.1834945 132.4383853  78.3767100  37.7690116 131.0432721
  77.2598935  54.4008256 125.6806916  77.4995533  55.0326780 126.3585934
  76.4168131  54.0496296 125.9672275  78.3752650  37.0932858 114.3488721
  77.4982117  36.9721659 113.9850967  78.8510403  36.3018936 114.0967609
  88.2425643  45.5485926 131.1187176  87.3552422  45.2111848 131.2413575
  88.8124194  44.8168957 131.3555942  69.8954791  41.8810018 124.4430228
  70.5825830  41.5671748 123.8551243  69.7402919  42.7851383 124.1697479
  74.6989513  36.7700214 128.8715251  74.6147701  36.1625884 128.1365661
  73.8772219  37.2609233 128.8724748  81.7726797  50.2087378 128.0848420
  81.6996968  51.0142350 128.5967724  81.3304190  50.4079344 127.2596441
  81.5616576  49.4459148 121.5951241  80.7784098  49.9880829 121.6889466
  82.2609322  49.9633128 121.9945482  84.8713227  35.2553778 124.2385447
  85.3681926  34.5023740 123.9186517  84.1000208  35.2918095 123.6728656
  92.7242984  40.9594143 125.8803738  92.7132860  41.8418859 125.5097671
  91.8560363  40.6065694 125.6858275  84.2325480  50.1074212 130.2406578
  84.9453453  50.7421677 130.1682480  83.7415509  50.2038078 129.4246580
  85.9543007  44.0125465 121.8123870  85.0199286  44.1326928 121.6428574
  86.1319676  43.1097932 121.5483880  81.4548195  37.3971161 123.9657131
  81.0845983  36.8442201 124.6538037  81.9507288  36.7929294 123.4132131
  89.3415559  39.8542784 122.3473904  89.8076011  40.6870776 122.2734207
  89.7923059  39.3887766 123.0519163  79.2837394  47.8568656 131.0612149
  79.9846853  48.4905139 131.2141543  78.8132509  48.1983388 130.3007788
  87.4091790  46.1986606 119.3460056  87.6851634  46.0843200 120.2553930
  86.5396288  45.8004091 119.3072229  87.3132221  32.2223371 126.3864805
  86.3995301  32.4527598 126.5547012  87.7425323  32.3061816 127.2378838
  87.0838680  40.4113263 128.8864699  86.4310130  40.6589171 128.2317152
  87.4619060  39.5977402 128.5527177  84.0445854  50.4472957 122.9892870
  84.2268248  49.6294613 123.4520622  84.8678840  50.6640649 122.5517760
  84.3788019  49.3741142 120.2507918  84.9075786  48.8633596 119.6378080
  84.6416239  49.0583672 121.1153451  83.1326253  41.1533074 135.3730737
  82.4566890  41.0527204 136.0433112  83.9553887  40.9972288 135.8366734
  74.8805112  47.3905011 127.9943252  75.4658549  46.6448699 128.1271156
  74.6829950  47.7008968 128.8779916  77.7343767  50.4256258 123.0105694
  77.0654142  50.9102386 122.5269734  77.5956637  50.6725479 123.9249073
  69.4722767  39.9610611 126.7147695  69.5106866  39.4274202 127.5084813
  68.9663060  39.4345817 126.0958672  81.8749036  52.4600002 129.6088352
  82.4267344  52.6231623 130.3737438  82.2155229  53.0504440 128.9368377
  76.8513529  34.8075152 130.2110237  76.9154855  35.6689983 129.7987635
  76.7880649  34.1949153 129.4782596  76.3265802  36.8798284 133.8583271
  76.9537840  36.4975362 134.4720796  75.4693720  36.6612486 134.2238964
  86.7259910  47.2861259 135.4637007  87.2699814  47.8991218 134.9691962
  86.1446755  47.8440838 135.9804020  73.1031344  38.6874713 119.7901626
  73.3984785  37.7785392 119.7368680  72.2019380  38.6662453 119.4682629
  85.0117423  50.4081977 126.5952035  84.8868562  49.6071717 126.0862980
  85.6696514  50.9028171 126.1066005  76.6325591  36.7630710 125.7729175
  75.9112177  37.3766678 125.6336648  77.4218847  37.2988475 125.6945821
  87.0752331  48.2090998 128.2231585  86.1282667  48.0896349 128.1509911
  87.4235105  47.3213496 128.3057846  79.4351905  34.0985136 132.0469827
  79.9586307  34.3447433 132.8096136  79.2164238  34.9305171 131.6272964
  74.8319186  36.3688811 119.9140951  74.5031892  35.4886190 119.7316057
  75.1858557  36.3136480 120.8017341  84.0798765  48.0043714 124.4235937
  83.9323727  47.0760421 124.6043507  84.9052258  48.0263804 123.9393012
  77.9461009  36.6561781 120.2816429  78.2857082  37.1847702 119.5595037
  78.3933129  36.9942187 121.0574996  87.6832887  48.8272272 125.5100810
  88.6079434  48.6215134 125.3725261  87.5148190  48.5788674 126.4190151
  80.6404450  35.0398832 129.7319497  80.3001270  34.2406645 130.1340177
  79.9343456  35.3400542 129.1596330  81.2920922  32.1248144 128.1846820
  82.1146991  31.6508622 128.0625711  81.5358985  32.9038628 128.6845506
  79.9329156  35.1536402 118.4809722  80.6537519  35.5317655 117.9773439
  79.3094460  35.8725279 118.5844700  84.0760279  35.8581551 119.4168054
  84.2923893  36.7406189 119.1156882  83.5954346  35.4667765 118.6873696
  78.8159500  38.8167265 125.9938799  78.6704081  39.1307568 126.8863080
  78.3384704  39.4352165 125.4409697  80.6755883  35.8069813 126.0419688
  80.6617452  34.9110906 125.7051986  81.3928311  35.8140476 126.6757974
  82.5282014  36.2407153 128.0872816  82.2699792  37.1624223 128.0857146
  81.9967054  35.8437587 128.7773280  87.4728203  49.3457940 120.8662901
  87.6465080  48.7804362 120.1136754  87.9657094  50.1458835 120.6842391
  73.2905163  41.3572609 128.9326460  72.7458631  42.1332417 129.0646734
  74.1684512  41.7043413 128.7745581  80.0792779  34.6884193 121.3107258
  80.2008690  33.7600839 121.5098146  79.7894822  34.7022879 120.3985574
  82.9483970  32.3739103 124.4473978  82.9705666  32.4378436 123.4925958
  83.3652029  31.5343612 124.6414485  93.3267594  42.1094363 122.4853201
  93.7698740  41.3601688 122.0872324  92.4494104  42.1004499 122.1026933
  88.4603375  48.6624704 117.9659799  89.1554280  49.2831397 118.1847114
  88.8026525  47.8120056 118.2412177  74.0771184  40.4842505 131.8256617
  73.3352920  40.6325141 132.4121247  73.7563929  40.7450771 130.9623366
  90.3594798  46.1124410 119.4947130  90.8846122  46.4511683 118.7696450
  90.2717151  45.1771425 119.3110265  82.0214847  50.0258484 131.6237007
  82.3301974  49.7807630 132.4959706  82.8190329  50.2305122 131.1355877
  82.0435459  52.1796393 123.8542383  81.6040449  51.6872772 124.5475240
  82.7943576  51.6369361 123.6134459  74.5227798  48.3707934 123.8567011
  75.3485818  48.0711706 123.4765655  74.1721850  47.6015556 124.3056800
  79.4909331  47.7234402 125.9264685  78.8689341  47.0605107 125.6266913
  80.1614198  47.7495534 125.2438333  72.7236403  46.2894260 124.8155945
  71.8868311  45.8616435 124.6339946  72.6960049  46.4826704 125.7526736
  79.5633859  36.2016190 135.5197191  79.6122014  37.0778313 135.1374961
  80.1056373  35.6593583 134.9468834  90.0488704  46.7457314 134.7998328
  89.2584248  46.7281452 134.2602828  89.8122059  47.2845607 135.5547365
  90.1686579  43.5949780 132.1131057  90.2184584  43.4299787 133.0546580
  90.0600503  42.7277039 131.7228937  79.0522838  46.2738326 119.4023146
  79.2010959  46.9573790 118.7489818  79.8589282  46.2543416 119.9172601
  87.4590342  39.5780708 133.4290363  88.3600205  39.4387173 133.1374361
  87.5338316  39.7435163 134.3688541  81.7933147  36.9547563 132.2743550
  80.9236457  37.2481129 132.0026138  82.0292628  37.5388008 132.9950813
  91.6704776  46.0146721 132.3573078  91.3789585  46.3776702 133.1936539
  91.0576908  45.3013730 132.1786410  92.8700459  43.5799601 124.8775648
  93.7047350  44.0189405 125.0413209  93.0059587  43.1038254 124.0583894
  89.9191965  41.1379336 130.8253136  90.3946086  41.3306982 130.0171988
  88.9957530  41.1938522 130.5796520  76.8075471  42.3003503 120.4084215
  76.5621513  41.3965833 120.6064425  76.9771386  42.3020654 119.4663693
  84.4972181  33.1727180 129.7908970  85.0154125  33.9088207 129.4655459
  84.1427314  33.4791173 130.6255729  76.0771119  38.0331861 117.9070376
  75.3840364  38.1076216 117.2510412  75.8322871  37.2692204 118.4291893
  84.7484775  29.5927462 125.3109867  85.0286529  28.9250651 125.9370293
  85.5335382  29.7856558 124.7984531  82.5518244  48.7686456 116.8734893
  81.9792211  49.3876643 116.4205365  83.1251037  49.3185818 117.4074815
  88.6193634  38.0145096 129.0581442  89.5711056  38.1143194 129.0793666
  88.4497084  37.2223365 129.5679526  86.6408013  35.1000679 129.2440843
  86.0457945  35.3805692 128.5487331  86.3557710  35.5894580 130.0157584
  85.7715503  49.0523606 118.0043475  86.7046177  48.9869168 118.2076351
  85.6838716  49.8879873 117.5458008  88.4003520  48.3689476 114.9647423
  88.3217152  48.0349340 115.8583181  89.2213187  48.8611244 114.9638895
  91.0981711  41.2351216 128.1723741  91.0658031  40.2967217 128.3583425
  91.7082335  41.3135253 127.4389566  82.9365042  40.1047269 114.2150946
  83.8824147  39.9753477 114.2839364  82.5579287  39.3661931 114.6920374
  91.2476200  38.0262259 128.2182025  90.7315248  37.2420716 128.0311954
  92.1316148  37.6980976 128.3828544  88.9086927  31.7703275 124.1777837
  88.7111748  31.4618363 125.0621169  89.5186632  32.4964914 124.3075767
  96.9158261  42.2967223 127.3129778  97.6461650  42.0352511 127.8737482
  96.3065207  41.5595945 127.3531846  94.9973558  40.4375085 127.9104229
  94.2706722  40.3031050 127.3020721  94.5820845  40.7451914 128.7160948
  82.8203735  44.1565015 135.6751603  83.7406744  44.3343614 135.8691649
  82.7853318  43.2121060 135.5231302  81.1207959  38.0297245 114.1505831
  80.2139415  37.7330358 114.2268544  81.3983940  37.7327063 113.2840117
  72.0385900  39.3503609 124.6004877  71.7188684  38.4968917 124.3079251
  71.4919328  39.5652187 125.3562844  75.8165807  42.0666050 128.3174384
  76.0351817  42.9983157 128.3362417  76.2291581  41.7074024 129.1029188
  82.7370025  32.5734135 120.3050072  81.9270753  32.2281220 120.6805318
  83.4254442  32.2641679 120.8937684  84.6660573  31.6512182 121.9274369
  85.2191612  32.0707635 122.5864392  84.9030660  30.7247930 121.9697325
  80.6893673  37.6399255 137.7077133  80.5890400  38.5893612 137.6389224
  80.4715215  37.3117494 136.8353203  79.8906744  34.8884180 114.2917810
  80.7525908  35.2139079 114.5513627  80.0757088  34.1015676 113.7790876
  71.9074160  42.9706520 126.5697999  71.2137631  42.5560473 126.0567953
  72.6547151  43.0127057 125.9731418  88.0439380  33.7612707 121.4353033
  87.4638050  34.4197511 121.0531085  87.7775313  32.9390051 121.0240450
  86.4942947  33.1617765 123.6374353  86.9942725  33.2734299 122.8288672
  87.1378555  32.8578817 124.2775162  80.5524943  41.0696394 136.5242194
  80.0692024  41.8696754 136.7306083  80.6385882  41.0804339 135.5709638
  73.8210902  42.9024774 124.4464014  73.7981590  43.0012461 123.4945897
  74.1311539  43.7489925 124.7681180  76.4798280  44.9600929 128.5610628
  77.4341534  44.9284871 128.4940560  76.2810804  44.4991553 129.3760854
  77.0697662  43.5302045 131.1281426  77.8890551  44.0246124 131.1516263
  77.3434470  42.6134013 131.0998993  86.8264258  35.9212797 120.4909381
  85.9390114  36.2062448 120.2729576  87.2418248  35.7606561 119.6436658
  90.1778795  35.9459318 124.2063720  90.9539185  36.4355771 124.4788337
  89.4526929  36.3717372 124.6635590  92.6151353  36.6586937 125.2637661
  93.2095844  36.4182673 124.5530969  92.6877937  35.9394068 125.8911197
  74.8348509  50.5020548 125.5780826  74.7002977  49.7420949 125.0118824
  74.4180571  51.2261448 125.1109615  85.9707472  45.6857472 114.5857401
  86.6743322  45.8907474 115.2015057  85.2470121  46.2534234 114.8506485
  86.8005282  41.4367333 120.7059671  86.7440484  41.8935885 119.8667304
  87.3533625  40.6758018 120.5282514  90.6110088  37.2257065 121.5309791
  90.3547022  36.8253701 122.3617999  89.9862956  37.9400859 121.4059930
  94.9222426  39.9653138 124.0381082  94.3621984  40.0346328 124.8112644
  94.3165929  39.7894123 123.3180579  77.9917635  51.3989865 125.7899269
  77.8750019  52.3435298 125.6877959  77.1710081  51.0963427 126.1785068
  87.8794169  46.1240001 116.6355861  88.7139773  45.6921200 116.4533336
  87.7178512  45.9522015 117.5632756  87.5340062  42.6272114 118.0012201
  87.4788865  42.4616386 117.0600645  86.9086117  43.3348147 118.1574390
  72.3232577  37.8640179 131.8273623  72.9691440  37.3539133 132.3160848
  72.1149728  38.6008860 132.4017048  84.8485969  44.9321026 137.3265763
  85.7177128  45.1061679 136.9652398  84.3692720  45.7515443 137.2041493
  80.8436187  32.1280223 117.5797519  80.8314857  33.0722063 117.7365790
  81.7359609  31.9450369 117.2856980  79.0172149  52.0518127 129.0055197
  79.9199396  52.0841738 129.3221692  78.7909519  51.1218578 129.0201533
  80.7725751  50.8049114 125.6665276  79.8221382  50.8050975 125.5529648
  81.0758237  50.0581848 125.1501310  84.6588306  28.7223000 121.8343456
  83.8920702  28.1681487 121.9800138  85.0699011  28.7944869 122.6957607
  76.6630068  35.0107796 135.9248637  77.5261529  34.6544601 136.1351962
  76.0895478  34.6721691 136.6124041  96.5078444  56.6409652 126.7311038
  97.1456854  56.5216400 126.0274378  96.3899287  57.5890496 126.7898990
  93.3168151  56.5937080 126.6672563  92.9786662  56.4778145 125.7793098
  94.1857919  56.1928245 126.6473569  89.1754966  58.4472557 122.6569454
  88.6119832  58.3562494 121.8885741  89.0607361  57.6272461 123.1371946
  93.7987934  57.7471932 132.6258768  93.7876574  57.3524730 131.7539272
  93.9608573  57.0138005 133.2192540  86.7219398  59.9423748 125.4953674
  87.5140690  59.6014573 125.0799973  86.9616049  60.0518723 126.4155827
  94.7554525  62.1143524 117.9683919  94.1042505  62.6997605 117.5817932
  95.5498888  62.6449719 118.0278956  88.6810152  59.2032662 118.3671053
  89.4541028  58.6561649 118.2283929  89.0335551  60.0676911 118.5785514
  90.5195195  60.5309044 131.5737952  90.2285061  61.4354675 131.4584619
  91.1552179  60.5725571 132.2882022  91.4451402  57.9085892 128.1639312
  92.0414974  57.6841915 127.4496275  91.5026373  57.1670638 128.7664760
  91.0176430  55.3625328 115.9989503  91.2701951  54.8406849 115.2372966
  90.0800989  55.1991473 116.1016186  96.0619713  54.3661106 123.8064246
  96.8482802  53.9480529 123.4554663  96.3258417  55.2707198 123.9745894
  96.2329790  59.8033956 118.5052903  95.5975623  59.8768583 119.2173808
  95.9027197  60.3927555 117.8271982 101.4628140  54.3036339 124.7097225
 102.1953312  53.7335556 124.9435054 100.7067496  53.9157940 125.1503730
  90.7372719  57.2653434 118.2013878  90.6208977  56.5898337 118.8694962
  90.8474979  56.7785808 117.3846031  93.0804260  56.7263581 121.9060567
  92.7162467  56.1994202 122.6173488  93.9371376  56.3362050 121.7327052
  98.9853560  48.0157913 129.1691833  98.6536885  48.8853324 128.9453048
  98.3899174  47.6994197 129.8485864  92.7209747  51.7553480 116.9021916
  92.8884149  52.6233717 117.2692387  92.5306916  51.9180762 115.9783205
  95.4785080  60.2170459 128.5687746  95.1785803  61.1195498 128.4603553
  95.1336139  59.9502643 129.4208899  88.9297561  56.6684256 124.6024450
  88.0048058  56.5360470 124.8102142  89.1781975  57.4478475 125.0994393
  98.8782224  52.7353000 126.2485183  97.9699101  52.6668408 125.9543944
  98.8269820  53.2124944 127.0767009  92.6998968  54.2111138 117.8868582
  92.5798593  54.6568189 118.7254063  92.0051556  54.5596456 117.3282120
  86.2906372  56.3117530 125.4368239  86.4198754  56.5652009 126.3507651
  85.6103824  56.9045238 125.1172894  90.4605860  66.9814780 121.5358714
  90.3829889  67.9322605 121.6147194  89.8567503  66.6360652 122.1933640
  92.9523090  54.1542645 134.1920080  92.1756424  54.7136565 134.1822945
  93.5913653  54.6399428 134.7134951 100.7443870  50.9369438 128.0263057
 100.1018250  51.2301971 127.3802852 100.2398799  50.8222358 128.8316254
  98.3984034  54.6832611 118.7148916  99.3101890  54.9159998 118.5396614
  97.8893681  55.2669655 118.1523995  91.2069462  56.9628098 133.7538047
  91.9484146  57.5013142 133.4772871  90.5006447  57.5894387 133.9109599
  96.6824801  59.1057239 132.3510209  97.0908157  58.6639649 131.6064841
  95.9602063  58.5309866 132.6044402  93.0355872  54.0429846 129.7243766
  93.8817067  54.4669259 129.8678415  92.9754509  53.3863470 130.4182329
  97.0053616  59.6658430 126.1062498  96.3762479  59.8304144 125.4038566
  96.6179278  60.0800039 126.8773462 100.8842848  60.6012867 123.4606862
 100.1993886  60.9811769 122.9103895 100.9686697  61.2108194 124.1938809
  96.1855317  51.7034214 131.3824940  95.9416249  52.4576275 130.8459215
  96.4615247  52.0819562 132.2172187  98.1393780  58.2472826 130.0602205
  98.3510675  58.8904586 129.3836586  98.0923528  57.4135143 129.5924135
  95.7420009  50.8590647 126.9638777  94.8804488  51.1571901 127.2555515
  95.7682443  51.0761046 126.0319810  92.5581578  59.4032838 123.3712583
  93.0219924  59.6820541 122.5817205  92.2938376  58.5016282 123.1885674
  89.4505659  58.9504319 126.3092346  90.0207016  59.3791588 125.6709831
  90.0413771  58.6686904 127.0076532  91.4950464  55.5255990 120.1802148
  92.1974507  55.9777034 120.6476074  91.1631093  54.8839809 120.8082041
  89.9430826  54.1167747 134.5553357  89.3129486  54.7984028 134.7888754
  89.8366913  54.0050828 133.6106496  85.2375798  53.7839543 125.4819282
  84.4474852  54.0397071 125.0059392  85.7287045  54.5987881 125.5871322
  99.2539608  61.1244782 128.2324562 100.0757051  60.7224969 127.9507244
  99.2502010  61.0213016 129.1840678  87.1890543  54.1484122 122.4402758
  86.3921707  54.2602816 122.9586254  86.9616136  54.4870774 121.5743649
  93.0196211  60.6728825 130.3885273  93.0840644  61.1349232 131.2243445
  92.3107135  60.0426190 130.5167583  83.5213501  54.0370033 127.9134272
  83.7721539  54.9217043 128.1791848  84.0573049  53.8574635 127.1409364
 107.3445601  57.4683530 124.5809534 106.5909309  56.8990928 124.4253538
 107.4793142  57.4346195 125.5280169  92.7344229  62.3396933 120.2564253
  92.5989903  63.1848468 120.6849101  93.2754041  62.5416210 119.4930187
  89.2211568  48.4188513 136.9178609  88.8278514  47.8654711 137.5926253
  90.0377709  48.7299091 137.3085126  86.1873626  59.8572371 120.8292178
  86.6998147  60.6515621 120.9797743  86.8396339  59.1598661 120.7625780
  87.9968511  62.9738127 122.9114932  88.1735139  63.8956092 122.7235915
  88.7925344  62.6596546 123.3409311  92.1379529  49.8346392 134.5098865
  92.8789243  50.4353545 134.4303328  92.3697452  49.0924029 133.9516908
  87.2820867  55.0202759 132.7877095  87.1674382  54.1188016 133.0884194
  86.4265385  55.2666456 132.4361911  94.3612705  62.9620499 134.3864595
  93.9176559  62.1756878 134.0685500  95.0229919  63.1499650 133.7208486
  89.1199826  64.4916301 128.9125274  89.6707251  64.3633364 128.1402268
  88.2811302  64.7911190 128.5620167  96.4593943  63.2423299 132.4145997
  96.4412418  64.0632180 131.9226266  97.3813863  63.1177374 132.6396138
  92.9166997  60.7567429 133.2569505  93.4495334  59.9955717 133.0268813
  92.3881078  60.4641080 133.9993660  96.0836692  45.8627495 128.7863147
  95.7400962  46.7529136 128.7102257  96.4515655  45.6729152 127.9232732
  84.1522543  58.1861025 121.6051749  84.9897765  58.5958033 121.3885457
  84.3300811  57.2460467 121.5751943  96.0486975  55.8536106 117.2935582
  95.5333598  56.6240710 117.5323969  95.7764283  55.1801242 117.9168643
  93.6334086  50.6985806 122.3520820  92.7775682  50.3092657 122.1726459
  94.0461038  50.7777767 121.4920606  95.1633233  48.2332150 126.7512380
  94.6598028  48.1962285 125.9380185  95.4563839  49.1424892 126.8109037
  91.4076118  48.3170879 125.7578562  92.2729115  48.1213688 125.3984451
  91.4753627  48.0881231 126.6847919 101.0221249  58.6068460 119.2288755
 100.2450692  58.2679620 118.7843917 101.7012730  58.6121083 118.5543720
  95.8373278  53.7263198 119.1195363  95.5323414  54.0409347 119.9705506
  96.7903720  53.8044618 119.1622696  94.2819710  59.8853421 120.7688317
  93.7541072  59.1506181 120.4561555  93.7807213  60.6628097 120.5228285
  99.2612556  58.0802442 125.8855363  98.6036230  58.7701703 125.9735492
 100.0652955  58.4698873 126.2289350  89.0138438  50.5473087 123.1294929
  89.5882189  50.3248269 122.3968122  89.6009420  50.6161782 123.8823530
  98.0718015  56.4346814 123.9359305  98.5849897  57.0676806 124.4381015
  98.7219239  55.8348010 123.5702665  89.3408025  52.5777548 117.1490814
  88.5045337  52.9152235 117.4700089  89.2012794  52.4426528 116.2117951
  91.3161105  47.4214336 121.8569998  90.6625518  47.1063353 121.2326613
  91.2741579  46.7990077 122.5829821  92.4272310  57.7033631 113.7723290
  91.5199372  57.4722885 113.9714439  92.9243342  56.9071251 113.9597272
  95.3340389  66.4131139 116.6919976  94.6602088  66.7162835 117.3004934
  95.7206211  67.2160219 116.3425433  94.5498846  53.9096270 126.1817646
  93.6321407  54.1311217 126.0239334  94.9658989  53.9842580 125.3229353
  95.3333893  55.3087685 121.3120326  96.0805712  55.8209083 121.0027448
  95.6025483  54.9871738 122.1724719  93.6060544  57.8046226 118.2947280
  92.6971763  57.5205259 118.3919750  93.6355627  58.2245305 117.4350587
  98.8379811  61.4152816 122.0638448  98.3842138  60.5743726 122.1203638
  98.2073778  62.0514214 122.4013228  97.7812731  52.3444802 123.2939115
  97.0435487  51.8322188 123.6249358  98.0339504  51.9045183 122.4822392
  97.2812750  63.2529312 122.9988266  97.5735725  63.8134369 122.2800632
  97.7911371  63.5457873 123.7541425  97.8824358  45.1221054 123.8880884
  98.1883235  44.2618417 123.6006800  98.6076963  45.7138674 123.6879878
  84.1748714  55.5251740 122.2762482  83.9773114  54.9321101 121.5513549
  83.6195378  55.2203951 122.9938421  92.1545438  55.4174847 124.3957076
  92.2094047  54.4648683 124.3199552  91.3436640  55.5734286 124.8798374
  93.3036631  59.3454970 115.6335359  92.8656061  58.6290829 115.1740996
  94.0447072  59.5731085 115.0720450  90.0937798  54.0351907 122.1547454
  89.2805663  54.3346077 122.5612647  90.5896792  53.6407595 122.8721937
  92.2446375  64.0309663 124.0881719  92.2022554  64.2570510 123.1590251
  93.1609074  63.7973038 124.2367520  95.6912009  54.4993731 130.9862348
  96.0461397  54.7265204 131.8456814  96.3384140  54.8312108 130.3639604
 101.4209746  57.6212167 121.6911677 101.2827645  57.8113763 120.7632867
 101.0645965  58.3831550 122.1479728  89.5851872  51.6070262 127.7708689
  90.2251252  51.4659021 127.0731653  88.7529403  51.3204775 127.3947291
 101.4479126  59.6888694 126.7022949 101.8815632  59.5963983 127.5506003
 102.1610706  59.6646194 126.0642965  90.3612176  60.9072692 123.8843682
  91.1552775  60.4123013 123.6826257  89.6503869  60.3790556 123.5211387
  95.1807021  63.2890788 128.2356049  95.2344043  63.8581724 129.0033765
  94.3121802  63.4592673 127.8710087  86.6694940  55.0515774 119.9603434
  85.7392528  54.9900230 120.1773397  86.7652412  54.5291727 119.1640076
  86.5880489  51.5770587 122.5481676  86.8487306  52.4915920 122.4390837
  87.4097661  51.1095030 122.6978289  88.0605414  52.9908344 129.7180501
  88.7328467  52.7825706 129.0693150  87.2335201  52.7930430 129.2785733
 102.3094675  59.7312395 129.2355834 102.5030565  60.6358205 129.4815109
 102.2095293  59.2719814 130.0694419  93.9630986  49.6170285 131.7346162
  93.3158901  50.3160235 131.6410638  94.7332001  50.0506429 132.1022410
  97.3709784  59.8819137 134.8096715  97.2195290  59.6529689 133.8926799
  97.3614463  60.8389739 134.8228060  94.1395120  57.4551050 129.7942981
  95.0687180  57.6062210 129.6211949  93.7186150  57.5435071 128.9391628
  92.9383452  61.4801714 127.5641519  92.7994538  61.1120499 128.4367457
  92.1498048  61.9949354 127.3925477  93.5331604  66.5810811 118.9067055
  93.7083360  66.1098854 119.7212678  92.8464392  67.2076577 119.1348316
  94.4888667  60.8583317 124.9530357  94.1538500  60.8184087 125.8488007
  93.9892613  60.1928033 124.4800767  88.4632911  56.2650947 130.4782938
  88.3252709  55.5331186 131.0794477  89.3737835  56.1759847 130.1967126
  97.4247859  58.2039352 115.2267416  96.8077030  57.4786180 115.1300469
  96.9564347  58.9648712 114.8834491  91.0915212  55.9770907 129.9666618
  91.8014831  55.3364099 129.9253236  91.0484520  56.2283801 130.8892798
  99.0801991  62.9138260 132.8873197  99.0214537  62.2297480 132.2203780
  99.4821509  63.6557250 132.4353823  89.8044146  52.9636124 131.7862257
  89.2681503  52.5126863 132.4383853  89.2160854  53.0982033 131.0432721
  88.0992689  69.7300174 125.6806916  88.3389288  70.3618698 126.3585934
  87.2561886  69.3788214 125.9672275  89.2146405  52.4224776 114.3488721
  88.3375871  52.3013577 113.9850967  89.6904158  51.6310854 114.0967609
  99.0819398  60.8777844 131.1187176  98.1946177  60.5403766 131.2413575
  99.6517949  60.1460875 131.3555942  80.7348545  57.2101936 124.4430228
  81.4219585  56.8963666 123.8551243  80.5796674  58.1143300 124.1697479
  85.5383267  52.0992132 128.8715251  85.4541456  51.4917802 128.1365661
  84.7165974  52.5901150 128.8724748  92.6120551  65.5379296 128.0848420
  92.5390723  66.3434268 128.5967724  92.1697944  65.7371262 127.2596441
  92.4010331  64.7751066 121.5951241  91.6177853  65.3172746 121.6889466
  93.1003076  65.2925046 121.9945482  95.7106981  50.5845696 124.2385447
  96.2075681  49.8315658 123.9186517  94.9393963  50.6210012 123.6728656
 103.5636738  56.2886061 125.8803738 103.5526615  57.1710777 125.5097671
 102.6954118  55.9357612 125.6858275  95.0719235  65.4366130 130.2406578
  95.7847207  66.0713595 130.1682480  94.5809263  65.5329996 129.4246580
  96.7936762  59.3417383 121.8123870  95.8593040  59.4618845 121.6428574
  96.9713430  58.4389850 121.5483880  92.2941950  52.7263079 123.9657131
  91.9239737  52.1734119 124.6538037  92.7901042  52.1221212 123.4132131
 100.1809313  55.1834702 122.3473904 100.6469765  56.0162694 122.2734207
 100.6316814  54.7179684 123.0519163  90.1231148  63.1860574 131.0612149
  90.8240608  63.8197057 131.2141543  89.6526263  63.5275305 130.3007788
  98.2485544  61.5278523 119.3460056  98.5245388  61.4135118 120.2553930
  97.3790043  61.1296008 119.3072229  98.1525976  47.5515289 126.3864805
  97.2389056  47.7819516 126.5547012  98.5819077  47.6353733 127.2378838
  97.9232434  55.7405181 128.8864699  97.2703885  55.9881089 128.2317152
  98.3012814  54.9269319 128.5527177  94.8839608  65.7764874 122.9892870
  95.0662003  64.9586530 123.4520622  95.7072594  65.9932567 122.5517760
  95.2181774  64.7033059 120.2507918  95.7469540  64.1925514 119.6378080
  95.4809993  64.3875590 121.1153451  93.9720007  56.4824992 135.3730737
  93.2960644  56.3819121 136.0433112  94.7947641  56.3264206 135.8366734
  85.7198866  62.7196929 127.9943252  86.3052303  61.9740617 128.1271156
  85.5223705  63.0300885 128.8779916  88.5737522  65.7548176 123.0105694
  87.9047897  66.2394304 122.5269734  88.4350391  66.0017397 123.9249073
  80.3116521  55.2902529 126.7147695  80.3500621  54.7566120 127.5084813
  79.8056814  54.7637734 126.0958672  92.7142790  67.7891920 129.6088352
  93.2661098  67.9523541 130.3737438  93.0548984  68.3796357 128.9368377
  87.6907283  50.1367069 130.2110237  87.7548610  50.9981900 129.7987635
  87.6274404  49.5241071 129.4782596  87.1659556  52.2090202 133.8583271
  87.7931595  51.8267279 134.4720796  86.3087475  51.9904404 134.2238964
  97.5653665  62.6153177 135.4637007  98.1093569  63.2283135 134.9691962
  96.9840509  63.1732756 135.9804020  83.9425099  54.0166631 119.7901626
  84.2378540  53.1077309 119.7368680  83.0413135  53.9954370 119.4682629
  95.8511178  65.7373895 126.5952035  95.7262317  64.9363635 126.0862980
  96.5090269  66.2320088 126.1066005  87.4719346  52.0922628 125.7729175
  86.7505932  52.7058595 125.6336648  88.2612602  52.6280392 125.6945821
  97.9146086  63.5382915 128.2231585  96.9676421  63.4188266 128.1509911
  98.2628859  62.6505413 128.3057846  90.2745659  49.4277054 132.0469827
  90.7980061  49.6739351 132.8096136  90.0557993  50.2597089 131.6272964
  85.6712940  51.6980729 119.9140951  85.3425646  50.8178108 119.7316057
  86.0252311  51.6428397 120.8017341  94.9192519  63.3335631 124.4235937
  94.7717482  62.4052339 124.6043507  95.7446013  63.3555722 123.9393012
  88.7854763  51.9853699 120.2816429  89.1250836  52.5139620 119.5595037
  89.2326884  52.3234105 121.0574996  98.5226641  64.1564190 125.5100810
  99.4473189  63.9507051 125.3725261  98.3541944  63.9080591 126.4190151
  91.4798204  50.3690749 129.7319497  91.1395025  49.5698562 130.1340177
  90.7737211  50.6692460 129.1596330  92.1314676  47.4540062 128.1846820
  92.9540745  46.9800540 128.0625711  92.3752740  48.2330545 128.6845506
  90.7722911  50.4828320 118.4809722  91.4931273  50.8609573 117.9773439
  90.1488215  51.2017197 118.5844700  94.9154034  51.1873469 119.4168054
  95.1317648  52.0698107 119.1156882  94.4348101  50.7959682 118.6873696
  89.6553255  54.1459182 125.9938799  89.5097836  54.4599485 126.8863080
  89.1778459  54.7644083 125.4409697  91.5149638  51.1361730 126.0419688
  91.5011207  50.2402824 125.7051986  92.2322066  51.1432394 126.6757974
  93.3675768  51.5699070 128.0872816  93.1093546  52.4916141 128.0857146
  92.8360809  51.1729505 128.7773280  98.3121957  64.6749858 120.8662901
  98.4858835  64.1096280 120.1136754  98.8050848  65.4750752 120.6842391
  84.1298917  56.6864527 128.9326460  83.5852385  57.4624335 129.0646734
  85.0078267  57.0335331 128.7745581  90.9186534  50.0176111 121.3107258
  91.0402445  49.0892757 121.5098146  90.6288576  50.0314797 120.3985574
  93.7877724  47.7031021 124.4473978  93.8099421  47.7670354 123.4925958
  94.2045783  46.8635530 124.6414485 104.1661348  57.4386281 122.4853201
 104.6092494  56.6893606 122.0872324 103.2887859  57.4296417 122.1026933
  99.2997130  63.9916622 117.9659799  99.9948034  64.6123315 118.1847114
  99.6420280  63.1411973 118.2412177  84.9164939  55.8134423 131.8256617
  84.1746675  55.9617058 132.4121247  84.5957683  56.0742689 130.9623366
 101.1988553  61.4416328 119.4947130 101.7239877  61.7803600 118.7696450
 101.1110905  60.5063343 119.3110265  92.8608602  65.3550401 131.6237007
  93.1695728  65.1099548 132.4959706  93.6584084  65.5597040 131.1355877
  92.8829214  67.5088311 123.8542383  92.4434204  67.0164690 124.5475240
  93.6337331  66.9661278 123.6134459  85.3621553  63.6999852 123.8567011
  86.1879573  63.4003624 123.4765655  85.0115605  62.9307474 124.3056800
  90.3303086  63.0526320 125.9264685  89.7083095  62.3897025 125.6266913
  91.0007953  63.0787452 125.2438333  83.5630158  61.6186178 124.8155945
  82.7262066  61.1908352 124.6339946  83.5353803  61.8118621 125.7526736
  90.4027613  51.5308108 135.5197191  90.4515769  52.4070231 135.1374961
  90.9450127  50.9885501 134.9468834 100.8882459  62.0749231 134.7998328
 100.0978003  62.0573370 134.2602828 100.6515814  62.6137525 135.5547365
 101.0080334  58.9241698 132.1131057 101.0578339  58.7591705 133.0546580
 100.8994257  58.0568957 131.7228937  89.8916593  61.6030243 119.4023146
  90.0404713  62.2865708 118.7489818  90.6983036  61.5835333 119.9172601
  98.2984096  54.9072626 133.4290363  99.1993959  54.7679090 133.1374361
  98.3732071  55.0727080 134.3688541  92.6326902  52.2839480 132.2743550
  91.7630211  52.5773046 132.0026138  92.8686382  52.8679925 132.9950813
 102.5098531  61.3438639 132.3573078 102.2183339  61.7068620 133.1936539
 101.8970662  60.6305647 132.1786410 103.7094213  58.9091519 124.8775648
 104.5441105  59.3481323 125.0413209 103.8453342  58.4330172 124.0583894
 100.7585719  56.4671254 130.8253136 101.2339841  56.6598900 130.0171988
  99.8351284  56.5230440 130.5796520  87.6469226  57.6295421 120.4084215
  87.4015268  56.7257751 120.6064425  87.8165140  57.6312571 119.4663693
  95.3365936  48.5019097 129.7908970  95.8547879  49.2380124 129.4655459
  94.9821068  48.8083091 130.6255729  86.9164873  53.3623778 117.9070376
  86.2234118  53.4368133 117.2510412  86.6716625  52.5984122 118.4291893
  95.5878530  44.9219380 125.3109867  95.8680283  44.2542569 125.9370293
  96.3729137  45.1148475 124.7984531  93.3911998  64.0978374 116.8734893
  92.8185965  64.7168561 116.4205365  93.9644792  64.6477735 117.4074815
  99.4587388  53.3437014 129.0581442 100.4104811  53.4435111 129.0793666
  99.2890838  52.5515282 129.5679526  97.4801768  50.4292597 129.2440843
  96.8851700  50.7097610 128.5487331  97.1951464  50.9186498 130.0157584
  96.6109258  64.3815524 118.0043475  97.5439931  64.3161086 118.2076351
  96.5232471  65.2171791 117.5458008  99.2397275  63.6981394 114.9647423
  99.1610906  63.3641258 115.8583181 100.0606941  64.1903162 114.9638895
 101.9375466  56.5643133 128.1723741 101.9051786  55.6259134 128.3583425
 102.5476089  56.6427170 127.4389566  93.7758797  55.4339186 114.2150946
  94.7217901  55.3045395 114.2839364  93.3973042  54.6953848 114.6920374
 102.0869954  53.3554177 128.2182025 101.5709003  52.5712634 128.0311954
 102.9709903  53.0272894 128.3828544  99.7480681  47.0995192 124.1777837
  99.5505502  46.7910281 125.0621169 100.3580387  47.8256831 124.3075767
 107.7552016  57.6259140 127.3129778 108.4855404  57.3644428 127.8737482
 107.1458961  56.8887862 127.3531846 105.8367313  55.7667003 127.9104229
 105.1100476  55.6322968 127.3020721 105.4214600  56.0743832 128.7160948
  93.6597489  59.4856933 135.6751603  94.5800499  59.6635532 135.8691649
  93.6247072  58.5412978 135.5231302  91.9601714  53.3589163 114.1505831
  91.0533169  53.0622276 114.2268544  92.2377695  53.0618981 113.2840117
  82.8779654  54.6795526 124.6004877  82.5582439  53.8260834 124.3079251
  82.3313082  54.8944104 125.3562844  86.6559562  57.3957967 128.3174384
  86.8745572  58.3275075 128.3362417  87.0685336  57.0365942 129.1029188
  93.5763780  47.9026053 120.3050072  92.7664508  47.5573138 120.6805318
  94.2648197  47.5933596 120.8937684  95.5054328  46.9804099 121.9274369
  96.0585366  47.3999553 122.5864392  95.7424414  46.0539847 121.9697325
  91.5287427  52.9691173 137.7077133  91.4284154  53.9185530 137.6389224
  91.3108969  52.6409412 136.8353203  90.7300498  50.2176098 114.2917810
  91.5919662  50.5430996 114.5513627  90.9150843  49.4307594 113.7790876
  82.7467914  58.2998438 126.5697999  82.0531386  57.8852391 126.0567953
  83.4940905  58.3418974 125.9731418  98.8833135  49.0904625 121.4353033
  98.3031804  49.7489429 121.0531085  98.6169068  48.2681969 121.0240450
  97.3336701  48.4909682 123.6374353  97.8336480  48.6026217 122.8288672
  97.9772309  48.1870735 124.2775162  91.3918697  56.3988312 136.5242194
  90.9085779  57.1988672 136.7306083  91.4779636  56.4096257 135.5709638
  84.6604657  58.2316692 124.4464014  84.6375345  58.3304379 123.4945897
  84.9705293  59.0781842 124.7681180  87.3192035  60.2892847 128.5610628
  88.2735288  60.2576789 128.4940560  87.1204558  59.8283470 129.3760854
  87.9091417  58.8593963 131.1281426  88.7284306  59.3538041 131.1516263
  88.1828224  57.9425931 131.0998993  97.6658013  51.2504715 120.4909381
  96.7783868  51.5354366 120.2729576  98.0812002  51.0898478 119.6436658
 101.0172549  51.2751236 124.2063720 101.7932939  51.7647688 124.4788337
 100.2920683  51.7009290 124.6635590 103.4545108  51.9878855 125.2637661
 104.0489599  51.7474591 124.5530969 103.5271691  51.2685986 125.8911197
  85.6742263  65.8312466 125.5780826  85.5396731  65.0712867 125.0118824
  85.2574326  66.5553366 125.1109615  96.8101226  61.0149390 114.5857401
  97.5137077  61.2199392 115.2015057  96.0863875  61.5826151 114.8506485
  97.6399037  56.7659251 120.7059671  97.5834238  57.2227802 119.8667304
  98.1927379  56.0049935 120.5282514 101.4503843  52.5548983 121.5309791
 101.1940777  52.1545618 122.3617999 100.8256711  53.2692777 121.4059930
 105.7616180  55.2945056 124.0381082 105.2015738  55.3638245 124.8112644
 105.1559684  55.1186041 123.3180579  88.8311389  66.7281783 125.7899269
  88.7143773  67.6727216 125.6877959  88.0103836  66.4255345 126.1785068
  98.7187924  61.4531919 116.6355861  99.5533528  61.0213117 116.4533336
  98.5572267  61.2813932 117.5632756  98.3733816  57.9564032 118.0012201
  98.3182620  57.7908304 117.0600645  97.7479871  58.6640065 118.1574390
  83.1626331  53.1932096 131.8273623  83.8085195  52.6831050 132.3160848
  82.9543482  53.9300778 132.4017048  95.6879723  60.2612944 137.3265763
  96.5570883  60.4353596 136.9652398  95.2086475  61.0807361 137.2041493
  91.6829941  47.4572141 117.5797519  91.6708611  48.4013981 117.7365790
  92.5753363  47.2742286 117.2856980  89.8565903  67.3810045 129.0055197
  90.7593150  67.4133655 129.3221692  89.6303273  66.4510496 129.0201533
  91.6119505  66.1341031 125.6665276  90.6615136  66.1342893 125.5529648
  91.9151992  65.3873766 125.1501310  95.4982061  44.0514918 121.8343456
  94.7314457  43.4973404 121.9800138  95.9092766  44.1236786 122.6957607
  87.5023822  50.3399714 135.9248637  88.3655284  49.9836518 136.1351962
  86.9289233  50.0013608 136.6124041 107.3472199  71.9701570 126.7311038
 107.9850609  71.8508317 126.0274378 107.2293042  72.9182414 126.7898990
 104.1561905  71.9228998 126.6672563 103.8180417  71.8070063 125.7793098
 105.0251673  71.5220163 126.6473569 100.0148721  73.7764474 122.6569454
  99.4513586  73.6854411 121.8885741  99.9001116  72.9564379 123.1371946
 104.6381688  73.0763850 132.6258768 104.6270329  72.6816648 131.7539272
 104.8002328  72.3429922 133.2192540  97.5613153  75.2715666 125.4953674
  98.3534445  74.9306491 125.0799973  97.8009803  75.3810641 126.4155827
 105.5948280  77.4435442 117.9683919 104.9436259  78.0289523 117.5817932
 106.3892642  77.9741637 118.0278956  99.5203907  74.5324579 118.3671053
 100.2934783  73.9853566 118.2283929  99.8729306  75.3968829 118.5785514
 101.3588949  75.8600962 131.5737952 101.0678815  76.7646592 131.4584619
 101.9945934  75.9017489 132.2882022 102.2845156  73.2377810 128.1639312
 102.8808728  73.0133832 127.4496275 102.3420128  72.4962556 128.7664760
 101.8570185  70.6917245 115.9989503 102.1095705  70.1698767 115.2372966
 100.9194744  70.5283391 116.1016186 106.9013467  69.6953024 123.8064246
 107.6876557  69.2772447 123.4554663 107.1652172  70.5999116 123.9745894
 107.0723545  75.1325874 118.5052903 106.4369378  75.2060501 119.2173808
 106.7420951  75.7219473 117.8271982 112.3021895  69.6328257 124.7097225
 113.0347066  69.0627474 124.9435054 111.5461250  69.2449857 125.1503730
 101.5766473  72.5945351 118.2013878 101.4602731  71.9190255 118.8694962
 101.6868733  72.1077725 117.3846031 103.9198014  72.0555498 121.9060567
 103.5556222  71.5286119 122.6173488 104.7765130  71.6653967 121.7327052
 109.8247315  63.3449831 129.1691833 109.4930640  64.2145242 128.9453048
 109.2292928  63.0286115 129.8485864 103.5603501  67.0845398 116.9021916
 103.7277904  67.9525635 117.2692387 103.3700670  67.2472680 115.9783205
 106.3178834  75.5462377 128.5687746 106.0179558  76.4487416 128.4603553
 105.9729894  75.2794560 129.4208899  99.7691316  71.9976174 124.6024450
  98.8441812  71.8652388 124.8102142 100.0175729  72.7770393 125.0994393
 109.7175978  68.0644917 126.2485183 108.8092856  67.9960326 125.9543944
 109.6663574  68.5416862 127.0767009 103.5392722  69.5403056 117.8868582
 103.4192347  69.9860106 118.7254063 102.8445311  69.8888373 117.3282120
  97.1300127  71.6409447 125.4368239  97.2592508  71.8943926 126.3507651
  96.4497578  72.2337155 125.1172894 101.2999614  82.3106697 121.5358714
 101.2223644  83.2614522 121.6147194 100.6961258  81.9652570 122.1933640
 103.7916844  69.4834563 134.1920080 103.0150178  70.0428483 134.1822945
 104.4307407  69.9691346 134.7134951 111.5837625  66.2661356 128.0263057
 110.9412005  66.5593889 127.3802852 111.0792553  66.1514276 128.8316254
 109.2377788  70.0124529 118.7148916 110.1495644  70.2451916 118.5396614
 108.7287435  70.5961573 118.1523995 102.0463216  72.2920016 133.7538047
 102.7877901  72.8305060 133.4772871 101.3400202  72.9186305 133.9109599
 107.5218556  74.4349157 132.3510209 107.9301912  73.9931567 131.6064841
 106.7995817  73.8601784 132.6044402 103.8749626  69.3721763 129.7243766
 104.7210821  69.7961177 129.8678415 103.8148264  68.7155388 130.4182329
 107.8447371  74.9950347 126.1062498 107.2156233  75.1596061 125.4038566
 107.4573033  75.4091957 126.8773462 111.7236602  75.9304785 123.4606862
 111.0387641  76.3103686 122.9103895 111.8080452  76.5400112 124.1938809
 107.0249071  67.0326132 131.3824940 106.7810003  67.7868192 130.8459215
 107.3009002  67.4111479 132.2172187 108.9787534  73.5764744 130.0602205
 109.1904429  74.2196504 129.3836586 108.9317282  72.7427061 129.5924135
 106.5813763  66.1882565 126.9638777 105.7198242  66.4863818 127.2555515
 106.6076198  66.4052964 126.0319810 103.3975332  74.7324755 123.3712583
 103.8613678  75.0112458 122.5817205 103.1332131  73.8308200 123.1885674
 100.2899414  74.2796237 126.3092346 100.8600771  74.7083505 125.6709831
 100.8807525  73.9978822 127.0076532 102.3344219  70.8547908 120.1802148
 103.0368262  71.3068951 120.6476074 102.0024847  70.2131727 120.8082041
 100.7824580  69.4459664 134.5553357 100.1523241  70.1275945 134.7888754
 100.6760668  69.3342746 133.6106496  96.0769552  69.1131460 125.4819282
  95.2868606  69.3688989 125.0059392  96.5680800  69.9279798 125.5871322
 110.0933362  76.4536700 128.2324562 110.9150806  76.0516887 127.9507244
 110.0895765  76.3504934 129.1840678  98.0284298  69.4776040 122.4402758
  97.2315461  69.5894734 122.9586254  97.8009890  69.8162692 121.5743649
 103.8589965  76.0020743 130.3885273 103.9234398  76.4641150 131.2243445
 103.1500889  75.3718108 130.5167583  94.3607255  69.3661951 127.9134272
  94.6115294  70.2508961 128.1791848  94.8966804  69.1866552 127.1409364
 118.1839355  72.7975448 124.5809534 117.4303063  72.2282846 124.4253538
 118.3186896  72.7638113 125.5280169 103.5737983  77.6688850 120.2564253
 103.4383658  78.5140386 120.6849101 104.1147796  77.8708128 119.4930187
 100.0605323  63.7480430 136.9178609  99.6672268  63.1946629 137.5926253
 100.8771463  64.0591009 137.3085126  97.0267381  75.1864288 120.8292178
  97.5391901  75.9807539 120.9797743  97.6790093  74.4890579 120.7625780
  98.8362265  78.3030045 122.9114932  99.0128894  79.2248009 122.7235915
  99.6319099  77.9888464 123.3409311 102.9773284  65.1638309 134.5098865
 103.7182997  65.7645462 134.4303328 103.2091207  64.4215947 133.9516908
  98.1214622  70.3494677 132.7877095  98.0068137  69.4479934 133.0884194
  97.2659140  70.5958373 132.4361911 105.2006460  78.2912417 134.3864595
 104.7570314  77.5048795 134.0685500 105.8623673  78.4791567 133.7208486
  99.9593581  79.8208218 128.9125274 100.5101006  79.6925282 128.1402268
  99.1205057  80.1203107 128.5620167 107.2987698  78.5715217 132.4145997
 107.2806173  79.3924098 131.9226266 108.2207618  78.4469292 132.6396138
 103.7560752  76.0859346 133.2569505 104.2889089  75.3247634 133.0268813
 103.2274833  75.7932998 133.9993660 106.9230447  61.1919412 128.7863147
 106.5794716  62.0821054 128.7102257 107.2909409  61.0021070 127.9232732
  94.9916297  73.5152943 121.6051749  95.8291519  73.9249951 121.3885457
  95.1694565  72.5752385 121.5751943 106.8880729  71.1828023 117.2935582
 106.3727353  71.9532628 117.5323969 106.6158038  70.5093159 117.9168643
 104.4727840  66.0277724 122.3520820 103.6169437  65.6384574 122.1726459
 104.8854792  66.1069685 121.4920606 106.0026987  63.5624067 126.7512380
 105.4991783  63.5254203 125.9380185 106.2957594  64.4716810 126.8109037
 102.2469873  63.6462797 125.7578562 103.1122870  63.4505606 125.3984451
 102.3147382  63.4173149 126.6847919 111.8615004  73.9360378 119.2288755
 111.0844446  73.5971537 118.7843917 112.5406485  73.9413001 118.5543720
 106.6767033  69.0555115 119.1195363 106.3717168  69.3701265 119.9705506
 107.6297475  69.1336535 119.1622696 105.1213464  75.2145339 120.7688317
 104.5934826  74.4798098 120.4561555 104.6200967  75.9920015 120.5228285
 110.1006310  73.4094359 125.8855363 109.4429985  74.0993621 125.9735492
 110.9046710  73.7990791 126.2289350  99.8532192  65.8765005 123.1294929
 100.4275944  65.6540187 122.3968122 100.4403175  65.9453700 123.8823530
 108.9111769  71.7638732 123.9359305 109.4243651  72.3968724 124.4381015
 109.5612993  71.1639927 123.5702665 100.1801779  67.9069466 117.1490814
  99.3439091  68.2444153 117.4700089 100.0406549  67.7718446 116.2117951
 102.1554860  62.7506254 121.8569998 101.5019272  62.4355271 121.2326613
 102.1135334  62.1281994 122.5829821 103.2666065  73.0325549 113.7723290
 102.3593126  72.8014802 113.9714439 103.7637097  72.2363168 113.9597272
 106.1734144  81.7423056 116.6919976 105.4995842  82.0454753 117.3004934
 106.5599965  82.5452137 116.3425433 105.3892600  69.2388187 126.1817646
 104.4715162  69.4603134 126.0239334 105.8052744  69.3134498 125.3229353
 106.1727648  70.6379603 121.3120326 106.9199467  71.1501000 121.0027448
 106.4419237  70.3163656 122.1724719 104.4454298  73.1338144 118.2947280
 103.5365517  72.8497177 118.3919750 104.4749382  73.5537222 117.4350587
 109.6773565  76.7444733 122.0638448 109.2235893  75.9035643 122.1203638
 109.0467532  77.3806132 122.4013228 108.6206485  67.6736719 123.2939115
 107.8829242  67.1614106 123.6249358 108.8733259  67.2337101 122.4822392
 108.1206505  78.5821230 122.9988266 108.4129479  79.1426287 122.2800632
 108.6305125  78.8749791 123.7541425 108.7218112  60.4512971 123.8880884
 109.0276989  59.5910335 123.6006800 109.4470717  61.0430592 123.6879878
  95.0142468  70.8543658 122.2762482  94.8166868  70.2613019 121.5513549
  94.4589132  70.5495868 122.9938421 102.9939192  70.7466764 124.3957076
 103.0487802  69.7940601 124.3199552 102.1830394  70.9026204 124.8798374
 104.1430386  74.6746888 115.6335359 103.7049816  73.9582746 115.1740996
 104.8840827  74.9023002 115.0720450 100.9331552  69.3643824 122.1547454
 100.1199418  69.6637995 122.5612647 101.4290546  68.9699513 122.8721937
 103.0840130  79.3601581 124.0881719 103.0416309  79.5862427 123.1590251
 104.0002829  79.1264956 124.2367520 106.5305764  69.8285649 130.9862348
 106.8855151  70.0557122 131.8456814 107.1777895  70.1604025 130.3639604
 112.2603501  72.9504085 121.6911677 112.1221399  73.1405681 120.7632867
 111.9039719  73.7123467 122.1479728 100.4245627  66.9362180 127.7708689
 101.0645006  66.7950939 127.0731653  99.5923157  66.6496693 127.3947291
 112.2872880  75.0180612 126.7022949 112.7209387  74.9255901 127.5506003
 113.0004461  74.9938112 126.0642965 101.2005931  76.2364610 123.8843682
 101.9946529  75.7414930 123.6826257 100.4897623  75.7082473 123.5211387
 106.0200775  78.6182706 128.2356049 106.0737797  79.1873642 129.0033765
 105.1515557  78.7884591 127.8710087  97.5088694  70.3807692 119.9603434
  96.5786282  70.3192147 120.1773397  97.6046166  69.8583645 119.1640076
  97.4274243  66.9062505 122.5481676  97.6881061  67.8207838 122.4390837
  98.2491416  66.4386947 122.6978289  98.8999169  68.3200262 129.7180501
  99.5722222  68.1117624 129.0693150  98.0728955  68.1222348 129.2785733
 113.1488430  75.0604312 129.2355834 113.3424320  75.9650123 129.4815109
 113.0489048  74.6011731 130.0694419 104.8024741  64.9462203 131.7346162
 104.1552656  65.6452152 131.6410638 105.5725756  65.3798347 132.1022410
 108.2103539  75.2111055 134.8096715 108.0589045  74.9821607 133.8926799
 108.2008218  76.1681656 134.8228060 104.9788875  72.7842968 129.7942981
 105.9080935  72.9354127 129.6211949 104.5579905  72.8726989 128.9391628
 103.7777207  76.8093632 127.5641519 103.6388292  76.4412417 128.4367457
 102.9891803  77.3241272 127.3925477 104.3725359  81.9102729 118.9067055
 104.5477114  81.4390772 119.7212678 103.6858147  82.5368495 119.1348316
 105.3282422  76.1875235 124.9530357 104.9932254  76.1476005 125.8488007
 104.8286368  75.5219951 124.4800767  99.3026666  71.5942865 130.4782938
  99.1646464  70.8623104 131.0794477 100.2131589  71.5051765 130.1967126
 108.2641613  73.5331269 115.2267416 107.6470784  72.8078097 115.1300469
 107.7958102  74.2940629 114.8834491 101.9308966  71.3062824 129.9666618
 102.6408585  70.6656016 129.9253236 101.8878275  71.5575719 130.8892798
 109.9195745  78.2430178 132.8873197 109.8608291  77.5589398 132.2203780
 110.3215264  78.9849168 132.4353823 100.6437900  68.2928042 131.7862257
 100.1075257  67.8418781 132.4383853 100.0554609  68.4273951 131.0432721
  98.9386444  85.0592091 125.6806916  99.1783042  85.6910616 126.3585934
  98.0955640  84.7080131 125.9672275 100.0540159  67.7516693 114.3488721
  99.1769626  67.6305494 113.9850967 100.5297912  66.9602772 114.0967609
 109.9213152  76.2069761 131.1187176 109.0339931  75.8695683 131.2413575
 110.4911703  75.4752793 131.3555942  91.5742300  72.5393853 124.4430228
  92.2613339  72.2255583 123.8551243  91.4190428  73.4435218 124.1697479
  96.3777022  67.4284050 128.8715251  96.2935210  66.8209719 128.1365661
  95.5559728  67.9193068 128.8724748 103.4514306  80.8671214 128.0848420
 103.3784477  81.6726185 128.5967724 103.0091699  81.0663180 127.2596441
 103.2404085  80.1042984 121.5951241 102.4571607  80.6464664 121.6889466
 103.9396831  80.6216963 121.9945482 106.5500736  65.9137613 124.2385447
 107.0469435  65.1607576 123.9186517 105.7787717  65.9501930 123.6728656
 114.4030493  71.6177979 125.8803738 114.3920369  72.5002694 125.5097671
 113.5347872  71.2649530 125.6858275 105.9112989  80.7658048 130.2406578
 106.6240962  81.4005513 130.1682480 105.4203018  80.8621914 129.4246580
 107.6330516  74.6709301 121.8123870 106.6986795  74.7910763 121.6428574
 107.8107185  73.7681767 121.5483880 103.1335704  68.0554996 123.9657131
 102.7633492  67.5026037 124.6538037 103.6294797  67.4513130 123.4132131
 111.0203068  70.5126620 122.3473904 111.4863520  71.3454611 122.2734207
 111.4710568  70.0471601 123.0519163 100.9624903  78.5152491 131.0612149
 101.6634362  79.1488974 131.2141543 100.4920018  78.8567223 130.3007788
 109.0879299  76.8570441 119.3460056 109.3639143  76.7427036 120.2553930
 108.2183797  76.4587926 119.3072229 108.9919730  62.8807207 126.3864805
 108.0782810  63.1111434 126.5547012 109.4212832  62.9645651 127.2378838
 108.7626189  71.0697099 128.8864699 108.1097639  71.3173006 128.2317152
 109.1406569  70.2561237 128.5527177 105.7233363  81.1056792 122.9892870
 105.9055757  80.2878448 123.4520622 106.5466349  81.3224484 122.5517760
 106.0575528  80.0324977 120.2507918 106.5863295  79.5217432 119.6378080
 106.3203748  79.7167507 121.1153451 104.8113762  71.8116910 135.3730737
 104.1354399  71.7111039 136.0433112 105.6341396  71.6556124 135.8366734
  96.5592621  78.0488846 127.9943252  97.1446058  77.3032534 128.1271156
  96.3617459  78.3592803 128.8779916  99.4131276  81.0840094 123.0105694
  98.7441651  81.5686221 122.5269734  99.2744146  81.3309314 123.9249073
  91.1510276  70.6194447 126.7147695  91.1894375  70.0858037 127.5084813
  90.6450568  70.0929652 126.0958672 103.5536545  83.1183837 129.6088352
 104.1054853  83.2815459 130.3737438 103.8942738  83.7088275 128.9368377
  98.5301038  65.4658987 130.2110237  98.5942364  66.3273818 129.7987635
  98.4668158  64.8532989 129.4782596  98.0053310  67.5382120 133.8583271
  98.6325349  67.1559197 134.4720796  97.1481229  67.3196322 134.2238964
 108.4047419  77.9445095 135.4637007 108.9487323  78.5575053 134.9691962
 107.8234264  78.5024673 135.9804020  94.7818853  69.3458549 119.7901626
  95.0772294  68.4369227 119.7368680  93.8806889  69.3246288 119.4682629
 106.6904932  81.0665813 126.5952035 106.5656071  80.2655553 126.0862980
 107.3484023  81.5612006 126.1066005  98.3113100  67.4214545 125.7729175
  97.5899686  68.0350513 125.6336648  99.1006356  67.9572310 125.6945821
 108.7539840  78.8674833 128.2231585 107.8070176  78.7480184 128.1509911
 109.1022614  77.9797331 128.3057846 101.1139414  64.7568972 132.0469827
 101.6373816  65.0031268 132.8096136 100.8951747  65.5889007 131.6272964
  96.5106695  67.0272646 119.9140951  96.1819401  66.1470025 119.7316057
  96.8646066  66.9720315 120.8017341 105.7586274  78.6627549 124.4235937
 105.6111236  77.7344257 124.6043507 106.5839767  78.6847640 123.9393012
  99.6248518  67.3145616 120.2816429  99.9644590  67.8431537 119.5595037
 100.0720638  67.6526022 121.0574996 109.3620396  79.4856108 125.5100810
 110.2866943  79.2798969 125.3725261 109.1935699  79.2372509 126.4190151
 102.3191959  65.6982667 129.7319497 101.9788779  64.8990480 130.1340177
 101.6130965  65.9984378 129.1596330 102.9708431  62.7831979 128.1846820
 103.7934500  62.3092458 128.0625711 103.2146494  63.5622463 128.6845506
 101.6116665  65.8120238 118.4809722 102.3325028  66.1901491 117.9773439
 100.9881969  66.5309115 118.5844700 105.7547788  66.5165387 119.4168054
 105.9711402  67.3990025 119.1156882 105.2741855  66.1251600 118.6873696
 100.4947009  69.4751100 125.9938799 100.3491590  69.7891403 126.8863080
 100.0172213  70.0936000 125.4409697 102.3543392  66.4653648 126.0419688
 102.3404961  65.5694741 125.7051986 103.0715820  66.4724312 126.6757974
 104.2069523  66.8990988 128.0872816 103.9487301  67.8208059 128.0857146
 103.6754563  66.5021423 128.7773280 109.1515712  80.0041775 120.8662901
 109.3252589  79.4388198 120.1136754 109.6444603  80.8042670 120.6842391
  94.9692672  72.0156444 128.9326460  94.4246140  72.7916252 129.0646734
  95.8472021  72.3627249 128.7745581 101.7580288  65.3468028 121.3107258
 101.8796199  64.4184674 121.5098146 101.4682331  65.3606714 120.3985574
 104.6271479  63.0322939 124.4473978 104.6493175  63.0962272 123.4925958
 105.0439538  62.1927447 124.6414485 115.0055103  72.7678198 122.4853201
 115.4486249  72.0185523 122.0872324 114.1281613  72.7588335 122.1026933
 110.1390884  79.3208540 117.9659799 110.8341789  79.9415232 118.1847114
 110.4814034  78.4703891 118.2412177  95.7558693  71.1426341 131.8256617
  95.0140429  71.2908976 132.4121247  95.4351438  71.4034606 130.9623366
 112.0382307  76.7708245 119.4947130 112.5633631  77.1095518 118.7696450
 111.9504660  75.8355261 119.3110265 103.7002356  80.6842319 131.6237007
 104.0089483  80.4391466 132.4959706 104.4977838  80.8888957 131.1355877
 103.7222968  82.8380228 123.8542383 103.2827958  82.3456607 124.5475240
 104.4731085  82.2953196 123.6134459  96.2015307  79.0291769 123.8567011
  97.0273327  78.7295541 123.4765655  95.8509359  78.2599392 124.3056800
 101.1696840  78.3818238 125.9264685 100.5476850  77.7188943 125.6266913
 101.8401707  78.4079369 125.2438333  94.4023912  76.9478096 124.8155945
  93.5655820  76.5200270 124.6339946  94.3747558  77.1410539 125.7526736
 101.2421368  66.8600026 135.5197191 101.2909523  67.7362148 135.1374961
 101.7843882  66.3177419 134.9468834 111.7276213  77.4041149 134.7998328
 110.9371757  77.3865288 134.2602828 111.4909568  77.9429443 135.5547365
 111.8474088  74.2533615 132.1131057 111.8972093  74.0883623 133.0546580
 111.7388012  73.3860874 131.7228937 100.7310347  76.9322161 119.4023146
 100.8798468  77.6157625 118.7489818 101.5376791  76.9127251 119.9172601
 109.1377851  70.2364543 133.4290363 110.0387714  70.0971008 133.1374361
 109.2125825  70.4018998 134.3688541 103.4720656  67.6131398 132.2743550
 102.6023966  67.9064964 132.0026138 103.7080137  68.1971843 132.9950813
 113.3492285  76.6730557 132.3573078 113.0577094  77.0360537 133.1936539
 112.7364417  75.9597565 132.1786410 114.5487968  74.2383437 124.8775648
 115.3834859  74.6773241 125.0413209 114.6847096  73.7622090 124.0583894
 111.5979474  71.7963171 130.8253136 112.0733595  71.9890818 130.0171988
 110.6745039  71.8522357 130.5796520  98.4862980  72.9587339 120.4084215
  98.2409022  72.0549669 120.6064425  98.6558895  72.9604489 119.4663693
 106.1759690  63.8311015 129.7908970 106.6941634  64.5672042 129.4655459
 105.8214823  64.1375008 130.6255729  97.7558628  68.6915696 117.9070376
  97.0627873  68.7660051 117.2510412  97.5110380  67.9276040 118.4291893
 106.4272284  60.2511297 125.3109867 106.7074038  59.5834487 125.9370293
 107.2122891  60.4440393 124.7984531 104.2305753  79.4270291 116.8734893
 103.6579720  80.0460479 116.4205365 104.8038546  79.9769653 117.4074815
 110.2981143  68.6728931 129.0581442 111.2498565  68.7727029 129.0793666
 110.1284593  67.8807200 129.5679526 108.3195522  65.7584515 129.2440843
 107.7245454  66.0389527 128.5487331 108.0345219  66.2478416 130.0157584
 107.4503012  79.7107442 118.0043475 108.3833686  79.6453003 118.2076351
 107.3626225  80.5463708 117.5458008 110.0791029  79.0273312 114.9647423
 110.0004661  78.6933175 115.8583181 110.9000696  79.5195080 114.9638895
 112.7769220  71.8935051 128.1723741 112.7445540  70.9551052 128.3583425
 113.3869844  71.9719088 127.4389566 104.6152551  70.7631104 114.2150946
 105.5611656  70.6337312 114.2839364 104.2366796  70.0245766 114.6920374
 112.9263709  68.6846095 128.2182025 112.4102757  67.9004551 128.0311954
 113.8103657  68.3564811 128.3828544 110.5874436  62.4287110 124.1777837
 110.3899257  62.1202198 125.0621169 111.1974141  63.1548749 124.3075767
 118.5945770  72.9551058 127.3129778 119.3249159  72.6936346 127.8737482
 117.9852716  72.2179780 127.3531846 116.6761067  71.0958921 127.9104229
 115.9494231  70.9614886 127.3020721 116.2608354  71.4035749 128.7160948
 104.4991244  74.8148850 135.6751603 105.4194253  74.9927449 135.8691649
 104.4640827  73.8704896 135.5231302 102.7995468  68.6881081 114.1505831
 101.8926924  68.3914193 114.2268544 103.0771449  68.3910899 113.2840117
  93.7173409  70.0087444 124.6004877  93.3976193  69.1552752 124.3079251
  93.1706837  70.2236022 125.3562844  97.4953316  72.7249885 128.3174384
  97.7139326  73.6566993 128.3362417  97.9079090  72.3657859 129.1029188
 104.4157534  63.2317970 120.3050072 103.6058262  62.8865055 120.6805318
 105.1041951  62.9225514 120.8937684 106.3448082  62.3096017 121.9274369
 106.8979121  62.7291470 122.5864392 106.5818169  61.3831765 121.9697325
 102.3681182  68.2983091 137.7077133 102.2677908  69.2477448 137.6389224
 102.1502724  67.9701330 136.8353203 101.5694253  65.5468016 114.2917810
 102.4313417  65.8722914 114.5513627 101.7544597  64.7599512 113.7790876
  93.5861669  73.6290355 126.5697999  92.8925140  73.2144308 126.0567953
  94.3334660  73.6710892 125.9731418 109.7226889  64.4196542 121.4353033
 109.1425558  65.0781346 121.0531085 109.4562822  63.5973887 121.0240450
 108.1730456  63.8201600 123.6374353 108.6730234  63.9318134 122.8288672
 108.8166064  63.5162653 124.2775162 102.2312452  71.7280230 136.5242194
 101.7479533  72.5280590 136.7306083 102.3173391  71.7388174 135.5709638
  95.4998411  73.5608609 124.4464014  95.4769099  73.6596296 123.4945897
  95.8099048  74.4073760 124.7681180  98.1585789  75.6184764 128.5610628
  99.1129043  75.5868707 128.4940560  97.9598313  75.1575388 129.3760854
  98.7485171  74.1885880 131.1281426  99.5678060  74.6829959 131.1516263
  99.0221979  73.2717848 131.0998993 108.5051767  66.5796633 120.4909381
 107.6177622  66.8646283 120.2729576 108.9205757  66.4190396 119.6436658
 111.8566304  66.6043154 124.2063720 112.6326694  67.0939606 124.4788337
 111.1314438  67.0301208 124.6635590 114.2938862  67.3170773 125.2637661
 114.8883353  67.0766509 124.5530969 114.3665446  66.5977903 125.8911197
  96.5136018  81.1604384 125.5780826  96.3790486  80.4004785 125.0118824
  96.0968080  81.8845284 125.1109615 107.6494981  76.3441307 114.5857401
 108.3530831  76.5491310 115.2015057 106.9257630  76.9118069 114.8506485
 108.4792791  72.0951169 120.7059671 108.4227993  72.5519720 119.8667304
 109.0321134  71.3341853 120.5282514 112.2897597  67.8840900 121.5309791
 112.0334531  67.4837536 122.3617999 111.6650465  68.5984694 121.4059930
 116.6009935  70.6236974 124.0381082 116.0409493  70.6930163 124.8112644
 115.9953438  70.4477958 123.3180579  99.6705144  82.0573701 125.7899269
  99.5537528  83.0019133 125.6877959  98.8497590  81.7547262 126.1785068
 109.5581678  76.7823836 116.6355861 110.3927282  76.3505035 116.4533336
 109.3966021  76.6105850 117.5632756 109.2127571  73.2855950 118.0012201
 109.1576374  73.1200221 117.0600645 108.5873626  73.9931983 118.1574390
  94.0020086  68.5224014 131.8273623  94.6478949  68.0122968 132.3160848
  93.7937237  69.2592696 132.4017048 106.5273478  75.5904862 137.3265763
 107.3964637  75.7645514 136.9652398 106.0480229  76.4099278 137.2041493
 102.5223696  62.7864059 117.5797519 102.5102366  63.7305899 117.7365790
 103.4147118  62.6034204 117.2856980 100.6959658  82.7101963 129.0055197
 101.5986905  82.7425573 129.3221692 100.4697028  81.7802414 129.0201533
 102.4513260  81.4632949 125.6665276 101.5008891  81.4634811 125.5529648
 102.7545746  80.7165684 125.1501310 106.3375815  59.3806835 121.8343456
 105.5708211  58.8265322 121.9800138 106.7486520  59.4528704 122.6957607
  98.3417576  65.6691631 135.9248637  99.2049038  65.3128436 136.1351962
  97.7682987  65.3305526 136.6124041 118.1865953  87.2993488 126.7311038
 118.8244363  87.1800235 126.0274378 118.0686796  88.2474332 126.7898990
 114.9955660  87.2520916 126.6672563 114.6574171  87.1361980 125.7793098
 115.8645428  86.8512081 126.6473569 110.8542475  89.1056392 122.6569454
 110.2907341  89.0146329 121.8885741 110.7394870  88.2856297 123.1371946
 108.4006907  90.6007584 125.4953674 109.1928199  90.2598408 125.0799973
 108.6403557  90.7102559 126.4155827 116.4342034  92.7727360 117.9683919
 115.7830014  93.3581440 117.5817932 117.2286397  93.3033555 118.0278956
 110.3597661  89.8616497 118.3671053 111.1328537  89.3145484 118.2283929
 110.7123060  90.7260746 118.5785514 113.1238911  88.5669728 128.1639312
 113.7202483  88.3425750 127.4496275 113.1813882  87.8254473 128.7664760
 112.6963939  86.0209163 115.9989503 112.9489460  85.4990684 115.2372966
 111.7588498  85.8575308 116.1016186 117.7407222  85.0244941 123.8064246
 118.5270311  84.6064365 123.4554663 118.0045926  85.9291034 123.9745894
 117.9117299  90.4617792 118.5052903 117.2763132  90.5352418 119.2173808
 117.5814706  91.0511391 117.8271982 123.1415649  84.9620175 124.7097225
 123.8740821  84.3919391 124.9435054 122.3855005  84.5741775 125.1503730
 112.4160228  87.9237269 118.2013878 112.2996486  87.2482172 118.8694962
 112.5262488  87.4369643 117.3846031 114.7591769  87.3847416 121.9060567
 114.3949976  86.8578037 122.6173488 115.6158885  86.9945885 121.7327052
 120.6641069  78.6741749 129.1691833 120.3324394  79.5437160 128.9453048
 120.0686683  78.3578033 129.8485864 114.3997256  82.4137316 116.9021916
 114.5671658  83.2817552 117.2692387 114.2094425  82.5764598 115.9783205
 117.1572589  90.8754295 128.5687746 116.8573312  91.7779334 128.4603553
 116.8123648  90.6086478 129.4208899 110.6085070  87.3268092 124.6024450
 109.6835567  87.1944306 124.8102142 110.8569484  88.1062311 125.0994393
 120.5569733  83.3936835 126.2485183 119.6486610  83.3252243 125.9543944
 120.5057329  83.8708780 127.0767009 114.3786477  84.8694973 117.8868582
 114.2586102  85.3152024 118.7254063 113.6839065  85.2180291 117.3282120
 107.9693881  86.9701365 125.4368239 108.0986263  87.2235844 126.3507651
 107.2891333  87.5629073 125.1172894 112.1393369  97.6398615 121.5358714
 112.0617398  98.5906440 121.6147194 111.5355012  97.2944488 122.1933640
 122.4231379  81.5953273 128.0263057 121.7805759  81.8885806 127.3802852
 121.9186308  81.4806194 128.8316254 120.0771543  85.3416446 118.7148916
 120.9889399  85.5743833 118.5396614 119.5681190  85.9253491 118.1523995
 112.8856971  87.6211934 133.7538047 113.6271655  88.1596978 133.4772871
 112.1793956  88.2478223 133.9109599 114.7143380  84.7013681 129.7243766
 115.5604576  85.1253095 129.8678415 114.6542018  84.0447305 130.4182329
 118.6841125  90.3242265 126.1062498 118.0549988  90.4887979 125.4038566
 118.2966787  90.7383874 126.8773462 122.5630357  91.2596703 123.4606862
 121.8781395  91.6395604 122.9103895 122.6474206  91.8692029 124.1938809
 117.8642826  82.3618049 131.3824940 117.6203758  83.1160110 130.8459215
 118.1402756  82.7403397 132.2172187 119.8181289  88.9056662 130.0602205
 120.0298184  89.5488422 129.3836586 119.7711037  88.0718978 129.5924135
 117.4207518  81.5174482 126.9638777 116.5591997  81.8155736 127.2555515
 117.4469952  81.7344881 126.0319810 114.2369087  90.0616673 123.3712583
 114.7007432  90.3404376 122.5817205 113.9725885  89.1600118 123.1885674
 111.1293168  89.6088155 126.3092346 111.6994525  90.0375423 125.6709831
 111.7201280  89.3270739 127.0076532 113.1737973  86.1839825 120.1802148
 113.8762016  86.6360869 120.6476074 112.8418602  85.5423644 120.8082041
 111.6218335  84.7751582 134.5553357 110.9916995  85.4567863 134.7888754
 111.5154422  84.6634664 133.6106496 106.9163307  84.4423378 125.4819282
 106.1262361  84.6980907 125.0059392 107.4074554  85.2571716 125.5871322
 108.8678052  84.8067957 122.4402758 108.0709216  84.9186652 122.9586254
 108.6403645  85.1454610 121.5743649 105.2001010  84.6953868 127.9134272
 105.4509048  85.5800878 128.1791848 105.7360558  84.5158470 127.1409364
 129.0233110  88.1267366 124.5809534 128.2696818  87.5574764 124.4253538
 129.1580651  88.0930030 125.5280169 114.4131738  92.9980768 120.2564253
 114.2777412  93.8432304 120.6849101 114.9541550  93.2000046 119.4930187
 110.8999077  79.0772348 136.9178609 110.5066023  78.5238546 137.5926253
 111.7165218  79.3882926 137.3085126 107.8661135  90.5156206 120.8292178
 108.3785656  91.3099456 120.9797743 108.5183848  89.8182496 120.7625780
 109.6756020  93.6321962 122.9114932 109.8522648  94.5539927 122.7235915
 110.4712853  93.3180382 123.3409311 113.8167038  80.4930227 134.5098865
 114.5576752  81.0937380 134.4303328 114.0484961  79.7507865 133.9516908
 108.9608376  85.6786594 132.7877095 108.8461891  84.7771851 133.0884194
 108.1052894  85.9250291 132.4361911 110.7987335  95.1500136 128.9125274
 111.3494760  95.0217199 128.1402268 109.9598811  95.4495025 128.5620167
 117.7624201  76.5211330 128.7863147 117.4188471  77.4112972 128.7102257
 118.1303164  76.3312988 127.9232732 105.8310052  88.8444860 121.6051749
 106.6685274  89.2541869 121.3885457 106.0088320  87.9044303 121.5751943
 117.7274484  86.5119941 117.2935582 117.2121107  87.2824546 117.5323969
 117.4551792  85.8385077 117.9168643 115.3121595  81.3569642 122.3520820
 114.4563191  80.9676492 122.1726459 115.7248547  81.4361603 121.4920606
 116.8420742  78.8915985 126.7512380 116.3385537  78.8546120 125.9380185
 117.1351348  79.8008728 126.8109037 113.0863627  78.9754715 125.7578562
 113.9516624  78.7797523 125.3984451 113.1541136  78.7465067 126.6847919
 122.7008758  89.2652296 119.2288755 121.9238201  88.9263455 118.7843917
 123.3800239  89.2704919 118.5543720 117.5160787  84.3847033 119.1195363
 117.2110923  84.6993182 119.9705506 118.4691229  84.4628453 119.1622696
 115.9607219  90.5437256 120.7688317 115.4328581  89.8090016 120.4561555
 115.4594722  91.3211933 120.5228285 120.9400065  88.7386277 125.8855363
 120.2823739  89.4285538 125.9735492 121.7440464  89.1282709 126.2289350
 110.6925947  81.2056923 123.1294929 111.2669698  80.9832104 122.3968122
 111.2796929  81.2745617 123.8823530 119.7505524  87.0930650 123.9359305
 120.2637406  87.7260641 124.4381015 120.4006748  86.4931845 123.5702665
 111.0195534  83.2361384 117.1490814 110.1832846  83.5736070 117.4700089
 110.8800303  83.1010364 116.2117951 112.9948614  78.0798172 121.8569998
 112.3413027  77.7647189 121.2326613 112.9529088  77.4573912 122.5829821
 114.1059819  88.3617467 113.7723290 113.1986881  88.1306720 113.9714439
 114.6030851  87.5655086 113.9597272 117.0127898  97.0714974 116.6919976
 116.3389597  97.3746671 117.3004934 117.3993720  97.8744054 116.3425433
 116.2286355  84.5680105 126.1817646 115.3108916  84.7895052 126.0239334
 116.6446498  84.6426416 125.3229353 117.0121402  85.9671521 121.3120326
 117.7593221  86.4792918 121.0027448 117.2812992  85.6455574 122.1724719
 115.2848053  88.4630062 118.2947280 114.3759272  88.1789094 118.3919750
 115.3143136  88.8829140 117.4350587 120.5167320  92.0736651 122.0638448
 120.0629647  91.2327561 122.1203638 119.8861287  92.7098049 122.4013228
 119.4600240  83.0028637 123.2939115 118.7222996  82.4906023 123.6249358
 119.7127013  82.5629019 122.4822392 118.9600259  93.9113148 122.9988266
 119.2523234  94.4718205 122.2800632 119.4698880  94.2041709 123.7541425
 119.5611867  75.7804889 123.8880884 119.8670744  74.9202253 123.6006800
 120.2864472  76.3722509 123.6879878 105.8536223  86.1835576 122.2762482
 105.6560623  85.5904936 121.5513549 105.2982887  85.8787786 122.9938421
 113.8332947  86.0758682 124.3957076 113.8881556  85.1232519 124.3199552
 113.0224149  86.2318121 124.8798374 114.9824140  90.0038805 115.6335359
 114.5443570  89.2874664 115.1740996 115.7234581  90.2314920 115.0720450
 111.7725307  84.6935742 122.1547454 110.9593172  84.9929912 122.5612647
 112.2684301  84.2991431 122.8721937 113.9233884  94.6893499 124.0881719
 113.8810063  94.9154345 123.1590251 114.8396583  94.4556873 124.2367520
 117.3699518  85.1577566 130.9862348 117.7248906  85.3849039 131.8456814
 118.0171649  85.4895943 130.3639604 123.0997255  88.2796002 121.6911677
 122.9615154  88.4697598 120.7632867 122.7433474  89.0415385 122.1479728
 111.2639381  82.2654097 127.7708689 111.9038761  82.1242857 127.0731653
 110.4316912  81.9788611 127.3947291 123.1266635  90.3472529 126.7022949
 123.5603141  90.2547818 127.5506003 123.8398215  90.3230030 126.0642965
 112.0399685  91.5656528 123.8843682 112.8340284  91.0706848 123.6826257
 111.3291378  91.0374391 123.5211387 108.3482449  85.7099610 119.9603434
 107.4180037  85.6484065 120.1773397 108.4439921  85.1875562 119.1640076
 108.2667998  82.2354422 122.5481676 108.5274815  83.1499756 122.4390837
 109.0885170  81.7678865 122.6978289 109.7392923  83.6492180 129.7180501
 110.4115976  83.4409542 129.0693150 108.9122710  83.4514266 129.2785733
 115.6418495  80.2754120 131.7346162 114.9946410  80.9744070 131.6410638
 116.4119510  80.7090264 132.1022410 115.8182629  88.1134885 129.7942981
 116.7474689  88.2646045 129.6211949 115.3973659  88.2018906 128.9391628
 114.6170961  92.1385550 127.5641519 114.4782047  91.7704334 128.4367457
 113.8285557  92.6533189 127.3925477 115.2119113  97.2394646 118.9067055
 115.3870869  96.7682689 119.7212678 114.5251901  97.8660412 119.1348316
 116.1676176  91.5167153 124.9530357 115.8326009  91.4767922 125.8488007
 115.6680122  90.8511868 124.4800767 110.1420420  86.9234783 130.4782938
 110.0040218  86.1915021 131.0794477 111.0525344  86.8343683 130.1967126
 119.1035368  88.8623187 115.2267416 118.4864539  88.1370015 115.1300469
 118.6351856  89.6232547 114.8834491 112.7702721  86.6354742 129.9666618
 113.4802339  85.9947934 129.9253236 112.7272029  86.8867637 130.8892798
 111.4831655  83.6219960 131.7862257 110.9469012  83.1710698 132.4383853
 110.8948363  83.7565869 131.0432721 109.7780198 100.3884009 125.6806916
 110.0176797 101.0202533 126.3585934 108.9349395 100.0372049 125.9672275
 110.8933914  83.0808611 114.3488721 110.0163380  82.9597412 113.9850967
 111.3691667  82.2894689 114.0967609 102.4136054  87.8685771 124.4430228
 103.1007094  87.5547501 123.8551243 102.2584183  88.7727136 124.1697479
 107.2170776  82.7575967 128.8715251 107.1328965  82.1501637 128.1365661
 106.3953483  83.2484986 128.8724748 114.0797840  95.4334902 121.5951241
 113.2965362  95.9756582 121.6889466 114.7790585  95.9508881 121.9945482
 117.3894490  81.2429531 124.2385447 117.8863190  80.4899493 123.9186517
 116.6181472  81.2793848 123.6728656 125.2424247  86.9469897 125.8803738
 125.2314124  87.8294612 125.5097671 124.3741627  86.5941447 125.6858275
 118.4724271  90.0001218 121.8123870 117.5380549  90.1202681 121.6428574
 118.6500939  89.0973685 121.5483880 113.9729459  83.3846914 123.9657131
 113.6027246  82.8317954 124.6538037 114.4688551  82.7805047 123.4132131
 121.8596822  85.8418537 122.3473904 122.3257274  86.6746529 122.2734207
 122.3104323  85.3763519 123.0519163 119.9273053  92.1862359 119.3460056
 120.2032897  92.0718953 120.2553930 119.0577552  91.7879844 119.3072229
 119.8313485  78.2099124 126.3864805 118.9176565  78.4403351 126.5547012
 120.2606586  78.2937569 127.2378838 119.6019943  86.3989016 128.8864699
 118.9491394  86.6464924 128.2317152 119.9800323  85.5853155 128.5527177
 116.5627117  96.4348710 122.9892870 116.7449512  95.6170366 123.4520622
 117.3860103  96.6516402 122.5517760 116.8969283  95.3616895 120.2507918
 117.4257049  94.8509349 119.6378080 117.1597502  95.0459425 121.1153451
 107.3986375  93.3780764 127.9943252 107.9839812  92.6324452 128.1271156
 107.2011214  93.6884721 128.8779916 110.2525031  96.4132011 123.0105694
 109.5835406  96.8978139 122.5269734 110.1137900  96.6601232 123.9249073
 101.9904030  85.9486364 126.7147695 102.0288130  85.4149955 127.5084813
 101.4844323  85.4221570 126.0958672 109.3694792  80.7950905 130.2110237
 109.4336119  81.6565736 129.7987635 109.3061913  80.1824906 129.4782596
 108.8447065  82.8674037 133.8583271 109.4719104  82.4851115 134.4720796
 107.9874984  82.6488239 134.2238964 105.6212608  84.6750466 119.7901626
 105.9166049  83.7661145 119.7368680 104.7200643  84.6538206 119.4682629
 117.5298686  96.3957730 126.5952035 117.4049826  95.5947470 126.0862980
 118.1877778  96.8903924 126.1066005 109.1506855  82.7506463 125.7729175
 108.4293440  83.3642431 125.6336648 109.9400110  83.2864228 125.6945821
 111.9533168  80.0860889 132.0469827 112.4767570  80.3323186 132.8096136
 111.7345502  80.9180924 131.6272964 107.3500449  82.3564564 119.9140951
 107.0213155  81.4761943 119.7316057 107.7039820  82.3012233 120.8017341
 116.5980028  93.9919467 124.4235937 116.4504991  93.0636174 124.6043507
 117.4233522  94.0139557 123.9393012 110.4642272  82.6437534 120.2816429
 110.8038345  83.1723455 119.5595037 110.9114393  82.9817940 121.0574996
 120.2014150  94.8148025 125.5100810 121.1260698  94.6090887 125.3725261
 120.0329453  94.5664427 126.4190151 113.1585713  81.0274585 129.7319497
 112.8182534  80.2282398 130.1340177 112.4524720  81.3276295 129.1596330
 113.8102185  78.1123897 128.1846820 114.6328254  77.6384375 128.0625711
 114.0540249  78.8914381 128.6845506 112.4510420  81.1412155 118.4809722
 113.1718782  81.5193408 117.9773439 111.8275724  81.8601032 118.5844700
 116.5941542  81.8457304 119.4168054 116.8105157  82.7281942 119.1156882
 116.1135610  81.4543518 118.6873696 111.3340764  84.8043018 125.9938799
 111.1885345  85.1183321 126.8863080 110.8565968  85.4227918 125.4409697
 113.1937147  81.7945566 126.0419688 113.1798716  80.8986659 125.7051986
 113.9109575  81.8016229 126.6757974 115.0463277  82.2282906 128.0872816
 114.7881055  83.1499976 128.0857146 114.5148318  81.8313340 128.7773280
 119.9909466  95.3333693 120.8662901 120.1646344  94.7680115 120.1136754
 120.4838357  96.1334588 120.6842391 105.8086426  87.3448362 128.9326460
 105.2639894  88.1208170 129.0646734 106.6865776  87.6919167 128.7745581
 112.5974043  80.6759946 121.3107258 112.7189954  79.7476592 121.5098146
 112.3076085  80.6898632 120.3985574 115.4665233  78.3614856 124.4473978
 115.4886930  78.4254189 123.4925958 115.8833292  77.5219365 124.6414485
 125.8448857  88.0970116 122.4853201 126.2880003  87.3477441 122.0872324
 124.9675368  88.0880252 122.1026933 120.9784639  94.6500457 117.9659799
 121.6735543  95.2707150 118.1847114 121.3207789  93.7995809 118.2412177
 106.5952448  86.4718258 131.8256617 105.8534184  86.6200894 132.4121247
 106.2745192  86.7326524 130.9623366 122.8776062  92.1000163 119.4947130
 123.4027386  92.4387436 118.7696450 122.7898414  91.1647178 119.3110265
 114.5616723  98.1672146 123.8542383 114.1221713  97.6748525 124.5475240
 115.3124840  97.6245114 123.6134459 107.0409062  94.3583687 123.8567011
 107.8667081  94.0587459 123.4765655 106.6903114  93.5891309 124.3056800
 112.0090595  93.7110155 125.9264685 111.3870604  93.0480860 125.6266913
 112.6795462  93.7371287 125.2438333 105.2417667  92.2770013 124.8155945
 104.4049575  91.8492188 124.6339946 105.2141312  92.4702457 125.7526736
 112.0815122  82.1891943 135.5197191 112.1303278  83.0654066 135.1374961
 112.6237636  81.6469336 134.9468834 111.5704102  92.2614079 119.4023146
 111.7192222  92.9449543 118.7489818 112.3770545  92.2419169 119.9172601
 114.3114411  82.9423316 132.2743550 113.4417720  83.2356882 132.0026138
 114.5473891  83.5263761 132.9950813 125.3881722  89.5675354 124.8775648
 126.2228613  90.0065158 125.0413209 125.5240851  89.0914007 124.0583894
 109.3256735  88.2879256 120.4084215 109.0802777  87.3841586 120.6064425
 109.4952649  88.2896407 119.4663693 117.0153445  79.1602933 129.7908970
 117.5335388  79.8963960 129.4655459 116.6608577  79.4666926 130.6255729
 108.5952382  84.0207614 117.9070376 107.9021627  84.0951969 117.2510412
 108.3504134  83.2567957 118.4291893 117.2666039  75.5803215 125.3109867
 117.5467792  74.9126404 125.9370293 118.0516646  75.7732311 124.7984531
 115.0699507  94.7562209 116.8734893 114.4973474  95.3752396 116.4205365
 115.6432301  95.3061571 117.4074815 121.1374897  84.0020849 129.0581442
 122.0892320  84.1018947 129.0793666 120.9678347  83.2099118 129.5679526
 119.1589276  81.0876432 129.2440843 118.5639209  81.3681445 128.5487331
 118.8738973  81.5770333 130.0157584 118.2896767  95.0399359 118.0043475
 119.2227440  94.9744921 118.2076351 118.2019980  95.8755626 117.5458008
 120.9184784  94.3565230 114.9647423 120.8398415  94.0225093 115.8583181
 121.7394450  94.8486997 114.9638895 123.6162975  87.2226969 128.1723741
 123.5839295  86.2842970 128.3583425 124.2263598  87.3011006 127.4389566
 115.4546306  86.0923022 114.2150946 116.4005410  85.9629230 114.2839364
 115.0760551  85.3537684 114.6920374 123.7657463  84.0138012 128.2182025
 123.2496512  83.2296469 128.0311954 124.6497412  83.6856729 128.3828544
 121.4268190  77.7579028 124.1777837 121.2293011  77.4494116 125.0621169
 122.0367896  78.4840667 124.3075767 127.5154822  86.4250838 127.9104229
 126.7887985  86.2906803 127.3020721 127.1002109  86.7327667 128.7160948
 113.6389223  84.0172998 114.1505831 112.7320678  83.7206111 114.2268544
 113.9165204  83.7202816 113.2840117 104.5567163  85.3379362 124.6004877
 104.2369948  84.4844670 124.3079251 104.0100591  85.5527940 125.3562844
 108.3347071  88.0541803 128.3174384 108.5533081  88.9858910 128.3362417
 108.7472845  87.6949777 129.1029188 115.2551289  78.5609888 120.3050072
 114.4452017  78.2156973 120.6805318 115.9435705  78.2517432 120.8937684
 117.1841837  77.6387935 121.9274369 117.7372875  78.0583388 122.5864392
 117.4211923  76.7123683 121.9697325 112.4088007  80.8759933 114.2917810
 113.2707171  81.2014832 114.5513627 112.5938352  80.0891429 113.7790876
 104.4255423  88.9582273 126.5697999 103.7318895  88.5436226 126.0567953
 105.1728414  89.0002810 125.9731418 120.5620644  79.7488460 121.4353033
 119.9819313  80.4073264 121.0531085 120.2956577  78.9265804 121.0240450
 119.0124210  79.1493518 123.6374353 119.5123989  79.2610052 122.8288672
 119.6559818  78.8454570 124.2775162 106.3392166  88.8900527 124.4464014
 106.3162854  88.9888214 123.4945897 106.6492802  89.7365678 124.7681180
 108.9979544  90.9476682 128.5610628 109.9522797  90.9160624 128.4940560
 108.7992067  90.4867306 129.3760854 109.5878926  89.5177798 131.1281426
 110.4071815  90.0121877 131.1516263 109.8615733  88.6009766 131.0998993
 119.3445522  81.9088550 120.4909381 118.4571377  82.1938201 120.2729576
 119.7599511  81.7482314 119.6436658 122.6960058  81.9335071 124.2063720
 123.4720448  82.4231524 124.4788337 121.9708192  82.3593125 124.6635590
 125.1332617  82.6462690 125.2637661 125.7277108  82.4058426 124.5530969
 125.2059200  81.9269821 125.8911197 107.3529772  96.4896301 125.5780826
 107.2184240  95.7296702 125.0118824 106.9361835  97.2137201 125.1109615
 118.4888735  91.6733225 114.5857401 119.1924586  91.8783227 115.2015057
 117.7651384  92.2409987 114.8506485 119.3186546  87.4243086 120.7059671
 119.2621747  87.8811638 119.8667304 119.8714888  86.6633771 120.5282514
 123.1291352  83.2132818 121.5309791 122.8728286  82.8129454 122.3617999
 122.5044220  83.9276612 121.4059930 127.4403689  85.9528891 124.0381082
 126.8803247  86.0222081 124.8112644 126.8347193  85.7769876 123.3180579
 110.5098898  97.3865618 125.7899269 110.3931282  98.3311051 125.6877959
 109.6891345  97.0839180 126.1785068 120.3975433  92.1115754 116.6355861
 121.2321037  91.6796953 116.4533336 120.2359776  91.9397768 117.5632756
 120.0521325  88.6147867 118.0012201 119.9970129  88.4492139 117.0600645
 119.4267380  89.3223900 118.1574390 104.8413840  83.8515932 131.8273623
 105.4872704  83.3414886 132.3160848 104.6330991  84.5884613 132.4017048
 113.3617450  78.1155976 117.5797519 113.3496120  79.0597816 117.7365790
 114.2540872  77.9326122 117.2856980 113.2907014  96.7924867 125.6665276
 112.3402645  96.7926728 125.5529648 113.5939501  96.0457601 125.1501310
 117.1769570  74.7098753 121.8343456 116.4101966  74.1557240 121.9800138
 117.5880275  74.7820622 122.6957607 109.1811331  80.9983549 135.9248637
 110.0442793  80.6420354 136.1351962 108.6076742  80.6597444 136.6124041
 121.1991416 105.1908415 118.3671053 121.9722292 104.6437402 118.2283929
 121.5516815 106.0552664 118.5785514 123.5357694 101.3501081 115.9989503
 123.7883214 100.8282602 115.2372966 122.5982253 101.1867226 116.1016186
 123.2553982 103.2529187 118.2013878 123.1390240 102.5774090 118.8694962
 123.3656242 102.7661561 117.3846031 125.2391010  97.7429233 116.9021916
 125.4065413  98.6109470 117.2692387 125.0488179  97.9056515 115.9783205
 125.2180231 100.1986891 117.8868582 125.0979856 100.6443942 118.7254063
 124.5232819 100.5472209 117.3282120 130.9165297 100.6708364 118.7148916
 131.8283153 100.9035751 118.5396614 130.4074944 101.2545408 118.1523995
 124.0131728 101.5131743 120.1802148 124.7155771 101.9652787 120.6476074
 123.6812356 100.8715562 120.8082041 119.7071807 100.1359875 122.4402758
 118.9102970 100.2478569 122.9586254 119.4797399 100.4746527 121.5743649
 116.6703806 104.1736778 121.6051749 117.5079028 104.5833786 121.3885457
 116.8482074 103.2336220 121.5751943 128.5668238 101.8411859 117.2935582
 128.0514862 102.6116463 117.5323969 128.2945547 101.1676995 117.9168643
 126.1515349  96.6861559 122.3520820 125.2956946  96.2968410 122.1726459
 126.5642301  96.7653520 121.4920606 128.3554542  99.7138951 119.1195363
 128.0504677 100.0285100 119.9705506 129.3084984  99.7920371 119.1622696
 121.5319701  96.5348840 123.1294929 122.1063453  96.3124022 122.3968122
 122.1190683  96.6037535 123.8823530 121.8589288  98.5653301 117.1490814
 121.0226600  98.9027988 117.4700089 121.7194058  98.4302281 116.2117951
 123.8342369  93.4090089 121.8569998 123.1806781  93.0939106 121.2326613
 123.7922843  92.7865830 122.5829821 124.9453574 103.6909384 113.7723290
 124.0380635 103.4598638 113.9714439 125.4424606 102.8947004 113.9597272
 126.1241807 103.7921979 118.2947280 125.2153026 103.5081012 118.3919750
 126.1536891 104.2121058 117.4350587 130.4005621  91.1096807 123.8880884
 130.7064498  90.2494170 123.6006800 131.1258226  91.7014427 123.6879878
 116.6929977 101.5127493 122.2762482 116.4954377 100.9196854 121.5513549
 116.1376641 101.2079704 122.9938421 125.8217895 105.3330723 115.6335359
 125.3837325 104.6166582 115.1740996 126.5628336 105.5606838 115.0720450
 122.6119061 100.0227660 122.1547454 121.7986927 100.3221830 122.5612647
 123.1078055  99.6283348 122.8721937 119.1876203 101.0391527 119.9603434
 118.2573791 100.9775983 120.1773397 119.2833675 100.5167480 119.1640076
 119.1061752  97.5646340 122.5481676 119.3668569  98.4791673 122.4390837
 119.9278925  97.0970783 122.6978289 129.9429122 104.1915105 115.2267416
 129.3258293 103.4661933 115.1300469 129.4745611 104.9524465 114.8834491
 121.7327668  98.4100529 114.3488721 120.8557135  98.2889330 113.9850967
 122.2085421  97.6186607 114.0967609 113.2529809 103.1977689 124.4430228
 113.9400848 102.8839419 123.8551243 113.0977937 104.1019053 124.1697479
 116.4606362 100.0042384 119.7901626 116.7559803  99.0953062 119.7368680
 115.5594398  99.9830124 119.4682629 118.1894204  97.6856482 119.9140951
 117.8606910  96.8053861 119.7316057 118.5433574  97.6304150 120.8017341
 121.3036027  97.9729452 120.2816429 121.6432099  98.5015373 119.5595037
 121.7508147  98.3109858 121.0574996 123.2904174  96.4704073 118.4809722
 124.0112537  96.8485326 117.9773439 122.6669478  97.1892950 118.5844700
 127.4335297  97.1749222 119.4168054 127.6498911  98.0573860 119.1156882
 126.9529364  96.7835436 118.6873696 123.4367797  96.0051864 121.3107258
 123.5583708  95.0768510 121.5098146 123.1469840  96.0190550 120.3985574
 126.3058988  93.6906774 124.4473978 126.3280684  93.7546107 123.4925958
 126.7227047  92.8511283 124.6414485 120.1650489 103.6171174 120.4084215
 119.9196531 102.7133504 120.6064425 120.3346404 103.6188324 119.4663693
 119.4346137  99.3499531 117.9070376 118.7415382  99.4243886 117.2510412
 119.1897889  98.5859875 118.4291893 128.1059793  90.9095133 125.3109867
 128.3861547  90.2418322 125.9370293 128.8910400  91.1024228 124.7984531
 126.2940060 101.4214939 114.2150946 127.2399165 101.2921148 114.2839364
 125.9154305 100.6829601 114.6920374 124.4782977  99.3464916 114.1505831
 123.5714433  99.0498029 114.2268544 124.7558958  99.0494734 113.2840117
 115.3960918 100.6671279 124.6004877 115.0763702  99.8136587 124.3079251
 114.8494346 100.8819857 125.3562844 126.0945043  93.8901806 120.3050072
 125.2845771  93.5448891 120.6805318 126.7829460  93.5809349 120.8937684
 128.0235591  92.9679852 121.9274369 128.5766630  93.3875306 122.5864392
 128.2605678  92.0415600 121.9697325 123.2481762  96.2051851 114.2917810
 124.1100926  96.5306749 114.5513627 123.4332106  95.4183347 113.7790876
 131.4014398  95.0780378 121.4353033 130.8213067  95.7365182 121.0531085
 131.1350331  94.2557722 121.0240450 130.1839276  97.2380468 120.4909381
 129.2965131  97.5230119 120.2729576 130.5993266  97.0774231 119.6436658
 129.3282490 107.0025143 114.5857401 130.0318340 107.2075145 115.2015057
 128.6045139 107.5701904 114.8506485 124.2011205  93.4447894 117.5797519
 124.1889875  94.3889734 117.7365790 125.0934627  93.2618040 117.2856980
 128.0163324  90.0390671 121.8343456 127.2495720  89.4849157 121.9800138
 128.4274029  90.1112540 122.6957607  62.2373263  -6.8670106 104.6929225
  61.5861243  -6.2816026 104.3063239  63.0317626  -6.3363911 104.7524263
  57.9424598  -1.9998851 108.2604020  57.8648627  -1.0491026 108.3392501
  57.3386241  -2.3452978 108.9178947  60.2162966  -6.6416698 106.9809560
  60.0808641  -5.7965162 107.4094408  60.7572779  -6.4397420 106.2175494
  62.8159127  -2.5682492 103.4165283  62.1420826  -2.2650795 104.0250241
  63.2024949  -1.7653412 103.0670740  64.7631488  -5.7284318 109.7233573
  65.0554462  -5.1679261 109.0045938  65.2730109  -5.4355757 110.4786732
  61.0150342  -2.4002819 105.6312362  61.1902098  -2.8714776 106.4457985
  60.3283130  -1.7737053 105.8593623  59.8829069  -4.2062564 108.3196548
  59.0996591  -3.6640884 108.4134772  60.5821814  -3.6888585 108.7190789
  62.3658346  -3.2048756 109.7138176  62.5480741  -4.0227100 110.1765929
  63.1891332  -2.9881064 109.2763066  62.7000512  -4.2780571 106.9753225
  63.2288278  -4.7888116 106.3623387  62.9628731  -4.5938041 107.8398758
  65.7940695  -4.3063773 107.5908208  65.9677573  -4.8717350 106.8382060
  66.2869586  -3.5062878 107.4087698  60.3647951  -1.4725320 110.5787690
  59.9252942  -1.9648941 111.2720547  61.1156068  -2.0152352 110.3379765
  57.3735330  -7.3783387 106.1268452  57.5223451  -6.6947923 105.4735125
  58.1801774  -7.3978297 106.6417908  60.8730736  -4.8835257 103.5980200
  60.3004703  -4.2645070 103.1450672  61.4463530  -4.3335895 104.1320122
  64.0927996  -4.5998107 104.7288782  65.0258669  -4.6652545 104.9321657
  64.0051209  -3.7641840 104.2703315  66.7216012  -5.2832236 101.6892730
  66.6429644  -5.6172373 102.5828487  67.5425679  -4.7910468 101.6884202
  74.8290937   2.9887939 113.4556345  75.4669347   2.8694687 112.7519685
  74.7111780   3.9368783 113.5144297  71.6380643   2.9415368 113.3917869
  71.2999155   2.8256432 112.5038404  72.5070411   2.5406533 113.3718875
  67.4967459   4.7950844 109.3814760  66.9332324   4.7040781 108.6131048
  67.3819854   3.9750748 109.8617253  72.1200426   4.0950219 119.3504075
  72.1089067   3.7003018 118.4784579  72.2821065   3.3616292 119.9437846
  65.0431891   6.2902036 112.2198981  65.8353183   5.9492860 111.8045280
  65.2828541   6.3997011 113.1401134  73.0767017   8.4621812 104.6929225
  72.4254997   9.0475892 104.3063239  73.8711380   8.9928007 104.7524263
  67.0022645   5.5510949 105.0916360  67.7753521   5.0039936 104.9529235
  67.3548043   6.4155198 105.3030821  68.8407687   6.8787331 118.2983259
  68.5497553   7.7832962 118.1829925  69.4764671   6.9203859 119.0127328
  69.7663894   4.2564180 114.8884618  70.3627466   4.0320202 114.1741581
  69.8238866   3.5148925 115.4910066  69.3388922   1.7103615 102.7234809
  69.5914443   1.1885136 101.9618272  68.4013481   1.5469760 102.8261493
  74.3832205   0.7139393 110.5309553  75.1695294   0.2958816 110.1799970
  74.6470910   1.6185485 110.6991201  74.5542283   6.1512244 105.2298210
  73.9188116   6.2246870 105.9419114  74.2239689   6.7405842 104.5517289
  79.7840632   0.6514626 111.4342531  80.5165804   0.0813843 111.6680361
  79.0279988   0.2636227 111.8749037  69.0585211   3.6131721 104.9259184
  68.9421469   2.9376624 105.5940269  69.1687471   3.1264095 104.1091337
  71.4016752   3.0741868 108.6305874  71.0374959   2.5472489 109.3418795
  72.2583868   2.6840337 108.4572359  71.0422239  -1.8968232 103.6267222
  71.2096641  -1.0287996 103.9937693  70.8519408  -1.7340951 102.7028511
  73.7997572   6.5648747 115.2933053  73.4998295   7.4673785 115.1848860
  73.4548632   6.2980930 116.1454205  67.2510054   3.0162543 111.3269757
  66.3260550   2.8838758 111.5347449  67.4994467   3.7956763 111.8239699
  77.1994716  -0.9168713 112.9730490  76.2911593  -0.9853305 112.6789251
  77.1482312  -0.4396768 113.8012315  71.0211460   0.5589425 104.6113889
  70.9011085   1.0046476 105.4499369  70.3264048   0.9074743 104.0527427
  64.6118865   2.6595817 112.1613546  64.7411246   2.9130296 113.0752958
  63.9316316   3.2523525 111.8418201  68.7818352  13.3293067 108.2604020
  68.7042382  14.2800892 108.3392501  68.1779996  12.9838939 108.9178947
  76.7196526   1.0310898 105.4394223  77.6314382   1.2638285 105.2641921
  76.2106173   1.6147943 104.8769302  75.0037294   5.4535526 119.0755516
  75.4120650   5.0117937 118.3310148  74.2814555   4.8788154 119.3289709
  71.3568364   0.3908133 116.4489073  72.2029559   0.8147547 116.5923722
  71.2967001  -0.2658243 117.1427636  75.3266108   6.0136717 112.8307805
  74.6974971   6.1782431 112.1283872  74.9391770   6.4278326 113.6018769
  79.2055340   6.9491155 110.1852168  78.5206378   7.3290056 109.6349202
  79.2899190   7.5586481 110.9184116  76.4606272   4.5951114 116.7847512
  76.6723167   5.2382874 116.1081893  76.4136020   3.7613430 116.3169442
  74.0632501  -2.7931066 113.6884084  73.2016980  -2.4949812 113.9800822
  74.0894935  -2.5760667 112.7565117  70.8794070   5.7511125 110.0957890
  71.3432416   6.0298828 109.3062512  70.6150868   4.8494569 109.9130980
  67.7718151   5.2982606 113.0337653  68.3419508   5.7269875 112.3955137
  68.3626263   5.0165191 113.7321839  69.8162956   1.8734277 106.9047455
  70.5187000   2.3255321 107.3721381  69.4843585   1.2318096 107.5327348
  63.5588290   0.1317830 112.2064588  62.7687344   0.3875358 111.7304699
  64.0499538   0.9466168 112.3116629  77.5752100   7.4723069 114.9569869
  78.3969544   7.0703256 114.6752551  77.5714503   7.3691303 115.9085985
  65.5103036   0.4962409 109.1648065  64.7134199   0.6081103 109.6831561
  65.2828628   0.8349061 108.2988956  71.3408703   7.0207112 117.1130580
  71.4053136   7.4827520 117.9488751  70.6319627   6.3904477 117.2412889
  85.6658093   3.8161818 111.3054841  84.9121801   3.2469216 111.1498845
  85.8005634   3.7824482 112.2525475  71.0556721   8.6875220 106.9809560
  70.9202396   9.5326756 107.4094408  71.5966533   8.8894498 106.2175494
  64.5086118   6.2050658 107.5537485  65.0210639   6.9993908 107.7043050
  65.1608831   5.5076948 107.4871087  66.3181003   9.3216414 109.6360238
  66.4947631  10.2434379 109.4481222  67.1137837   9.0074833 110.0654618
  72.6825197   9.3098786 121.1109902  72.2389052   8.5235165 120.7930807
  73.3442411   9.4977937 120.4453793  67.4412318  10.8394588 115.6370581
  67.9919744  10.7111651 114.8647574  66.6023794  11.1389477 115.2865473
  74.7806435   9.5901586 119.1391303  74.7624911  10.4110467 118.6471572
  75.7026355   9.4655662 119.3641444  71.2379490   7.1045716 119.9814812
  71.7707826   6.3434004 119.7514120  70.7093571   6.8119368 120.7238966
  62.4735035   4.5339312 108.3297056  63.3110257   4.9436321 108.1130763
  62.6513303   3.5938754 108.2997249  74.3699467   2.2014393 104.0180889
  73.8546091   2.9718998 104.2569276  74.0976776   1.5279529 104.6413950
  71.9546578  -2.9535906 109.0766127  71.0988175  -3.3429056 108.8971766
  72.3673530  -2.8743946 108.2165912  79.3433741   4.9546748 105.9534062
  78.5663184   4.6157907 105.5089224  80.0225222   4.9599371 105.2789027
  74.1585770   0.0741485 105.8440670  73.8535906   0.3887634 106.6950813
  75.1116213   0.1522905 105.8868003  72.6032202   6.2331708 107.4933624
  72.0753564   5.4984468 107.1806861  72.1019705   7.0106385 107.2473592
  77.5825048   4.4280729 112.6100670  76.9248723   5.1179990 112.6980799
  78.3865447   4.8177161 112.9534656  67.3350930  -3.1048625 109.8540235
  67.9094682  -3.3273444 109.1213428  67.9221912  -3.0359931 110.6068837
  76.3930507   2.7825101 110.6604612  76.9062389   3.4155093 111.1626321
  77.0431731   2.1826297 110.2947972  67.6620517  -1.0744164 103.8736120
  66.8257829  -0.7369478 104.1945395  67.5225287  -1.2095185 102.9363257
  70.7484802   4.0511919 100.4968597  69.8411864   3.8201172 100.6959746
  71.2455834   3.2549538 100.6842578  73.6552881  12.7609426 103.4165283
  72.9814580  13.0641123 104.0250241  74.0418703  13.5638506 103.0670740
  72.8711338   0.2574557 112.9062952  71.9533899   0.4789504 112.7484640
  73.2871482   0.3320868 112.0474660  73.6546386   1.6565973 108.0365633
  74.4018205   2.1687370 107.7272755  73.9237975   1.3350025 108.8970026
  71.9273036   4.1524513 105.0192587  71.0184255   3.8683546 105.1165057
  71.9568120   4.5723592 104.1595894  77.1592303   7.7631103 108.7883754
  76.7054630   6.9222013 108.8448945  76.5286270   8.3992501 109.1258535
  76.1025223  -1.3076911 110.0184422  75.3647980  -1.8199525 110.3494664
  76.3551996  -1.7476529 109.2067699  75.6025243   9.6007600 109.7233573
  75.8948217  10.1612657 109.0045938  76.1123863   9.8936161 110.4786732
  62.4961206   1.8730028 109.0007789  62.2985606   1.2799388 108.2758856
  61.9407870   1.5682238 109.7183728  70.4757930   1.7653134 111.1202382
  70.5306540   0.8126970 111.0444859  69.6649132   1.9212573 111.6043681
  71.6249124   5.6933257 102.3580665  71.1868554   4.9769116 101.8986303
  72.3659565   5.9209372 101.7965757  68.4150290   0.3830194 108.8792761
  67.6018155   0.6824364 109.2857953  68.9109284  -0.0114117 109.5967243
  70.5658868  10.3787951 110.8127026  70.5235047  10.6048797 109.8835558
  71.4821567  10.1451325 110.9612827  74.0124502   0.8472018 117.7107655
  74.3673889   1.0743491 118.5702121  74.6596633   1.1790395 117.0884910
  79.7422238   3.9690454 108.4156984  79.6040137   4.1592050 107.4878173
  79.3858457   4.7309837 108.8725035  67.9064365  -2.0451451 114.4953996
  68.5463744  -2.1862692 113.7976959  67.0741895  -2.3316937 114.1192598
  79.7691618   6.0366981 113.4268255  80.2028125   5.9442270 114.2751310
  80.4823199   6.0124482 112.7888271  68.6824668   7.2550980 110.6088988
  69.4765267   6.7601300 110.4071563  67.9716361   6.7268843 110.2456694
  73.5019513   9.6369075 114.9601356  73.5556535  10.2060012 115.7279072
  72.6334294   9.8070960 114.5955393  64.9907432   1.3994061 106.6848741
  64.0605020   1.3378517 106.9018703  65.0864904   0.8770014 105.8885382
  64.9092981  -2.0751126 109.2726983  65.1699798  -1.1605792 109.1636143
  65.7310153  -2.5426683 109.4223596  80.6307168   6.0790682 115.9601141
  80.8243058   6.9836492 116.2060416  80.5307786   5.6198101 116.7939726
  75.6922276   6.2297425 121.5342021  75.5407783   6.0007976 120.6172105
  75.6826956   7.1868026 121.5473366  72.4607613   3.8029337 116.5188288
  73.3899673   3.9540497 116.3457255  72.0398643   3.8913358 115.6636934
  71.2595944   7.8280002 114.2886826  71.1207030   7.4598786 115.1612764
  70.4710541   8.3427641 114.1170783  71.8544096  12.9289098 105.6312362
  72.0295852  12.4577141 106.4457985  71.1676884  13.5554864 105.8593623
  72.8101160   7.2061604 111.6775663  72.4750992   7.1662374 112.5733313
  72.3105105   6.5406320 111.2046074  75.7460351   4.5517639 101.9512723
  75.1289522   3.8264467 101.8545776  75.2776840   5.3126999 101.6079797
  69.4127704   2.3249194 116.6911924  70.1227323   1.6842386 116.6498543
  69.3697012   2.5762089 117.6138105  77.4014483   9.2616547 119.6118503
  77.3427029   8.5775767 118.9449086  77.8034001  10.0035537 119.1599129
  66.4205182  16.0778461 112.4052222  66.6601780  16.7096985 113.0831241
  65.5774378  15.7266501 112.6917582  67.5358897  -1.2296937 101.0734027
  66.6588364  -1.3508136 100.7096274  68.0116650  -2.0210859 100.8212916
  77.4031890   7.2256131 117.8432483  76.5158669   6.8882053 117.9658882
  77.9730441   6.4939162 118.0801248  59.0561037   3.5580223 111.1675534
  59.7432077   3.2441953 110.5796550  58.9009166   4.4621587 110.8942786
  70.9333044  11.8857583 114.8093726  70.8603215  12.6912555 115.3213031
  70.4910437  12.0849549 113.9841748  70.7222823  11.1229353 108.3196548
  69.9390345  11.6651034 108.4134772  71.4215568  11.6403333 108.7190789
  81.8849231   2.6364348 112.6049045  81.8739107   3.5189064 112.2342978
  81.0166610   2.2835899 112.4103582  73.3931727  11.7844417 116.9651885
  74.1059699  12.4191882 116.8927786  72.9021756  11.8808283 116.1491887
  75.1149254   5.6895670 108.5369177  74.1805533   5.8097133 108.3673881
  75.2925922   4.7868137 108.2729186  70.6154442  -0.9258634 110.6902438
  70.2452230  -1.4787594 111.3783343  71.1113535  -1.5300501 110.1377438
  78.5021805   1.5312989 109.0719211  78.9682258   2.3640981 108.9979513
  78.9529306   1.0657971 109.7764469  68.4443641   9.5338861 117.7857456
  69.1453100  10.1675344 117.9386850  67.9738756   9.8753592 117.0253095
  76.5698036   7.8756811 106.0705363  76.8457880   7.7613405 106.9799237
  75.7002535   7.4774296 106.0317536  76.2444927   2.0883468 115.6110006
  75.5916377   2.3359376 114.9562459  76.6225307   1.2747607 115.2772483
  73.2052100  12.1243162 109.7138176  73.3874495  11.3064817 110.1765929
  74.0285087  12.3410854 109.2763066  73.5394266  11.0511347 106.9753225
  74.0682032  10.5403801 106.3623387  73.8022486  10.7353877 107.8398758
  64.0411359   9.0675216 114.7188558  64.6264796   8.3218904 114.8516463
  63.8436197   9.3779173 115.6025222  66.8950014  12.1026463 109.7351001
  66.2260389  12.5872591 109.2515041  66.7562884  12.3495684 110.6494379
  71.0355283  14.1370207 116.3333659  71.5873591  14.3001828 117.0982744
  71.3761476  14.7274645 115.6613684  75.8866157   8.9631464 122.1882314
  76.4306061   9.5761423 121.6937268  75.3053002   9.5211043 122.7049327
  62.2637591   0.3644918 106.5146933  62.5591032  -0.5444403 106.4613987
  61.3625627   0.3432658 106.1927935  74.1723670  12.0852182 113.3197341
  74.0474809  11.2841922 112.8108287  74.8302761  12.5798376 112.8311311
  65.7931838  -1.5599085 112.4974482  65.0718424  -0.9463117 112.3581955
  66.5825094  -1.0241320 112.4191127  76.2358578   9.8861202 114.9476891
  75.2888914   9.7666554 114.8755218  76.5841351   8.9983700 115.0303153
  63.9925433  -1.9540984 106.6386258  63.6638139  -2.8343605 106.4561364
  64.3464803  -2.0093315 107.5262647  73.2405011   9.6813919 111.1481244
  73.0929974   8.7530626 111.3288814  74.0658505   9.7034009 110.6638319
  67.1067256  -1.6668014 107.0061736  67.4463328  -1.1382093 106.2840344
  67.5539376  -1.3287608 107.7820302  76.8439133  10.5042477 112.2346116
  77.7685681  10.2985339 112.0970568  76.6754437  10.2558879 113.1435458
  69.0935403  -3.1693393 105.2055029  69.8143765  -2.7912140 104.7018745
  68.4700707  -2.4504516 105.3090006  73.2366526  -2.4648244 106.1413361
  73.4530140  -1.5823606 105.8402189  72.7560593  -2.8562030 105.4119003
  67.9765747   0.4937470 112.7184105  67.8310328   0.8077773 113.6108387
  67.4990951   1.1122370 112.1655004  69.8362130  -2.5159982 112.7664995
  69.8223699  -3.4118889 112.4297293  70.5534558  -2.5089319 113.4003281
  71.6888261  -2.0822642 114.8118122  71.4306039  -1.1605572 114.8102453
  71.1573301  -2.4792208 115.5018587  76.6334450  11.0228145 107.5908208
  76.8071327  10.4574567 106.8382060  77.1263341  11.8229040 107.4087698
  62.4511409   3.0342814 115.6571767  61.9064877   3.8102622 115.7892041
  63.3290759   3.3813618 115.4990888  69.2399026  -3.6345602 108.0352565
  69.3614937  -4.5628956 108.2343453  68.9501068  -3.6206916 107.1230881
  82.4873841   3.7864568 109.2098508  82.9304987   3.0371893 108.8117631
  81.6100351   3.7774704 108.8272240  77.6209622  10.3394909 104.6905106
  78.3160527  10.9601602 104.9092421  77.9632772   9.4890260 104.9657484
  79.5201045   7.7894615 106.2192437  80.0452369   8.1281888 105.4941757
  79.4323398   6.8541630 106.0355571  71.1821094  11.7028688 118.3482313
  71.4908220  11.4577835 119.2205013  71.9796576  11.9075327 117.8601184
  71.2041706  13.8566598 110.5787690  70.7646696  13.3642977 111.2720547
  71.9549823  13.3139566 110.3379765  63.6834045  10.0478139 110.5812318
  64.5092065   9.7481911 110.2010962  63.3328097   9.2785761 111.0302107
  68.6515578   9.4004607 112.6509992  68.0295587   8.7375312 112.3512220
  69.3220445   9.4265739 111.9683639  61.8842650   7.9664465 111.5401252
  61.0474558   7.5386640 111.3585253  61.8566295   8.1596909 112.4772043
  79.2094951   8.4227518 121.5243635  78.4190495   8.4051657 120.9848134
  78.9728306   8.9615812 122.2792671  79.3292826   5.2719985 118.8376363
  79.3790831   5.1069992 119.7791886  79.2206750   4.4047244 118.4474244
  68.2129085   7.9508530 106.1268452  68.3617205   8.6343995 105.4735125
  69.0195528   7.9313621 106.6417908  80.8311023   7.6916926 119.0818385
  80.5395831   8.0546907 119.9181846  80.2183154   6.9783935 118.9031717
  82.0306705   5.2569806 111.6020955  82.8653597   5.6959610 111.7658515
  82.1665834   4.7808459 110.7829201  79.0798211   2.8149541 117.5498443
  79.5552333   3.0077187 116.7417294  78.1563777   2.8708727 117.3041827
  65.9681718   3.9773708 107.1329521  65.7227760   3.0736038 107.3309731
  66.1377632   3.9790859 106.1908999  65.2377365  -0.2897934 104.6315683
  64.5446610  -0.2153579 103.9755719  64.9929117  -1.0537591 105.1537200
  71.7124490  10.4456661 103.5980200  71.1398458  11.0646848 103.1450672
  72.2857284  10.9956023 104.1320122  77.7799880  -0.3084699 115.7826748
  78.7317303  -0.2086601 115.8038973  77.6103331  -1.1006430 116.2924833
  74.9321750  10.7293811 104.7288782  75.8652423  10.6639373 104.9321657
  74.8444963  11.5650078 104.2703315  77.5609767  10.0459681 101.6892730
  77.4823398   9.7119545 102.5828487  78.3819434  10.5381449 101.6884202
  80.2587958   2.9121421 114.8969048  80.2264278   1.9737421 115.0828732
  80.8688582   2.9905457 114.1634873  72.0971289   1.7817474 100.9396252
  73.0430394   1.6523682 101.0084670  71.7185534   1.0432136 101.4165680
  86.0764508   3.9737428 114.0375085  86.8067896   3.7122716 114.5982788
  85.4671453   3.2366150 114.0777153  84.1579805   2.1145290 114.6349536
  83.4312969   1.9801255 114.0266028  83.7427092   2.4222119 115.4406254
  70.2814206  -0.2932550 100.8751137  69.3745662  -0.5899437 100.9513851
  70.5590187  -0.5902732 100.0085424  61.1992147   1.0273813 111.3250184
  60.8794931   0.1739122 111.0324558  60.6525575   1.2422392 112.0808151
  64.9772054   3.7436254 115.0419690  65.1958064   4.6753362 115.0607724
  65.3897828   3.3844229 115.8274494  69.0512991  -3.4345615 101.0163117
  69.9132155  -3.1090716 101.2758934  69.2363335  -4.2214119 100.5036182
  61.0680407   4.6476725 113.2943305  60.3743878   4.2330678 112.7813260
  61.8153398   4.6897261 112.6976724  62.9817149   4.5794979 111.1709320
  62.9587837   4.6782666 110.2191203  63.2917786   5.4260130 111.4926486
  65.6404527   6.6371134 115.2855935  66.5947780   6.6055076 115.2185866
  65.4417050   6.1761758 116.1006161  66.2303909   5.2072250 117.8526732
  67.0496798   5.7016329 117.8761570  66.5040717   4.2904218 117.8244300
  63.9954756  12.1790753 112.3026133  63.8609224  11.4191154 111.7364131
  63.5786818  12.9031653 111.8354921  75.1313719   7.3627677 101.3102708
  75.8349569   7.5677679 101.9260363  74.4076367   7.9304439 101.5751791
  75.9611529   3.1137538 107.4304978  75.9046730   3.5706090 106.5912610
  76.5139871   2.3528223 107.2527821  84.0828673   1.6423343 110.7626389
  83.5228231   1.7116533 111.5357951  83.4772176   1.4664328 110.0425885
  67.1523882  13.0760070 112.5144575  67.0356266  14.0205503 112.4123265
  66.3316328  12.7733632 112.9030374  77.0400416   7.8010206 103.3601168
  77.8746020   7.3691404 103.1778643  76.8784759   7.6292220 104.2878062
  76.6946308   4.3042319 104.7257507  76.6395112   4.1386591 103.7845951
  76.0692364   5.0118352 104.8819697  68.1778396  13.7288332 115.7300504
  69.0805642  13.7611942 116.0466999  67.9515766  12.7988783 115.7446839
  69.9331998  12.4819319 112.3910582  68.9827629  12.4821180 112.2774955
  70.2364484  11.7352053 111.8746617  85.6684691  18.3179857 113.4556345
  86.3063101  18.1986604 112.7519685  85.5505534  19.2660701 113.5144297
  82.4774397  18.2707285 113.3917869  82.1392909  18.1548350 112.5038404
  83.3464166  17.8698450 113.3718875  78.3361213  20.1242762 109.3814760
  77.7726078  20.0332699 108.6131048  78.2213608  19.3042666 109.8617253
  82.9594180  19.4242137 119.3504075  82.9482821  19.0294935 118.4784579
  83.1214820  18.6908210 119.9437846  75.8825645  21.6193953 112.2198981
  76.6746937  21.2784778 111.8045280  76.1222295  21.7288928 113.1401134
  83.9160772  23.7913729 104.6929225  83.2648752  24.3767810 104.3063239
  84.7105135  24.3219924 104.7524263  77.8416399  20.8802866 105.0916360
  78.6147275  20.3331854 104.9529235  78.1941798  21.7447116 105.3030821
  79.6801442  22.2079249 118.2983259  79.3891308  23.1124880 118.1829925
  80.3158426  22.2495776 119.0127328  80.6057648  19.5856097 114.8884618
  81.2021221  19.3612120 114.1741581  80.6632620  18.8440843 115.4910066
  80.1782677  17.0395533 102.7234809  80.4308198  16.5177054 101.9618272
  79.2407236  16.8761678 102.8261493  85.2225960  16.0431311 110.5309553
  86.0089049  15.6250734 110.1799970  85.4864664  16.9477403 110.6991201
  85.3936037  21.4804161 105.2298210  84.7581870  21.5538788 105.9419114
  85.0633443  22.0697760 104.5517289  90.6234387  15.9806544 111.4342531
  91.3559559  15.4105761 111.6680361  89.8673743  15.5928145 111.8749037
  79.8978966  18.9423639 104.9259184  79.7815224  18.2668542 105.5940269
  80.0081226  18.4556012 104.1091337  82.2410507  18.4033786 108.6305874
  81.8768714  17.8764407 109.3418795  83.0977622  18.0132255 108.4572359
  88.1459807   9.6928118 115.8937140  87.8143132  10.5623529 115.6698355
  87.5505421   9.3764402 116.5731170  81.8815994  13.4323685 103.6267222
  82.0490396  14.3003922 103.9937693  81.6913163  13.5950967 102.7028511
  84.6391327  21.8940664 115.2933053  84.3392050  22.7965703 115.1848860
  84.2942386  21.6272847 116.1454205  78.0903808  18.3454461 111.3269757
  77.1654305  18.2130675 111.5347449  78.3388221  19.1248680 111.8239699
  88.0388471  14.4123204 112.9730490  87.1305348  14.3438613 112.6789251
  87.9876066  14.8895149 113.8012315  81.8605214  15.8881343 104.6113889
  81.7404840  16.3338394 105.4499369  81.1657803  16.2366661 104.0527427
  75.4512619  17.9887735 112.1613546  75.5805000  18.2422214 113.0752958
  74.7710071  18.5815443 111.8418201  79.6212107  28.6584985 108.2604020
  79.5436136  29.6092810 108.3392501  79.0173750  28.3130857 108.9178947
  82.1129336  15.8312850 120.9165387  81.3362670  16.3906770 120.9068252
  82.7519899  16.3169633 121.4380257  89.9050117  12.6139643 114.7508364
  89.2624497  12.9072176 114.1048158  89.4005045  12.4992563 115.5561560
  87.5590281  16.3602816 105.4394223  88.4708137  16.5930203 105.2641921
  87.0499928  16.9439860 104.8769302  80.3675709  18.6398303 120.4783354
  81.1090393  19.1783347 120.2018178  79.6612694  19.2664592 120.6354906
  85.8431048  20.7827444 119.0755516  86.2514404  20.3409854 118.3310148
  85.1208310  20.2080071 119.3289709  82.1962118  15.7200051 116.4489073
  83.0423313  16.1439464 116.5923722  82.1360756  15.0633675 117.1427636
  86.1659863  21.3428634 112.8307805  85.5368725  21.5074349 112.1283872
  85.7785525  21.7570244 113.6018769  90.0449095  22.2783072 110.1852168
  89.3600133  22.6581974 109.6349202  90.1292944  22.8878399 110.9184116
  85.3461564  13.3804419 118.1070246  85.1022495  14.1346480 117.5704522
  85.6221494  13.7589767 118.9417493  87.3000026  19.9243031 116.7847512
  87.5116922  20.5674791 116.1081893  87.2529775  19.0905348 116.3169442
  84.9026255  12.5360852 113.6884084  84.0410734  12.8342106 113.9800822
  84.9288690  12.7531251 112.7565117  81.7187825  21.0803043 110.0957890
  82.1826170  21.3590746 109.3062512  81.4544623  20.1786487 109.9130980
  78.6111906  20.6274524 113.0337653  79.1813263  21.0561792 112.3955137
  79.2020018  20.3457109 113.7321839  80.6556711  17.2026195 106.9047455
  81.3580754  17.6547239 107.3721381  80.3237339  16.5610014 107.5327348
  79.1037072  15.7937952 121.2798664  78.4735733  16.4754232 121.5134061
  78.9973160  15.6821033 120.3351802  74.3982045  15.4609748 112.2064588
  73.6081099  15.7167276 111.7304699  74.8893292  16.2758085 112.3116629
  88.4145854  22.8014987 114.9569869  89.2363298  22.3995174 114.6752551
  88.4108257  22.6983221 115.9085985  76.3496790  15.8254327 109.1648065
  75.5527953  15.9373021 109.6831561  76.1222382  16.1640979 108.2988956
  82.1802458  22.3499030 117.1130580  82.2446890  22.8119437 117.9488751
  81.4713382  21.7196395 117.2412889  72.6819748  15.7140238 114.6379579
  72.9327786  16.5987248 114.9037155  73.2179296  15.5344840 113.8654671
  96.5051847  19.1453735 111.3054841  95.7515556  18.5761133 111.1498845
  96.6399389  19.1116400 112.2525475  81.8950475  24.0167138 106.9809560
  81.7596150  24.8618673 107.4094408  82.4360288  24.2186415 106.2175494
  78.3817815  10.0958717 123.6423915  77.9884761   9.5424916 124.3171559
  79.1983955  10.4069296 124.0330433  75.3479873  21.5342576 107.5537485
  75.8604393  22.3285826 107.7043050  76.0002586  20.8368866 107.4871087
  77.1574758  24.6508332 109.6360238  77.3341386  25.5726297 109.4481222
  77.9531591  24.3366751 110.0654618  81.2985776  11.5116597 121.2344172
  82.0395489  12.1123750 121.1548634  81.5303699  10.7694234 120.6762214
  76.4427114  16.6972964 119.5122401  76.3280629  15.7958221 119.8129500
  75.5871632  16.9436661 119.1607218  83.5218952  24.6390704 121.1109902
  83.0782806  23.8527083 120.7930807  84.1836165  24.8269855 120.4453793
  78.2806073  26.1686506 115.6370581  78.8313498  26.0403569 114.8647574
  77.4417549  26.4681395 115.2865473  85.6200190  24.9193504 119.1391303
  85.6018665  25.7402385 118.6471572  86.5420110  24.7947579 119.3641444
  82.0773244  22.4337634 119.9814812  82.6101581  21.6725922 119.7514120
  81.5487325  22.1411285 120.7238966  85.2442939   7.5397699 115.5108453
  84.9007208   8.4299341 115.4347564  85.6121902   7.3499357 114.6478038
  73.3128790  19.8631230 108.3297056  74.1504012  20.2728238 108.1130763
  73.4907057  18.9230672 108.2997249  85.2093222  17.5306311 104.0180889
  84.6939845  18.3010915 104.2569276  84.9370530  16.8571447 104.6413950
  82.7940333  12.3756011 109.0766127  81.9381929  11.9862862 108.8971766
  83.2067285  12.4547972 108.2165912  84.3239479   9.9102355 113.4757687
  83.8204275   9.8732490 112.6625492  84.6170086  10.8195097 113.5354343
  80.5682365   9.9941084 112.4823868  81.4335362   9.7983893 112.1229758
  80.6359874   9.7651436 113.4093225  90.1827496  20.2838665 105.9534062
  89.4056939  19.9449825 105.5089224  90.8618977  20.2891288 105.2789027
  84.9979525  15.4033403 105.8440670  84.6929660  15.7179552 106.6950813
  85.9509967  15.4814823 105.8868003  83.4425957  21.5623626 107.4933624
  82.9147318  20.8276386 107.1806861  82.9413459  22.3398302 107.2473592
  88.4218803  19.7572646 112.6100670  87.7642477  20.4471908 112.6980799
  89.2259202  20.1469078 112.9534656  78.1744684  12.2243292 109.8540235
  78.7488436  12.0018474 109.1213428  78.7615667  12.2931987 110.6068837
  87.2324262  18.1117019 110.6604612  87.7456143  18.7447011 111.1626321
  87.8825485  17.5118215 110.2947972  78.5014271  14.2547753 103.8736120
  77.6651584  14.5922440 104.1945395  78.3619041  14.1196733 102.9363257
  80.4767352   9.0984541 108.5815305  79.8231764   8.7833558 107.9571919
  80.4347826   8.4760282 109.3075128  81.5878557  19.3803836 100.4968597
  80.6805619  19.1493090 100.6959746  82.0849589  18.5841455 100.6842578
  84.4946636  28.0901343 103.4165283  83.8208335  28.3933040 104.0250241
  84.8812458  28.8930424 103.0670740  83.7105092  15.5866475 112.9062952
  82.7927654  15.8081422 112.7484640  84.1265236  15.6612785 112.0474660
  84.4940140  16.9857890 108.0365633  85.2411959  17.4979288 107.7272755
  84.7631730  16.6641943 108.8970026  82.7666790  19.4816431 105.0192587
  81.8578010  19.1975464 105.1165057  82.7961874  19.9015510 104.1595894
  87.9986058  23.0923021 108.7883754  87.5448385  22.2513930 108.8448945
  87.3680024  23.7284419 109.1258535  86.9418977  14.0215007 110.0184422
  86.2041734  13.5092393 110.3494664  87.1945751  13.5815388 109.2067699
  86.4418997  24.9299517 109.7233573  86.7341971  25.4904574 109.0045938
  86.9517618  25.2228078 110.4786732  87.0430605   6.7991259 110.6126191
  87.3489481   5.9388622 110.3252106  87.7683209   7.3908879 110.4125185
  73.3354961  17.2021945 109.0007789  73.1379361  16.6091306 108.2758856
  72.7801625  16.8974155 109.7183728  81.3151684  17.0945052 111.1202382
  81.3700294  16.1418888 111.0444859  80.5042886  17.2504491 111.6043681
  82.4642878  21.0225175 102.3580665  82.0262308  20.3061034 101.8986303
  83.2053319  21.2501290 101.7965757  79.2544044  15.7122111 108.8792761
  78.4411910  16.0116282 109.2857953  79.7503038  15.3177800 109.5967243
  81.4052622  25.7079868 110.8127026  81.3628801  25.9340715 109.8835558
  82.3215321  25.4743243 110.9612827  84.8518256  16.1763936 117.7107655
  85.2067644  16.4035409 118.5702121  85.4990387  16.5082313 117.0884910
  90.5815993  19.2982372 108.4156984  90.4433892  19.4883968 107.4878173
  90.2252212  20.0601755 108.8725035  78.7458119  13.2840467 114.4953996
  79.3857498  13.1429226 113.7976959  77.9135650  12.9974980 114.1192598
  90.6085373  21.3658899 113.4268255  91.0421879  21.2734188 114.2751310
  91.3216953  21.3416399 112.7888271  79.5218423  22.5842897 110.6088988
  80.3159021  22.0893218 110.4071563  78.8110115  22.0560761 110.2456694
  84.3413267  24.9660993 114.9601356  84.3950290  25.5351929 115.7279072
  83.4728049  25.1362878 114.5955393  75.8301186  16.7285979 106.6848741
  74.8998775  16.6670435 106.9018703  75.9258658  16.2061932 105.8885382
  75.7486735  13.2540792 109.2726983  76.0093553  14.1686125 109.1636143
  76.5703908  12.7865235 109.4223596  77.2211661  14.6678549 116.4425807
  77.8934714  14.4595911 115.7938456  76.3941447  14.4700635 116.0031040
  91.4700922  21.4082599 115.9601141  91.6636812  22.3128410 116.2060416
  91.3701540  20.9490019 116.7939726  83.1237233  11.2940490 118.4591468
  82.4765148  11.9930440 118.3655945  83.8938248  11.7276634 118.8267716
  86.5316031  21.5589342 121.5342021  86.3801537  21.3299894 120.6172105
  86.5220710  22.5159944 121.5473366  83.3001367  19.1321255 116.5188288
  84.2293427  19.2832415 116.3457255  82.8792397  19.2205276 115.6636934
  82.0989699  23.1571919 114.2886826  81.9600785  22.7890704 115.1612764
  81.3104295  23.6719559 114.1170783  82.6937851  28.2581016 105.6312362
  82.8689607  27.7869059 106.4457985  82.0070639  28.8846782 105.8593623
  83.6494914  22.5353522 111.6775663  83.3144747  22.4954292 112.5733313
  83.1498860  21.8698238 111.2046074  77.6239158  17.9421152 117.2028244
  77.4858956  17.2101391 117.8039784  78.5344082  17.8530052 116.9212432
  86.5854106  19.8809556 101.9512723  85.9683276  19.1556385 101.8545776
  86.1170594  20.6418917 101.6079797  80.2521459  17.6541111 116.6911924
  80.9621077  17.0134304 116.6498543  80.2090767  17.9054006 117.6138105
  88.2408237  24.5908465 119.6118503  88.1820784  23.9067685 118.9449086
  88.6427756  25.3327455 119.1599129  78.9650393  14.6406329 118.5107564
  78.4287750  14.1897068 119.1629160  78.3767101  14.7752238 117.7678028
  77.2598936  31.4070379 112.4052222  77.4995534  32.0388903 113.0831241
  76.4168133  31.0558419 112.6917582  78.3752652  14.0994981 101.0734027
  77.4982118  13.9783782 100.7096274  78.8510405  13.3081059 100.8212916
  88.2425645  22.5548049 117.8432483  87.3552423  22.2173971 117.9658882
  88.8124196  21.8231080 118.0801248  69.8954792  18.8872140 111.1675534
  70.5825832  18.5733870 110.5796550  69.7402921  19.7913505 110.8942786
  74.6989514  13.7762337 115.5960558  74.6147703  13.1688007 114.8610968
  73.8772220  14.2671355 115.5970054  81.7726798  27.2149501 114.8093726
  81.6996970  28.0204473 115.3213031  81.3304191  27.4141467 113.9841748
  81.5616578  26.4521271 108.3196548  80.7784100  26.9942951 108.4134772
  82.2609323  26.9695251 108.7190789  84.8713228  12.2615901 110.9630753
  85.3681927  11.5085863 110.6431823  84.1000209  12.2980217 110.3973962
  92.7242985  17.9656266 112.6049045  92.7132861  18.8480982 112.2342978
  91.8560365  17.6127817 112.4103582  84.2325482  27.1136335 116.9651885
  84.9453454  27.7483800 116.8927786  83.7415510  27.2100201 116.1491887
  85.9543009  21.0187588 108.5369177  85.0199287  21.1389050 108.3673881
  86.1319677  20.1160055 108.2729186  81.4548197  14.4033284 110.6902438
  81.0845984  13.8504324 111.3783343  81.9507289  13.7991417 110.1377438
  89.3415560  16.8604907 109.0719211  89.8076012  17.6932899 108.9979513
  89.7923060  16.3949889 109.7764469  79.2837395  24.8630779 117.7857456
  79.9846855  25.4967262 117.9386850  78.8132510  25.2045510 117.0253095
  87.4091791  23.2048728 106.0705363  87.6851635  23.0905323 106.9799237
  86.5396290  22.8066213 106.0317536  87.3132223   9.2285494 113.1110112
  86.3995302   9.4589721 113.2792319  87.7425324   9.3123938 113.9624144
  87.0838681  17.4175386 115.6110006  86.4310131  17.6651293 114.9562459
  87.4619061  16.6039524 115.2772483  84.0445855  27.4535079 109.7138176
  84.2268250  26.6356735 110.1765929  84.8678841  27.6702771 109.2763066
  84.3788020  26.3803264 106.9753225  84.9075787  25.8695719 106.3623387
  84.6416240  26.0645795 107.8398758  83.1326254  18.1595197 122.0976043
  82.4566891  18.0589326 122.7678418  83.9553888  18.0034411 122.5612040
  74.8805113  24.3967134 114.7188558  75.4658550  23.6510822 114.8516463
  74.6829952  24.7071090 115.6025222  77.7343768  27.4318381 109.7351001
  77.0654144  27.9164509 109.2515041  77.5956638  27.6787601 110.6494379
  69.4722768  16.9672734 113.4393002  69.5106867  16.4336325 114.2330120
  68.9663061  16.4407939 112.8203979  81.8749037  29.4662125 116.3333659
  82.4267345  29.6293746 117.0982744  82.2155230  30.0566562 115.6613684
  76.8513530  11.8137274 116.9355544  76.9154857  12.6752105 116.5232942
  76.7880650  11.2011276 116.2027902  76.3265803  13.8860407 120.5828578
  76.9537842  13.5037484 121.1966102  75.4693722  13.6674609 120.9484271
  86.7259911  24.2923382 122.1882314  87.2699815  24.9053340 121.6937268
  86.1446756  24.8502960 122.7049327  73.1031346  15.6936836 106.5146933
  73.3984787  14.7847514 106.4613987  72.2019381  15.6724575 106.1927935
  85.0117424  27.4144100 113.3197341  84.8868564  26.6133840 112.8108287
  85.6696515  27.9090293 112.8311311  76.6325593  13.7692833 112.4974482
  75.9112178  14.3828800 112.3581955  77.4218848  14.3050597 112.4191127
  87.0752333  25.2153120 114.9476891  86.1282668  25.0958471 114.8755218
  87.4235106  24.3275618 115.0303153  79.4351906  11.1047259 118.7715133
  79.9586308  11.3509556 119.5341443  79.2164239  11.9367294 118.3518271
  74.8319187  13.3750934 106.6386258  74.5031893  12.4948313 106.4561364
  75.1858558  13.3198602 107.5262647  84.0798766  25.0105836 111.1481244
  83.9323728  24.0822544 111.3288814  84.9052259  25.0325927 110.6638319
  77.9461010  13.6623903 107.0061736  78.2857083  14.1909825 106.2840344
  78.3933131  14.0004310 107.7820302  87.6832888  25.8334395 112.2346116
  88.6079435  25.6277256 112.0970568  87.5148191  25.5850796 113.1435458
  80.6404451  12.0460954 116.4564804  80.3001271  11.2468767 116.8585484
  79.9343457  12.3462665 115.8841637  81.2920923   9.1310267 114.9092127
  82.1146992   8.6570745 114.7871017  81.5358986   9.9100750 115.4090813
  79.9329157  12.1598525 105.2055029  80.6537520  12.5379778 104.7018745
  79.3094462  12.8787402 105.3090006  84.0760280  12.8643674 106.1413361
  84.2923895  13.7468312 105.8402189  83.5954347  12.4729887 105.4119003
  78.8159502  15.8229387 112.7184105  78.6704082  16.1369690 113.6108387
  78.3384705  16.4414288 112.1655004  80.6755885  12.8131935 112.7664995
  80.6617453  11.9173029 112.4297293  81.3928313  12.8202599 113.4003281
  82.5282015  13.2469275 114.8118122  82.2699793  14.1686346 114.8102453
  81.9967056  12.8499710 115.5018587  87.4728204  26.3520063 107.5908208
  87.6465082  25.7866485 106.8382060  87.9657095  27.1520957 107.4087698
  73.2905164  18.3634732 115.6571767  72.7458632  19.1394540 115.7892041
  74.1684514  18.7105536 115.4990888  80.0792780  11.6946315 108.0352565
  80.2008692  10.7662962 108.2343453  79.7894823  11.7085001 107.1230881
  82.9483971   9.3801226 111.1719285  82.9705668   9.4440559 110.2171265
  83.3652030   8.5405735 111.3659791  93.3267595  19.1156485 109.2098508
  93.7698741  18.3663811 108.8117631  92.4494105  19.1066622 108.8272240
  88.4603377  25.6686827 104.6905106  89.1554281  26.2893520 104.9092421
  88.8026527  24.8182178 104.9657484  74.0771186  17.4904628 118.5501923
  73.3352922  17.6387263 119.1366554  73.7563930  17.7512893 117.6868673
  90.3594800  23.1186532 106.2192437  90.8846124  23.4573805 105.4941757
  90.2717152  22.1833548 106.0355571  82.0214848  27.0320606 118.3482313
  82.3301975  26.7869753 119.2205013  82.8190330  27.2367245 117.8601184
  82.0435460  29.1858516 110.5787690  81.6040451  28.6934894 111.2720547
  82.7943577  28.6431483 110.3379765  74.5227799  25.3770057 110.5812318
  75.3485819  25.0773828 110.2010962  74.1721851  24.6077679 111.0302107
  79.4909333  24.7296525 112.6509992  78.8689342  24.0667230 112.3512220
  80.1614199  24.7557657 111.9683639  72.7236404  23.2956383 111.5401252
  71.8868313  22.8678557 111.3585253  72.6960050  23.4888826 112.4772043
  79.5633860  13.2078313 122.2442498  79.6122015  14.0840436 121.8620267
  80.1056374  12.6655706 121.6714141  90.0488706  23.7519436 121.5243635
  89.2584249  23.7343575 120.9848134  89.8122060  24.2907730 122.2792671
  90.1686581  20.6011902 118.8376363  90.2184586  20.4361910 119.7791886
  90.0600504  19.7339161 118.4474244  79.0522839  23.2800448 106.1268452
  79.2010960  23.9635913 105.4735125  79.8589283  23.2605538 106.6417908
  87.4590343  16.5842830 120.1535670  88.3600206  16.4449295 119.8619668
  87.5338318  16.7497285 121.0933848  81.7933148  13.9609685 118.9988856
  80.9236458  14.2543251 118.7271445  82.0292629  14.5450130 119.7196120
  91.6704778  23.0208844 119.0818385  91.3789586  23.3838825 119.9181846
  91.0576909  22.3075852 118.9031717  92.8700460  20.5861724 111.6020955
  93.7047351  21.0251528 111.7658515  93.0059589  20.1100377 110.7829201
  89.9191966  18.1441459 117.5498443  90.3946087  18.3369105 116.7417294
  88.9957531  18.2000644 117.3041827  76.8075472  19.3065626 107.1329521
  76.5621514  18.4027956 107.3309731  76.9771387  19.3082776 106.1908999
  84.4972182  10.1789302 116.5154277  85.0154126  10.9150329 116.1900765
  84.1427315  10.4853295 117.3501036  76.0771120  15.0393983 104.6315683
  75.3840365  15.1138338 103.9755719  75.8322872  14.2754327 105.1537200
  84.7484776   6.5989585 112.0355173  85.0286530   5.9312774 112.6615600
  85.5335383   6.7918680 111.5229837  82.5518245  25.7748579 103.5980200
  81.9792212  26.3938766 103.1450672  83.1251039  26.3247940 104.1320122
  88.6193635  15.0207219 115.7826748  89.5711058  15.1205316 115.8038973
  88.4497085  14.2285487 116.2924833  86.6408014  12.1062802 115.9686149
  86.0457946  12.3867815 115.2732638  86.3557711  12.5956703 116.7402891
  85.7715505  26.0585729 104.7288782  86.7046178  25.9931290 104.9321657
  85.6838718  26.8941996 104.2703315  88.4003521  25.3751599 101.6892730
  88.3217153  25.0411463 102.5828487  89.2213188  25.8673367 101.6884202
  91.0981713  18.2413338 114.8969048  91.0658033  17.3029339 115.0828732
  91.7082336  18.3197375 114.1634873  82.9365043  17.1109391 100.9396252
  83.8824148  16.9815599 101.0084670  82.5579288  16.3724053 101.4165680
  91.2476201  15.0324382 114.9427331  90.7315250  14.2482838 114.7557260
  92.1316150  14.7043098 115.1073851  88.9086928   8.7765397 110.9023144
  88.7111749   8.4680486 111.7866476  89.5186634   9.5027036 111.0321074
  96.9158262  19.3029345 114.0375085  97.6461651  19.0414633 114.5982788
  96.3065208  18.5658067 114.0777153  94.9973560  17.4437208 114.6349536
  94.2706723  17.3093173 114.0266028  94.5820846  17.7514036 115.4406254
  82.8203736  21.1627137 122.3996909  83.7406745  21.3405737 122.5936956
  82.7853319  20.2183183 122.2476608  81.1207961  15.0359368 100.8751137
  80.2139416  14.7392480 100.9513851  81.3983942  14.7389186 100.0085424
  72.0385901  16.3565731 111.3250184  71.7188685  15.5031039 111.0324558
  71.4919329  16.5714309 112.0808151  75.8165809  19.0728172 115.0419690
  76.0351818  20.0045280 115.0607724  76.2291582  18.7136147 115.8274494
  82.7370026   9.5796257 107.0295379  81.9270755   9.2343342 107.4050625
  83.4254443   9.2703801 107.6182990  84.6660575   8.6574304 108.6519675
  85.2191613   9.0769758 109.3109698  84.9030661   7.7310052 108.6942631
  80.6893674  14.6461378 124.4322439  80.5890401  15.5955735 124.3634530
  80.4715216  14.3179617 123.5598509  79.8906745  11.8946303 101.0163117
  80.7525909  12.2201201 101.2758934  80.0757089  11.1077799 100.5036182
  71.9074161  19.9768643 113.2943305  71.2137632  19.5622595 112.7813260
  72.6547152  20.0189179 112.6976724  88.0439382  10.7674829 108.1598340
  87.4638051  11.4259633 107.7776392  87.7775314   9.9452174 107.7485757
  86.4942948  10.1679887 110.3619660  86.9942726  10.2796422 109.5533979
  87.1378556   9.8640940 111.0020468  80.5524944  18.0758517 123.2487501
  80.0692026  18.8758877 123.4551390  80.6385883  18.0866462 122.2954945
  73.8210904  19.9086896 111.1709320  73.7981592  20.0074584 110.2191203
  74.1311540  20.7552047 111.4926486  76.4798281  21.9663051 115.2855935
  77.4341535  21.9346994 115.2185866  76.2810805  21.5053675 116.1006161
  77.0697664  20.5364168 117.8526732  77.8890553  21.0308246 117.8761570
  77.3434471  19.6196136 117.8244300  86.8264260  12.9274920 107.2154688
  85.9390115  13.2124570 106.9974883  87.2418249  12.7668683 106.3681965
  90.1778796  12.9521441 110.9309027  90.9539186  13.4417893 111.2033644
  89.4526930  13.3779495 111.3880897  92.6151354  13.6649060 111.9882968
  93.2095845  13.4244796 111.2776276  92.6877938  12.9456191 112.6156504
  74.8348510  27.5082671 112.3026133  74.7002978  26.7483072 111.7364131
  74.4180572  28.2323571 111.8354921  85.9707473  22.6919594 101.3102708
  86.6743323  22.8969597 101.9260363  85.2470122  23.2596356 101.5751791
  86.8005283  18.4429456 107.4304978  86.7440485  18.8998007 106.5912610
  87.3533626  17.6820140 107.2527821  90.6110089  14.2319188 108.2555098
  90.3547024  13.8315823 109.0863305  89.9862957  14.9462982 108.1305237
  94.9222427  16.9715261 110.7626389  94.3621985  17.0408450 111.5357951
  94.3165931  16.7956245 110.0425885  77.9917636  28.4051988 112.5144575
  77.8750020  29.3497420 112.4123265  77.1710082  28.1025550 112.9030374
  87.8794171  23.1302124 103.3601168  88.7139775  22.6983322 103.1778643
  87.7178514  22.9584137 104.2878062  87.5340063  19.6334237 104.7257507
  87.4788867  19.4678508 103.7845951  86.9086118  20.3410270 104.8819697
  72.3232578  14.8702301 118.5518929  72.9691441  14.3601255 119.0406155
  72.1149729  15.6070983 119.1262355  84.8485970  21.9383149 124.0511070
  85.7177130  22.1123801 123.6897705  84.3692721  22.7577566 123.9286799
  80.8436188   9.1342346 104.3042826  80.8314858  10.0784186 104.4611096
  81.7359610   8.9512491 104.0102287  79.0172150  29.0580250 115.7300504
  79.9199397  29.0903860 116.0466999  78.7909520  28.1280701 115.7446839
  80.7725752  27.8111236 112.3910582  79.8221383  27.8113098 112.2774955
  81.0758238  27.0643971 111.8746617  84.6588308   5.7285123 108.5588762
  83.8920704   5.1743609 108.7045445  85.0699013   5.8006991 109.4202914
  76.6630069  12.0169918 122.6493944  77.5261530  11.6606723 122.8597268
  76.0895479  11.6783813 123.3369348  96.5078446  33.6471775 113.4556345
  97.1456856  33.5278522 112.7519685  96.3899289  34.5952619 113.5144297
  93.3168152  33.5999203 113.3917869  92.9786664  33.4840268 112.5038404
  94.1857920  33.1990368 113.3718875  89.1754968  35.4534679 109.3814760
  88.6119833  35.3624616 108.6131048  89.0607363  34.6334584 109.8617253
  93.7987935  34.7534055 119.3504075  93.7876576  34.3586853 118.4784579
  93.9608574  34.0200127 119.9437846  86.7219400  36.9485871 112.2198981
  87.5140692  36.6076696 111.8045280  86.9616050  37.0580846 113.1401134
  94.7554526  39.1205647 104.6929225  94.1042506  39.7059727 104.3063239
  95.5498889  39.6511842 104.7524263  88.6810154  36.2094784 105.0916360
  89.4541030  35.6623771 104.9529235  89.0335552  37.0739033 105.3030821
  90.5195196  37.5371166 118.2983259  90.2285062  38.4416797 118.1829925
  91.1552180  37.5787694 119.0127328  91.4451403  34.9148015 114.8884618
  92.0414975  34.6904037 114.1741581  91.5026375  34.1732760 115.4910066
  91.0176431  32.3687450 102.7234809  91.2701952  31.8468972 101.9618272
  90.0800990  32.2053596 102.8261493  96.0619714  31.3723229 110.5309553
  96.8482803  30.9542652 110.1799970  96.3258419  32.2769321 110.6991201
  96.2329792  36.8096079 105.2298210  95.5975625  36.8830705 105.9419114
  95.9027198  37.3989678 104.5517289 101.4628141  31.3098462 111.4342531
 102.1953313  30.7397679 111.6680361 100.7067497  30.9220062 111.8749037
  90.7372720  34.2715556 104.9259184  90.6208978  33.5960460 105.5940269
  90.8474980  33.7847930 104.1091337  93.0804261  33.7325703 108.6305874
  92.7162468  33.2056324 109.3418795  93.9371377  33.3424172 108.4572359
  98.9853562  25.0220036 115.8937140  98.6536886  25.8915447 115.6698355
  98.3899175  24.7056320 116.5731170  92.7209748  28.7615603 103.6267222
  92.8884150  29.6295839 103.9937693  92.5306917  28.9242885 102.7028511
  95.4785081  37.2232582 115.2933053  95.1785804  38.1257621 115.1848860
  95.1336141  36.9564765 116.1454205  88.9297563  33.6746379 111.3269757
  88.0048059  33.5422593 111.5347449  89.1781976  34.4540598 111.8239699
  98.8782225  29.7415122 112.9730490  97.9699102  29.6730531 112.6789251
  98.8269821  30.2187067 113.8012315  92.6998969  31.2173261 104.6113889
  92.5798594  31.6630311 105.4499369  92.0051557  31.5658578 104.0527427
  86.2906374  33.3179652 112.1613546  86.4198755  33.5714131 113.0752958
  85.6103825  33.9107360 111.8418201  90.4605861  43.9876902 108.2604020
  90.3829891  44.9384727 108.3392501  89.8567505  43.6422775 108.9178947
  92.9523091  31.1604768 120.9165387  92.1756425  31.7198688 120.9068252
  93.5913654  31.6461551 121.4380257 100.7443871  27.9431561 114.7508364
 100.1018252  28.2364094 114.1048158 100.2398800  27.8284481 115.5561560
  98.3984035  31.6894734 105.4394223  99.3101891  31.9222120 105.2641921
  97.8893682  32.2731778 104.8769302  91.2069463  33.9690221 120.4783354
  91.9484147  34.5075265 120.2018178  90.5006449  34.5956510 120.6354906
  96.6824803  36.1119362 119.0755516  97.0908159  35.6701772 118.3310148
  95.9602064  35.5371989 119.3289709  93.0355873  31.0491968 116.4489073
  93.8817068  31.4731382 116.5923722  92.9754510  30.3925593 117.1427636
  97.0053617  36.6720552 112.8307805  96.3762480  36.8366266 112.1283872
  96.6179279  37.0862162 113.6018769 100.8842849  37.6074990 110.1852168
 100.1993887  37.9873891 109.6349202 100.9686699  38.2170317 110.9184116
  96.1855318  28.7096337 118.1070246  95.9416250  29.4638397 117.5704522
  96.4615249  29.0881684 118.9417493  98.1393781  35.2534949 116.7847512
  98.3510676  35.8966709 116.1081893  98.0923529  34.4197266 116.3169442
  95.7420010  27.8652770 113.6884084  94.8804489  28.1634023 113.9800822
  95.7682444  28.0823169 112.7565117  92.5581579  36.4094960 110.0957890
  93.0219925  36.6882663 109.3062512  92.2938377  35.5078405 109.9130980
  89.4505660  35.9566442 113.0337653  90.0207017  36.3853710 112.3955137
  90.0413772  35.6749027 113.7321839  91.4950465  32.5318113 106.9047455
  92.1974509  32.9839156 107.3721381  91.1631094  31.8901931 107.5327348
  89.9430827  31.1229869 121.2798664  89.3129487  31.8046150 121.5134061
  89.8366915  31.0112951 120.3351802  85.2375799  30.7901665 112.2064588
  84.4474853  31.0459194 111.7304699  85.7287047  31.6050003 112.3116629
  99.2539609  38.1306904 114.9569869 100.0757053  37.7287092 114.6752551
  99.2502012  38.0275139 115.9085985  87.1890545  31.1546245 109.1648065
  86.3921708  31.2664939 109.6831561  86.9616137  31.4932897 108.2988956
  93.0196212  37.6790948 117.1130580  93.0840645  38.1411355 117.9488751
  92.3107136  37.0488313 117.2412889  83.5213502  31.0432156 114.6379579
  83.7721541  31.9279166 114.9037155  84.0573051  30.8636757 113.8654671
 107.3445602  34.4745653 111.3054841 106.5909310  33.9053051 111.1498845
 107.4793143  34.4408317 112.2525475  92.7344230  39.3459055 106.9809560
  92.5989905  40.1910591 107.4094408  93.2754042  39.5478333 106.2175494
  89.2211570  25.4250635 123.6423915  88.8278515  24.8716834 124.3171559
  90.0377710  25.7361214 124.0330433  86.1873627  36.8634493 107.5537485
  86.6998148  37.6577744 107.7043050  86.8396340  36.1660784 107.4871087
  87.9968512  39.9800250 109.6360238  88.1735140  40.9018214 109.4481222
  88.7925346  39.6658669 110.0654618  92.1379531  26.8408514 121.2344172
  92.8789244  27.4415667 121.1548634  92.3697453  26.0986152 120.6762214
  87.2820869  32.0264881 119.5122401  87.1674384  31.1250139 119.8129500
  86.4265386  32.2728578 119.1607218  94.3612706  39.9682622 121.1109902
  93.9176560  39.1819000 120.7930807  95.0229920  40.1561772 120.4453793
  89.1199827  41.4978423 115.6370581  89.6707253  41.3695487 114.8647574
  88.2811303  41.7973312 115.2865473  96.4593944  40.2485422 119.1391303
  96.4412420  41.0694303 118.6471572  97.3813864  40.1239497 119.3641444
  92.9166999  37.7629551 119.9814812  93.4495335  37.0017839 119.7514120
  92.3881080  37.4703203 120.7238966  96.0836693  22.8689617 115.5108453
  95.7400963  23.7591259 115.4347564  96.4515656  22.6791275 114.6478038
  84.1522544  35.1923148 108.3297056  84.9897766  35.6020156 108.1130763
  84.3300812  34.2522590 108.2997249  96.0486976  32.8598228 104.0180889
  95.5333600  33.6302833 104.2569276  95.7764285  32.1863364 104.6413950
  93.6334087  27.7047929 109.0766127  92.7775684  27.3154779 108.8971766
  94.0461039  27.7839890 108.2165912  95.1633234  25.2394272 113.4757687
  94.6598029  25.2024407 112.6625492  95.4563841  26.1487015 113.5354343
  91.4076120  25.3233002 112.4823868  92.2729117  25.1275811 112.1229758
  91.4753629  25.0943354 113.4093225 101.0221250  35.6130583 105.9534062
 100.2450693  35.2741742 105.5089224 101.7012731  35.6183206 105.2789027
  95.8373279  30.7325320 105.8440670  95.5323415  31.0471470 106.6950813
  96.7903722  30.8106740 105.8868003  94.2819711  36.8915544 107.4933624
  93.7541073  36.1568303 107.1806861  93.7807214  37.6690220 107.2473592
  99.2612557  35.0864564 112.6100670  98.6036232  35.7763826 112.6980799
 100.0652956  35.4760996 112.9534656  89.0138439  27.5535210 109.8540235
  89.5882191  27.3310391 109.1213428  89.6009421  27.6223904 110.6068837
  98.0718016  33.4408937 110.6604612  98.5849898  34.0738929 111.1626321
  98.7219240  32.8410132 110.2947972  89.3408026  29.5839671 103.8736120
  88.5045338  29.9214358 104.1945395  89.2012796  29.4488651 102.9363257
  91.3161107  24.4276459 108.5815305  90.6625519  24.1125476 107.9571919
  91.2741581  23.8052199 109.3075128  92.4272311  34.7095754 100.4968597
  91.5199373  34.4785007 100.6959746  92.9243343  33.9133373 100.6842578
  95.3340390  43.4193261 103.4165283  94.6602089  43.7224958 104.0250241
  95.7206212  44.2222341 103.0670740  94.5498847  30.9158392 112.9062952
  93.6321408  31.1373339 112.7484640  94.9658991  30.9904703 112.0474660
  95.3333895  32.3149808 108.0365633  96.0805714  32.8271205 107.7272755
  95.6025484  31.9933861 108.8970026  93.6060545  34.8108349 105.0192587
  92.6971764  34.5267382 105.1165057  93.6355629  35.2307427 104.1595894
  98.8379812  38.4214938 108.7883754  98.3842139  37.5805848 108.8448945
  98.2073779  39.0576337 109.1258535  97.7812732  29.3506924 110.0184422
  97.0435489  28.8384311 110.3494664  98.0339505  28.9107306 109.2067699
  97.2812752  40.2591435 109.7233573  97.5735726  40.8196492 109.0045938
  97.7911372  40.5519996 110.4786732  97.8824359  22.1283176 110.6126191
  98.1883236  21.2680540 110.3252106  98.6076964  22.7200797 110.4125185
  84.1748715  32.5313863 109.0007789  83.9773115  31.9383224 108.2758856
  83.6195379  32.2266073 109.7183728  92.1545439  32.4236969 111.1202382
  92.2094049  31.4710806 111.0444859  91.3436641  32.5796408 111.6043681
  93.3036633  36.3517092 102.3580665  92.8656063  35.6352951 101.8986303
  94.0447074  36.5793207 101.7965757  90.0937799  31.0414029 108.8792761
  89.2805664  31.3408200 109.2857953  90.5896793  30.6469718 109.5967243
  92.2446377  41.0371786 110.8127026  92.2022555  41.2632632 109.8835558
  93.1609076  40.8035161 110.9612827  95.6912010  31.5055854 117.7107655
  96.0461398  31.7327327 118.5702121  96.3384142  31.8374230 117.0884910
 101.4209747  34.6274289 108.4156984 101.2827646  34.8175885 107.4878173
 101.0645966  35.3893672 108.8725035  89.5851874  28.6132385 114.4953996
  90.2251253  28.4721144 113.7976959  88.7529404  28.3266898 114.1192598
 101.4479127  36.6950816 113.4268255 101.8815634  36.6026106 114.2751310
 102.1610708  36.6708317 112.7888271  90.3612177  37.9134815 110.6088988
  91.1552776  37.4185135 110.4071563  89.6503870  37.3852678 110.2456694
  95.1807022  40.2952911 114.9601356  95.2344044  40.8643847 115.7279072
  94.3121803  40.4654796 114.5955393  86.6694941  32.0577897 106.6848741
  85.7392529  31.9962352 106.9018703  86.7652413  31.5353850 105.8885382
  86.5880490  28.5832710 109.2726983  86.8487307  29.4978043 109.1636143
  87.4097662  28.1157152 109.4223596  88.0605415  29.9970467 116.4425807
  88.7328469  29.7887829 115.7938456  87.2335202  29.7992553 116.0031040
 102.3094677  36.7374517 115.9601141 102.5030567  37.6420328 116.2060416
 102.2095295  36.2781936 116.7939726  93.9630987  26.6232408 118.4591468
  93.3158902  27.3222357 118.3655945  94.7332003  27.0568552 118.8267716
  97.3709785  36.8881260 121.5342021  97.2195292  36.6591812 120.6172105
  97.3614465  37.8451861 121.5473366  94.1395122  34.4613173 116.5188288
  95.0687182  34.6124332 116.3457255  93.7186152  34.5497193 115.6636934
  92.9383453  38.4863837 114.2886826  92.7994539  38.1182621 115.1612764
  92.1498050  39.0011476 114.1170783  93.5331605  43.5872934 105.6312362
  93.7083361  43.1160977 106.4457985  92.8464393  44.2138700 105.8593623
  94.4888669  37.8645440 111.6775663  94.1538501  37.8246210 112.5733313
  93.9892614  37.1990156 111.2046074  88.4632913  33.2713070 117.2028244
  88.3252711  32.5393309 117.8039784  89.3737836  33.1821970 116.9212432
  97.4247860  35.2101474 101.9512723  96.8077031  34.4848302 101.8545776
  96.9564349  35.9710834 101.6079797  91.0915213  32.9833029 116.6911924
  91.8014832  32.3426221 116.6498543  91.0484521  33.2345924 117.6138105
  99.0801992  39.9200382 119.6118503  99.0214538  39.2359603 118.9449086
  99.4821510  40.6619372 119.1599129  89.8044147  29.9698247 118.5107564
  89.2681504  29.5188985 119.1629160  89.2160856  30.1044156 117.7678028
  88.0992691  46.7362296 112.4052222  88.3389289  47.3680820 113.0831241
  87.2561887  46.3850336 112.6917582  89.2146406  29.4286898 101.0734027
  88.3375872  29.3075699 100.7096274  89.6904159  28.6372977 100.8212916
  99.0819399  37.8839966 117.8432483  98.1946178  37.5465888 117.9658882
  99.6517950  37.1522998 118.0801248  80.7348546  34.2164058 111.1675534
  81.4219586  33.9025788 110.5796550  80.5796675  35.1205423 110.8942786
  85.5383268  29.1054255 115.5960558  85.4541457  28.4979924 114.8610968
  84.7165975  29.5963273 115.5970054  92.6120553  42.5441419 114.8093726
  92.5390724  43.3496390 115.3213031  92.1697946  42.7433385 113.9841748
  92.4010332  41.7813189 108.3196548  91.6177854  42.3234869 108.4134772
  93.1003077  42.2987168 108.7190789  95.7106982  27.5907818 110.9630753
  96.2075682  26.8377781 110.6431823  94.9393964  27.6272135 110.3973962
 103.5636740  33.2948184 112.6049045 103.5526616  34.1772899 112.2342978
 102.6954119  32.9419735 112.4103582  95.0719236  42.4428253 116.9651885
  95.7847208  43.0775718 116.8927786  94.5809265  42.5392119 116.1491887
  96.7936763  36.3479505 108.5369177  95.8593042  36.4680968 108.3673881
  96.9713431  35.4451972 108.2729186  92.2941951  29.7325201 110.6902438
  91.9239739  29.1796242 111.3783343  92.7901044  29.1283335 110.1377438
 100.1809314  32.1896825 109.0719211 100.6469767  33.0224816 108.9979513
 100.6316815  31.7241806 109.7764469  90.1231150  40.1922696 117.7857456
  90.8240609  40.8259179 117.9386850  89.6526265  40.5337428 117.0253095
  98.2485545  38.5340646 106.0705363  98.5245389  38.4197241 106.9799237
  97.3790044  38.1358131 106.0317536  98.1525977  24.5577412 113.1110112
  97.2389057  24.7881639 113.2792319  98.5819079  24.6415856 113.9624144
  97.9232436  32.7467304 115.6110006  97.2703886  32.9943211 114.9562459
  98.3012816  31.9331442 115.2772483  94.8839609  42.7826997 109.7138176
  95.0662004  41.9648653 110.1765929  95.7072595  42.9994689 109.2763066
  95.2181775  41.7095182 106.9753225  95.7469541  41.1987637 106.3623387
  95.4809995  41.3937712 107.8398758  93.9720009  33.4887115 122.0976043
  93.2960646  33.3881244 122.7678418  94.7947643  33.3326328 122.5612040
  85.7198868  39.7259051 114.7188558  86.3052305  38.9802739 114.8516463
  85.5223706  40.0363008 115.6025222  88.5737523  42.7610299 109.7351001
  87.9047898  43.2456426 109.2515041  88.4350393  43.0079519 110.6494379
  80.3116522  32.2964651 113.4393002  80.3500622  31.7628242 114.2330120
  79.8056815  31.7699857 112.8203979  92.7142792  44.7954042 116.3333659
  93.2661100  44.9585664 117.0982744  93.0548985  45.3858480 115.6613684
  87.6907285  27.1429192 116.9355544  87.7548611  28.0044023 116.5232942
  87.6274405  26.5303194 116.2027902  87.1659557  29.2152325 120.5828578
  87.7931596  28.8329402 121.1966102  86.3087476  28.9966526 120.9484271
  97.5653666  39.6215300 122.1882314  98.1093570  40.2345258 121.6937268
  96.9840511  40.1794878 122.7049327  83.9425100  31.0228754 106.5146933
  84.2378541  30.1139432 106.4613987  83.0413136  31.0016493 106.1927935
  95.8511179  42.7436018 113.3197341  95.7262318  41.9425758 112.8108287
  96.5090270  43.2382211 112.8311311  87.4719347  29.0984750 112.4974482
  86.7505933  29.7120718 112.3581955  88.2612603  29.6342515 112.4191127
  97.9146087  40.5445038 114.9476891  96.9676423  40.4250389 114.8755218
  98.2628860  39.6567536 115.0303153  90.2745661  26.4339177 118.7715133
  90.7980062  26.6801473 119.5341443  90.0557994  27.2659212 118.3518271
  85.6712942  28.7042851 106.6386258  85.3425648  27.8240230 106.4561364
  86.0252312  28.6490520 107.5262647  94.9192520  40.3397754 111.1481244
  94.7717483  39.4114461 111.3288814  95.7446014  40.3617845 110.6638319
  88.7854765  28.9915821 107.0061736  89.1250837  29.5201742 106.2840344
  89.2326885  29.3296227 107.7820302  98.5226642  41.1626313 112.2346116
  99.4473190  40.9569174 112.0970568  98.3541946  40.9142714 113.1435458
  91.4798206  27.3752872 116.4564804  91.1395026  26.5760685 116.8585484
  90.7737212  27.6754583 115.8841637  92.1314677  24.4602184 114.9092127
  92.9540747  23.9862662 114.7871017  92.3752741  25.2392668 115.4090813
  90.7722912  27.4890443 105.2055029  91.4931274  27.8671695 104.7018745
  90.1488216  28.2079320 105.3090006  94.9154035  28.1935592 106.1413361
  95.1317649  29.0760230 105.8402189  94.4348102  27.8021805 105.4119003
  89.6553256  31.1521305 112.7184105  89.5097837  31.4661608 113.6108387
  89.1778460  31.7706205 112.1655004  91.5149639  28.1423853 112.7664995
  91.5011208  27.2464946 112.4297293  92.2322067  28.1494517 113.4003281
  93.3675770  28.5761193 114.8118122  93.1093548  29.4978264 114.8102453
  92.8360810  28.1791628 115.5018587  98.3121959  41.6811980 107.5908208
  98.4858836  41.1158403 106.8382060  98.8050850  42.4812875 107.4087698
  84.1298918  33.6926649 115.6571767  83.5852386  34.4686457 115.7892041
  85.0078268  34.0397454 115.4990888  90.9186535  27.0238233 108.0352565
  91.0402446  26.0954879 108.2343453  90.6288577  27.0376919 107.1230881
  93.7877725  24.7093144 111.1719285  93.8099422  24.7732477 110.2171265
  94.2045784  23.8697652 111.3659791 104.1661350  34.4448403 109.2098508
 104.6092496  33.6955728 108.8117631 103.2887860  34.4358540 108.8272240
  99.2997131  40.9978745 104.6905106  99.9948036  41.6185437 104.9092421
  99.6420281  40.1474096 104.9657484  84.9164940  32.8196546 118.5501923
  84.1746676  32.9679181 119.1366554  84.5957684  33.0804811 117.6868673
 101.1988554  38.4478450 106.2192437 101.7239878  38.7865723 105.4941757
 101.1110907  37.5125465 106.0355571  92.8608603  42.3612524 118.3482313
  93.1695729  42.1161671 119.2205013  93.6584085  42.5659162 117.8601184
  92.8829215  44.5150433 110.5787690  92.4434205  44.0226812 111.2720547
  93.6337332  43.9723401 110.3379765  85.3621554  40.7061974 110.5812318
  86.1879574  40.4065746 110.2010962  85.0115606  39.9369597 111.0302107
  90.3303087  40.0588443 112.6509992  89.7083096  39.3959148 112.3512220
  91.0007954  40.0849574 111.9683639  83.5630159  38.6248301 111.5401252
  82.7262067  38.1970475 111.3585253  83.5353804  38.8180744 112.4772043
  90.4027615  28.5370231 122.2442498  90.4515770  29.4132353 121.8620267
  90.9450129  27.9947624 121.6714141 100.8882460  39.0811354 121.5243635
 100.0978004  39.0635493 120.9848134 100.6515815  39.6199647 122.2792671
 101.0080335  35.9303820 118.8376363 101.0578340  35.7653828 119.7791886
 100.8994259  35.0631079 118.4474244  89.8916594  38.6092366 106.1268452
  90.0404714  39.2927830 105.4735125  90.6983037  38.5897456 106.6417908
  98.2984098  31.9134748 120.1535670  99.1993960  31.7741213 119.8619668
  98.3732072  32.0789203 121.0933848  92.6326903  29.2901603 118.9988856
  91.7630212  29.5835169 118.7271445  92.8686383  29.8742048 119.7196120
 102.5098532  38.3500762 119.0818385 102.2183340  38.7130742 119.9181846
 101.8970663  37.6367770 118.9031717 103.7094214  35.9153641 111.6020955
 104.5441106  36.3543446 111.7658515 103.8453343  35.4392295 110.7829201
 100.7585720  33.4733376 117.5498443 101.2339842  33.6661023 116.7417294
  99.8351286  33.5292562 117.3041827  87.6469227  34.6357543 107.1329521
  87.4015269  33.7319873 107.3309731  87.8165141  34.6374694 106.1908999
  95.3365937  25.5081220 116.5154277  95.8547881  26.2442247 116.1900765
  94.9821070  25.8145213 117.3501036  86.9164874  30.3685901 104.6315683
  86.2234119  30.4430256 103.9755719  86.6716626  29.6046245 105.1537200
  95.5878531  21.9281502 112.0355173  95.8680285  21.2604691 112.6615600
  96.3729138  22.1210598 111.5229837  93.3911999  41.1040496 103.5980200
  92.8185967  41.7230683 103.1450672  93.9644793  41.6539858 104.1320122
  99.4587389  30.3499136 115.7826748 100.4104812  30.4497234 115.8038973
  99.2890840  29.5577405 116.2924833  97.4801769  27.4354720 115.9686149
  96.8851701  27.7159732 115.2732638  97.1951465  27.9248621 116.7402891
  96.6109259  41.3877646 104.7288782  97.5439932  41.3223208 104.9321657
  96.5232472  42.2233913 104.2703315  99.2397276  40.7043517 101.6892730
  99.1610907  40.3703380 102.5828487 100.0606943  41.1965285 101.6884202
 101.9375467  33.5705256 114.8969048 101.9051787  32.6321257 115.0828732
 102.5476091  33.6489293 114.1634873  93.7758798  32.4401309 100.9396252
  94.7217903  32.3107517 101.0084670  93.3973043  31.7015971 101.4165680
 102.0869956  30.3616299 114.9427331 101.5709004  29.5774756 114.7557260
 102.9709904  30.0335016 115.1073851  99.7480682  24.1057315 110.9023144
  99.5505504  23.7972403 111.7866476 100.3580388  24.8318954 111.0321074
 107.7552017  34.6321263 114.0375085 108.4855405  34.3706551 114.5982788
 107.1458962  33.8949985 114.0777153 105.8367314  32.7729125 114.6349536
 105.1100478  32.6385090 114.0266028 105.4214601  33.0805954 115.4406254
  93.6597490  36.4919055 122.3996909  94.5800500  36.6697654 122.5936956
  93.6247074  35.5475101 122.2476608  91.9601715  30.3651285 100.8751137
  91.0533171  30.0684398 100.9513851  92.2377696  30.0681104 100.0085424
  82.8779655  31.6857649 111.3250184  82.5582440  30.8322957 111.0324558
  82.3313084  31.9006227 112.0808151  86.6559563  34.4020090 115.0419690
  86.8745573  35.3337198 115.0607724  87.0685337  34.0428064 115.8274494
  93.5763781  24.9088175 107.0295379  92.7664509  24.5635260 107.4050625
  94.2648198  24.5995719 107.6182990  95.5054329  23.9866222 108.6519675
  96.0585368  24.4061675 109.3109698  95.7424415  23.0601970 108.6942631
  91.5287428  29.9753296 124.4322439  91.4284155  30.9247653 124.3634530
  91.3108970  29.6471534 123.5598509  90.7300500  27.2238221 101.0163117
  91.5919664  27.5493119 101.2758934  90.9150844  26.4369717 100.5036182
  82.7467915  35.3060560 113.2943305  82.0531387  34.8914513 112.7813260
  83.4940906  35.3481097 112.6976724  98.8833136  26.0966747 108.1598340
  98.3031805  26.7551551 107.7776392  98.6169069  25.2744092 107.7485757
  97.3336703  25.4971805 110.3619660  97.8336481  25.6088339 109.5533979
  97.9772311  25.1932858 111.0020468  91.3918698  33.4050434 123.2487501
  90.9085780  34.2050795 123.4551390  91.4779637  33.4158379 122.2954945
  84.6604658  35.2378814 111.1709320  84.6375346  35.3366501 110.2191203
  84.9705295  36.0843965 111.4926486  87.3192036  37.2954969 115.2855935
  88.2735289  37.2638911 115.2185866  87.1204559  36.8345593 116.1006161
  87.9091418  35.8656085 117.8526732  88.7284307  36.3600164 117.8761570
  88.1828226  34.9488053 117.8244300  97.6658014  28.2566837 107.2154688
  96.7783869  28.5416488 106.9974883  98.0812003  28.0960601 106.3681965
 101.0172550  28.2813358 110.9309027 101.7932940  28.7709811 111.2033644
 100.2920685  28.7071413 111.3880897 103.4545109  28.9940978 111.9882968
 104.0489600  28.7536714 111.2776276 103.5271693  28.2748108 112.6156504
  85.6742265  42.8374589 112.3026133  85.5396733  42.0774990 111.7364131
  85.2574327  43.5615488 111.8354921  96.8101228  38.0211512 101.3102708
  97.5137078  38.2261515 101.9260363  96.0863876  38.5888274 101.5751791
  97.6399038  33.7721373 107.4304978  97.5834239  34.2289925 106.5912610
  98.1927380  33.0112058 107.2527821 101.4503844  29.5611105 108.2555098
 101.1940778  29.1607741 109.0863305 100.8256712  30.2754899 108.1305237
 105.7616182  32.3007179 110.7626389 105.2015740  32.3700368 111.5357951
 105.1559685  32.1248163 110.0425885  88.8311391  43.7343906 112.5144575
  88.7143775  44.6789338 112.4123265  88.0103837  43.4317467 112.9030374
  98.7187925  38.4594041 103.3601168  99.5533529  38.0275240 103.1778643
  98.5572268  38.2876055 104.2878062  98.3733817  34.9626155 104.7257507
  98.3182621  34.7970426 103.7845951  97.7479873  35.6702188 104.8819697
  83.1626332  30.1994219 118.5518929  83.8085196  29.6893173 119.0406155
  82.9543483  30.9362901 119.1262355  95.6879724  37.2675067 124.0511070
  96.5570884  37.4415719 123.6897705  95.2086476  38.0869483 123.9286799
  91.6829943  24.4634264 104.3042826  91.6708613  25.4076104 104.4611096
  92.5753365  24.2804409 104.0102287  89.8565905  44.3872168 115.7300504
  90.7593151  44.4195778 116.0466999  89.6303275  43.4572618 115.7446839
  91.6119507  43.1403154 112.3910582  90.6615138  43.1405016 112.2774955
  91.9151993  42.3935889 111.8746617  95.4982062  21.0577040 108.5588762
  94.7314458  20.5035527 108.7045445  95.9092767  21.1298909 109.4202914
  87.5023823  27.3461836 122.6493944  88.3655285  26.9898641 122.8597268
  86.9289234  27.0075731 123.3369348 107.3472200  48.9763692 113.4556345
 107.9850610  48.8570440 112.7519685 107.2293043  49.9244536 113.5144297
 104.1561906  48.9291121 113.3917869 103.8180418  48.8132185 112.5038404
 105.0251675  48.5282286 113.3718875 100.0148722  50.7826597 109.3814760
  99.4513587  50.6916534 108.6131048  99.9001117  49.9626501 109.8617253
 104.6381689  50.0825972 119.3504075 104.6270330  49.6878771 118.4784579
 104.8002329  49.3492045 119.9437846  97.5613154  52.2777789 112.2198981
  98.3534446  51.9368613 111.8045280  97.8009804  52.3872764 113.1401134
 105.5948281  54.4497565 104.6929225 104.9436261  55.0351645 104.3063239
 106.3892644  54.9803760 104.7524263  99.5203908  51.5386702 105.0916360
 100.2934784  50.9915689 104.9529235  99.8729307  52.4030951 105.3030821
 101.3588951  52.8663084 118.2983259 101.0678817  53.7708715 118.1829925
 101.9945935  52.9079612 119.0127328 102.2845157  50.2439933 114.8884618
 102.8808730  50.0195955 114.1741581 102.3420129  49.5024678 115.4910066
 101.8570186  47.6979368 102.7234809 102.1095707  47.1760889 101.9618272
 100.9194745  47.5345513 102.8261493 106.9013469  46.7015146 110.5309553
 107.6876558  46.2834569 110.1799970 107.1652173  47.6061239 110.6991201
 107.0723546  52.1387997 105.2298210 106.4369379  52.2122623 105.9419114
 106.7420952  52.7281595 104.5517289 112.3021896  46.6390380 111.4342531
 113.0347068  46.0689596 111.6680361 111.5461252  46.2511980 111.8749037
 101.5766475  49.6007474 104.9259184 101.4602733  48.9252377 105.5940269
 101.6868734  49.1139848 104.1091337 103.9198016  49.0617621 108.6305874
 103.5556223  48.5348242 109.3418795 104.7765131  48.6716090 108.4572359
 109.8247316  40.3511954 115.8937140 109.4930641  41.2207365 115.6698355
 109.2292930  40.0348238 116.5731170 103.5603503  44.0907521 103.6267222
 103.7277905  44.9587757 103.9937693 103.3700672  44.2534802 102.7028511
 106.3178836  52.5524500 115.2933053 106.0179559  53.4549538 115.1848860
 105.9729895  52.2856683 116.1454205  99.7691317  49.0038296 111.3269757
  98.8441814  48.8714511 111.5347449 100.0175730  49.7832516 111.8239699
 109.7175979  45.0707040 112.9730490 108.8092857  45.0022448 112.6789251
 109.6663575  45.5478985 113.8012315 103.5392723  46.5465178 104.6113889
 103.4192349  46.9922229 105.4499369 102.8445312  46.8950496 104.0527427
  97.1300128  48.6471570 112.1613546  97.2592509  48.9006049 113.0752958
  96.4497580  49.2399278 111.8418201 101.2999615  59.3168820 108.2604020
 101.2223645  60.2676645 108.3392501 100.6961259  58.9714692 108.9178947
 103.7916845  46.4896685 120.9165387 103.0150179  47.0490606 120.9068252
 104.4307408  46.9753468 121.4380257 111.5837626  43.2723478 114.7508364
 110.9412006  43.5656011 114.1048158 111.0792554  43.1576399 115.5561560
 109.2377790  47.0186651 105.4394223 110.1495646  47.2514038 105.2641921
 108.7287437  47.6023696 104.8769302 102.0463218  49.2982139 120.4783354
 102.7877902  49.8367183 120.2018178 101.3400203  49.9248428 120.6354906
 107.5218557  51.4411279 119.0755516 107.9301913  50.9993690 118.3310148
 106.7995819  50.8663907 119.3289709 103.8749627  46.3783886 116.4489073
 104.7210822  46.8023300 116.5923722 103.8148265  45.7217510 117.1427636
 107.8447372  52.0012470 112.8307805 107.2156234  52.1658184 112.1283872
 107.4573034  52.4154079 113.6018769 111.7236604  52.9366908 110.1852168
 111.0387642  53.3165809 109.6349202 111.8080453  53.5462234 110.9184116
 107.0249073  44.0388254 118.1070246 106.7810004  44.7930315 117.5704522
 107.3009003  44.4173602 118.9417493 108.9787535  50.5826867 116.7847512
 109.1904431  51.2258627 116.1081893 108.9317284  49.7489183 116.3169442
 106.5813764  43.1944687 113.6884084 105.7198243  43.4925941 113.9800822
 106.6076199  43.4115086 112.7565117 103.3975334  51.7386878 110.0957890
 103.8613679  52.0174581 109.3062512 103.1332132  50.8370323 109.9130980
 100.2899415  51.2858359 113.0337653 100.8600772  51.7145628 112.3955137
 100.8807527  51.0040944 113.7321839 102.3344220  47.8610030 106.9047455
 103.0368263  48.3131074 107.3721381 102.0024848  47.2193849 107.5327348
 100.7824581  46.4521787 121.2798664 100.1523242  47.1338068 121.5134061
 100.6760669  46.3404869 120.3351802  96.0769554  46.1193583 112.2064588
  95.2868608  46.3751112 111.7304699  96.5680801  46.9341921 112.3116629
 110.0933363  53.4598822 114.9569869 110.9150807  53.0579009 114.6752551
 110.0895766  53.3567056 115.9085985  98.0284299  46.4838162 109.1648065
  97.2315462  46.5956856 109.6831561  97.8009891  46.8224814 108.2988956
 103.8589967  53.0082865 117.1130580 103.9234399  53.4703273 117.9488751
 103.1500891  52.3780230 117.2412889  94.3607257  46.3724073 114.6379579
  94.6115295  47.2571083 114.9037155  94.8966805  46.1928675 113.8654671
 118.1839356  49.8037571 111.3054841 117.4303065  49.2344969 111.1498845
 118.3186898  49.7700235 112.2525475 103.5737984  54.6750973 106.9809560
 103.4383659  55.5202509 107.4094408 104.1147797  54.8770251 106.2175494
 100.0605324  40.7542553 123.6423915  99.6672270  40.2008751 124.3171559
 100.8771464  41.0653131 124.0330433  97.0267382  52.1926411 107.5537485
  97.5391902  52.9869661 107.7043050  97.6790095  51.4952701 107.4871087
  98.8362267  55.3092167 109.6360238  99.0128895  56.2310132 109.4481222
  99.6319100  54.9950586 110.0654618 102.9773285  42.1700432 121.2344172
 103.7182998  42.7707585 121.1548634 103.2091208  41.4278070 120.6762214
  98.1214623  47.3556799 119.5122401  98.0068138  46.4542056 119.8129500
  97.2659141  47.6020496 119.1607218 105.2006461  55.2974539 121.1109902
 104.7570315  54.5110918 120.7930807 105.8623674  55.4853690 120.4453793
  99.9593582  56.8270341 115.6370581 100.5101007  56.6987404 114.8647574
  99.1205058  57.1265230 115.2865473 107.2987699  55.5777339 119.1391303
 107.2806174  56.3986220 118.6471572 108.2207619  55.4531415 119.3641444
 103.7560753  53.0921469 119.9814812 104.2889090  52.3309757 119.7514120
 103.2274834  52.7995121 120.7238966 106.9230448  38.1981535 115.5108453
 106.5794717  39.0883176 115.4347564 107.2909411  38.0083192 114.6478038
  94.9916299  50.5215065 108.3297056  95.8291521  50.9312074 108.1130763
  95.1694566  49.5814507 108.2997249 106.8880731  48.1890146 104.0180889
 106.3727354  48.9594751 104.2569276 106.6158039  47.5155282 104.6413950
 104.4727842  43.0339847 109.0766127 103.6169438  42.6446697 108.8971766
 104.8854793  43.1131808 108.2165912 106.0026988  40.5686190 113.4757687
 105.4991784  40.5316325 112.6625492 106.2957595  41.4778933 113.5354343
 102.2469874  40.6524920 112.4823868 103.1122871  40.4567728 112.1229758
 102.3147383  40.4235271 113.4093225 111.8615005  50.9422501 105.9534062
 111.0844448  50.6033660 105.5089224 112.5406486  50.9475124 105.2789027
 106.6767034  46.0617238 105.8440670 106.3717169  46.3763387 106.6950813
 107.6297476  46.1398658 105.8868003 105.1213466  52.2207461 107.4933624
 104.5934827  51.4860221 107.1806861 104.6200968  52.9982138 107.2473592
 110.1006312  50.4156482 112.6100670 109.4429986  51.1055743 112.6980799
 110.9046711  50.8052914 112.9534656  99.8532193  42.8827128 109.8540235
 100.4275945  42.6602309 109.1213428 100.4403176  42.9515822 110.6068837
 108.9111771  48.7700855 110.6604612 109.4243652  49.4030846 111.1626321
 109.5612994  48.1702050 110.2947972 100.1801780  44.9131589 103.8736120
  99.3439093  45.2506275 104.1945395 100.0406550  44.7780568 102.9363257
 102.1554861  39.7568377 108.5815305 101.5019273  39.4417394 107.9571919
 102.1135335  39.1344117 109.3075128 103.2666066  50.0387672 100.4968597
 102.3593128  49.8076925 100.6959746 103.7637098  49.2425291 100.6842578
 106.1734145  58.7485179 103.4165283 105.4995844  59.0516876 104.0250241
 106.5599967  59.5514259 103.0670740 105.3892601  46.2450310 112.9062952
 104.4715163  46.4665257 112.7484640 105.8052745  46.3196621 112.0474660
 106.1727649  47.6441726 108.0365633 106.9199468  48.1563123 107.7272755
 106.4419239  47.3225778 108.8970026 104.4454299  50.1400266 105.0192587
 103.5365519  49.8559299 105.1165057 104.4749383  50.5599345 104.1595894
 109.6773567  53.7506856 108.7883754 109.2235894  52.9097766 108.8448945
 109.0467533  54.3868254 109.1258535 108.6206486  44.6798842 110.0184422
 107.8829243  44.1676228 110.3494664 108.8733260  44.2399224 109.2067699
 108.1206506  55.5883353 109.7233573 108.4129480  56.1488410 109.0045938
 108.6305127  55.8811914 110.4786732 108.7218114  37.4575094 110.6126191
 109.0276990  36.5972457 110.3252106 109.4470718  38.0492714 110.4125185
  95.0142470  47.8605781 109.0007789  94.8166870  47.2675141 108.2758856
  94.4589134  47.5557991 109.7183728 102.9939193  47.7528887 111.1202382
 103.0487803  46.8002723 111.0444859 102.1830395  47.9088326 111.6043681
 104.1430387  51.6809010 102.3580665 103.7049817  50.9644869 101.8986303
 104.8840828  51.9085125 101.7965757 100.9331553  46.3705947 108.8792761
 100.1199419  46.6700117 109.2857953 101.4290547  45.9761636 109.5967243
 103.0840131  56.3663704 110.8127026 103.0416310  56.5924550 109.8835558
 104.0002830  56.1327078 110.9612827 106.5305765  46.8347771 117.7107655
 106.8855153  47.0619244 118.5702121 107.1777896  47.1666148 117.0884910
 112.2603502  49.9566207 108.4156984 112.1221401  50.1467803 107.4878173
 111.9039721  50.7185590 108.8725035 100.4245628  43.9424302 114.4953996
 101.0645007  43.8013061 113.7976959  99.5923159  43.6558816 114.1192598
 112.2872882  52.0242734 113.4268255 112.7209388  51.9318023 114.2751310
 113.0004462  52.0000235 112.7888271 101.2005932  53.2426733 110.6088988
 101.9946530  52.7477053 110.4071563 100.4897624  52.7144596 110.2456694
 106.0200776  55.6244828 114.9601356 106.0737799  56.1935765 115.7279072
 105.1515558  55.7946713 114.5955393  97.5088695  47.3869814 106.6848741
  96.5786284  47.3254270 106.9018703  97.6046167  46.8645767 105.8885382
  97.4274244  43.9124627 109.2726983  97.6881062  44.8269961 109.1636143
  98.2491417  43.4449070 109.4223596  98.8999170  45.3262384 116.4425807
  99.5722223  45.1179747 115.7938456  98.0728956  45.1284470 116.0031040
 113.1488431  52.0666435 115.9601141 113.3424321  52.9712245 116.2060416
 113.0489049  51.6073854 116.7939726 104.8024742  41.9524325 118.4591468
 104.1552657  42.6514275 118.3655945 105.5725757  42.3860469 118.8267716
 108.2103540  52.2173178 121.5342021 108.0589046  51.9883729 120.6172105
 108.2008219  53.1743779 121.5473366 104.9788876  49.7905090 116.5188288
 105.9080936  49.9416250 116.3457255 104.5579906  49.8789111 115.6636934
 103.7777208  53.8155755 114.2886826 103.6388294  53.4474539 115.1612764
 102.9891804  54.3303394 114.1170783 104.3725360  58.9164851 105.6312362
 104.5477116  58.4452894 106.4457985 103.6858148  59.5430617 105.8593623
 105.3282423  53.1937357 111.6775663 104.9932256  53.1538127 112.5733313
 104.8286369  52.5282073 111.2046074  99.3026667  48.6004987 117.2028244
  99.1646465  47.8685226 117.8039784 100.2131591  48.5113888 116.9212432
 108.2641615  50.5393392 101.9512723 107.6470785  49.8140220 101.8545776
 107.7958103  51.3002752 101.6079797 101.9308968  48.3124947 116.6911924
 102.6408586  47.6718139 116.6498543 101.8878276  48.5637842 117.6138105
 109.9195746  55.2492300 119.6118503 109.8608293  54.5651520 118.9449086
 110.3215265  55.9911290 119.1599129 100.6437902  45.2990165 118.5107564
 100.1075259  44.8480903 119.1629160 100.0554610  45.4336074 117.7678028
  98.9386445  62.0654214 112.4052222  99.1783043  62.6972738 113.0831241
  98.0955642  61.7142254 112.6917582 100.0540161  44.7578816 101.0734027
  99.1769627  44.6367617 100.7096274 100.5297914  43.9664894 100.8212916
 109.9213154  53.2131884 117.8432483 109.0339932  52.8757806 117.9658882
 110.4911705  52.4814915 118.0801248  91.5742301  49.5455976 111.1675534
  92.2613341  49.2317706 110.5796550  91.4190429  50.4497340 110.8942786
  96.3777023  44.4346172 115.5960558  96.2935212  43.8271842 114.8610968
  95.5559729  44.9255191 115.5970054 103.4514307  57.8733336 114.8093726
 103.3784479  58.6788308 115.3213031 103.0091700  58.0725302 113.9841748
 103.2404087  57.1105106 108.3196548 102.4571609  57.6526787 108.4134772
 103.9396832  57.6279086 108.7190789 106.5500737  42.9199736 110.9630753
 107.0469436  42.1669698 110.6431823 105.7787718  42.9564053 110.3973962
 114.4030494  48.6240101 112.6049045 114.3920370  49.5064817 112.2342978
 113.5347874  48.2711652 112.4103582 105.9112991  57.7720170 116.9651885
 106.6240963  58.4067635 116.8927786 105.4203019  57.8684036 116.1491887
 107.6330517  51.6771423 108.5369177 106.6986796  51.7972886 108.3673881
 107.8107186  50.7743890 108.2729186 103.1335706  45.0617119 110.6902438
 102.7633493  44.5088159 111.3783343 103.6294798  44.4575252 110.1377438
 111.0203069  47.5188742 109.0719211 111.4863521  48.3516734 108.9979513
 111.4710569  47.0533724 109.7764469 100.9624904  55.5214614 117.7857456
 101.6634364  56.1551097 117.9386850 100.4920019  55.8629345 117.0253095
 109.0879300  53.8632564 106.0705363 109.3639144  53.7489158 106.9799237
 108.2183799  53.4650049 106.0317536 108.9919732  39.8869329 113.1110112
 108.0782811  40.1173556 113.2792319 109.4212833  39.9707773 113.9624144
 108.7626190  48.0759221 115.6110006 108.1097640  48.3235129 114.9562459
 109.1406570  47.2623360 115.2772483 105.7233364  58.1118915 109.7138176
 105.9055759  57.2940570 110.1765929 106.5466350  58.3286607 109.2763066
 106.0575529  57.0387100 106.9753225 106.5863296  56.5279554 106.3623387
 106.3203749  56.7229630 107.8398758 104.8113763  48.8179032 122.0976043
 104.1354400  48.7173162 122.7678418 105.6341397  48.6618246 122.5612040
  96.5592622  55.0550969 114.7188558  97.1446059  54.3094657 114.8516463
  96.3617461  55.3654926 115.6025222  99.4131277  58.0902216 109.7351001
  98.7441653  58.5748344 109.2515041  99.2744147  58.3371437 110.6494379
  91.1510277  47.6256569 113.4393002  91.1894376  47.0920160 114.2330120
  90.6450570  47.0991775 112.8203979 103.5536546  60.1245960 116.3333659
 104.1054854  60.2877581 117.0982744 103.8942739  60.7150398 115.6613684
  98.5301039  42.4721110 116.9355544  98.5942366  43.3335941 116.5232942
  98.4668159  41.8595111 116.2027902  98.0053312  44.5444242 120.5828578
  98.6325351  44.1621320 121.1966102  97.1481231  44.3258444 120.9484271
 108.4047420  54.9507217 122.1882314 108.9487324  55.5637176 121.6937268
 107.8234265  55.5086796 122.7049327  94.7818855  46.3520671 106.5146933
  95.0772296  45.4431350 106.4613987  93.8806890  46.3308411 106.1927935
 106.6904933  58.0727935 113.3197341 106.5656073  57.2717675 112.8108287
 107.3484024  58.5674129 112.8311311  98.3113102  44.4276668 112.4974482
  97.5899687  45.0412636 112.3581955  99.1006357  44.9634433 112.4191127
 108.7539842  55.8736955 114.9476891 107.8070177  55.7542307 114.8755218
 109.1022615  54.9859454 115.0303153 101.1139415  41.7631094 118.7715133
 101.6373817  42.0093391 119.5341443 100.8951748  42.5951129 118.3518271
  96.5106696  44.0334769 106.6386258  96.1819402  43.1532148 106.4561364
  96.8646067  43.9782438 107.5262647 105.7586275  55.6689672 111.1481244
 105.6111237  54.7406379 111.3288814 106.5839768  55.6909762 110.6638319
  99.6248519  44.3207739 107.0061736  99.9644592  44.8493660 106.2840344
 100.0720640  44.6588145 107.7820302 109.3620397  56.4918230 112.2346116
 110.2866944  56.2861092 112.0970568 109.1935700  56.2434632 113.1435458
 102.3191960  42.7044790 116.4564804 101.9788780  41.9052603 116.8585484
 101.6130966  43.0046500 115.8841637 102.9708432  39.7894102 114.9092127
 103.7934501  39.3154580 114.7871017 103.2146495  40.5684586 115.4090813
 101.6116666  42.8182360 105.2055029 102.3325029  43.1963613 104.7018745
 100.9881971  43.5371237 105.3090006 105.7547789  43.5227509 106.1413361
 105.9711404  44.4052147 105.8402189 105.2741856  43.1313723 105.4119003
 100.4947011  46.4813223 112.7184105 100.3491591  46.7953526 113.6108387
 100.0172214  47.0998123 112.1655004 102.3543394  43.4715771 112.7664995
 102.3404962  42.5756864 112.4297293 103.0715822  43.4786434 113.4003281
 104.2069524  43.9053111 114.8118122 103.9487302  44.8270181 114.8102453
 103.6754565  43.5083545 115.5018587 109.1515713  57.0103898 107.5908208
 109.3252591  56.4450320 106.8382060 109.6444604  57.8104793 107.4087698
  94.9692673  49.0218567 115.6571767  94.4246141  49.7978375 115.7892041
  95.8472023  49.3689371 115.4990888 101.7580289  42.3530151 108.0352565
 101.8796201  41.4246797 108.2343453 101.4682332  42.3668837 107.1230881
 104.6271480  40.0385061 111.1719285 104.6493177  40.1024394 110.2171265
 105.0439539  39.1989570 111.3659791 115.0055104  49.7740321 109.2098508
 115.4486250  49.0247646 108.8117631 114.1281614  49.7650457 108.8272240
 110.1390885  56.3270662 104.6905106 110.8341790  56.9477355 104.9092421
 110.4814036  55.4766014 104.9657484  95.7558695  48.1488463 118.5501923
  95.0140431  48.2971099 119.1366554  95.4351439  48.4096729 117.6868673
 112.0382309  53.7770368 106.2192437 112.5633633  54.1157641 105.4941757
 111.9504661  52.8417383 106.0355571 103.7002357  57.6904441 118.3482313
 104.0089484  57.4453588 119.2205013 104.4977839  57.8951080 117.8601184
 103.7222969  59.8442351 110.5787690 103.2827960  59.3518730 111.2720547
 104.4731086  59.3015319 110.3379765  96.2015308  56.0353892 110.5812318
  97.0273328  55.7357664 110.2010962  95.8509360  55.2661514 111.0302107
 101.1696842  55.3880360 112.6509992 100.5476851  54.7251065 112.3512220
 101.8401708  55.4141492 111.9683639  94.4023913  53.9540218 111.5401252
  93.5655822  53.5262393 111.3585253  94.3747559  54.1472662 112.4772043
 101.2421369  43.8662148 122.2442498 101.2909524  44.7424271 121.8620267
 101.7843883  43.3239541 121.6714141 111.7276215  54.4103271 121.5243635
 110.9371758  54.3927410 120.9848134 111.4909569  54.9491565 122.2792671
 111.8474090  51.2595738 118.8376363 111.8972095  51.0945745 119.7791886
 111.7388013  50.3922997 118.4474244 100.7310348  53.9384284 106.1268452
 100.8798469  54.6219748 105.4735125 101.5376792  53.9189374 106.6417908
 109.1377852  47.2426666 120.1535670 110.0387715  47.1033131 119.8619668
 109.2125827  47.4081121 121.0933848 103.4720657  44.6193521 118.9988856
 102.6023967  44.9127087 118.7271445 103.7080138  45.2033966 119.7196120
 113.3492287  53.6792679 119.0818385 113.0577095  54.0422660 119.9181846
 112.7364418  52.9659688 118.9031717 114.5487969  51.2445559 111.6020955
 115.3834860  51.6835363 111.7658515 114.6847098  50.7684212 110.7829201
 111.5979475  48.8025294 117.5498443 112.0733596  48.9952940 116.7417294
 110.6745040  48.8584480 117.3041827  98.4862981  49.9649461 107.1329521
  98.2409023  49.0611791 107.3309731  98.6558896  49.9666612 106.1908999
 106.1759691  40.8373138 116.5154277 106.6941635  41.5734164 116.1900765
 105.8214824  41.1437131 117.3501036  97.7558629  45.6977819 104.6315683
  97.0627874  45.7722174 103.9755719  97.5110381  44.9338162 105.1537200
 106.4272285  37.2573420 112.0355173 106.7074039  36.5896609 112.6615600
 107.2122892  37.4502516 111.5229837 104.2305754  56.4332414 103.5980200
 103.6579721  57.0522601 103.1450672 104.8038548  56.9831776 104.1320122
 110.2981144  45.6791054 115.7826748 111.2498567  45.7789152 115.8038973
 110.1284594  44.8869323 116.2924833 108.3195523  42.7646637 115.9686149
 107.7245455  43.0451650 115.2732638 108.0345220  43.2540538 116.7402891
 107.4503014  56.7169564 104.7288782 108.3833687  56.6515126 104.9321657
 107.3626227  57.5525831 104.2703315 110.0791030  56.0335434 101.6892730
 110.0004662  55.6995298 102.5828487 110.9000697  56.5257202 101.6884202
 112.7769222  48.8997174 114.8969048 112.7445542  47.9613174 115.0828732
 113.3869845  48.9781210 114.1634873 104.6152552  47.7693227 100.9396252
 105.5611657  47.6399435 101.0084670 104.2366797  47.0307889 101.4165680
 112.9263710  45.6908217 114.9427331 112.4102759  44.9066674 114.7557260
 113.8103659  45.3626934 115.1073851 110.5874437  39.4349233 110.9023144
 110.3899258  39.1264321 111.7866476 111.1974143  40.1610872 111.0321074
 118.5945771  49.9613181 114.0375085 119.3249160  49.6998469 114.5982788
 117.9852717  49.2241903 114.0777153 116.6761069  48.1021043 114.6349536
 115.9494232  47.9677008 114.0266028 116.2608355  48.4097872 115.4406254
 104.4991245  51.8210973 122.3996909 105.4194254  51.9989572 122.5936956
 104.4640828  50.8767018 122.2476608 102.7995470  45.6943203 100.8751137
 101.8926925  45.3976316 100.9513851 103.0771451  45.3973021 100.0085424
  93.7173410  47.0149567 111.3250184  93.3976194  46.1614875 111.0324558
  93.1706838  47.2298145 112.0808151  97.4953318  49.7312008 115.0419690
  97.7139327  50.6629115 115.0607724  97.9079091  49.3719982 115.8274494
 104.4157535  40.2380093 107.0295379 103.6058264  39.8927178 107.4050625
 105.1041952  39.9287637 107.6182990 106.3448084  39.3158140 108.6519675
 106.8979122  39.7353593 109.3109698 106.5818170  38.3893888 108.6942631
 102.3681183  45.3045213 124.4322439 102.2677910  46.2539570 124.3634530
 102.1502725  44.9763452 123.5598509 101.5694254  42.5530138 101.0163117
 102.4313418  42.8785037 101.2758934 101.7544598  41.7661634 100.5036182
  93.5861670  50.6352478 113.2943305  92.8925141  50.2206431 112.7813260
  94.3334661  50.6773015 112.6976724 109.7226891  41.4258665 108.1598340
 109.1425560  42.0843469 107.7776392 109.4562823  40.6036009 107.7485757
 108.1730457  40.8263722 110.3619660 108.6730235  40.9380257 109.5533979
 108.8166065  40.5224775 111.0020468 102.2312453  48.7342352 123.2487501
 101.7479535  49.5342712 123.4551390 102.3173392  48.7450297 122.2954945
  95.4998413  50.5670732 111.1709320  95.4769101  50.6658419 110.2191203
  95.8099049  51.4135883 111.4926486  98.1585790  52.6246887 115.2855935
  99.1129044  52.5930829 115.2185866  97.9598314  52.1637511 116.1006161
  98.7485173  51.1948003 117.8526732  99.5678062  51.6892082 117.8761570
  99.0221980  50.2779971 117.8244300 108.5051769  43.5858755 107.2154688
 107.6177624  43.8708406 106.9974883 108.9205758  43.4252519 106.3681965
 111.8566305  43.6105276 110.9309027 112.6326695  44.1001729 111.2033644
 111.1314439  44.0363330 111.3880897 114.2938863  44.3232895 111.9882968
 114.8883354  44.0828631 111.2776276 114.3665447  43.6040026 112.6156504
  96.5136019  58.1666506 112.3026133  96.3790487  57.4066907 111.7364131
  96.0968081  58.8907406 111.8354921 107.6494982  53.3503430 101.3102708
 108.3530832  53.5553432 101.9260363 106.9257631  53.9180192 101.5751791
 108.4792792  49.1013291 107.4304978 108.4227994  49.5581843 106.5912610
 109.0321135  48.3403976 107.2527821 112.2897598  44.8903023 108.2555098
 112.0334533  44.4899659 109.0863305 111.6650466  45.6046817 108.1305237
 116.6009936  47.6299096 110.7626389 116.0409494  47.6992286 111.5357951
 115.9953440  47.4540081 110.0425885  99.6705145  59.0635823 112.5144575
  99.5537529  60.0081256 112.4123265  98.8497591  58.7609385 112.9030374
 109.5581680  53.7885959 103.3601168 110.3927284  53.3567158 103.1778643
 109.3966023  53.6167973 104.2878062 109.2127572  50.2918072 104.7257507
 109.1576376  50.1262344 103.7845951 108.5873627  50.9994105 104.8819697
  94.0020087  45.5286137 118.5518929  94.6478950  45.0185091 119.0406155
  93.7937238  46.2654818 119.1262355 106.5273479  52.5966984 124.0511070
 107.3964639  52.7707637 123.6897705 106.0480230  53.4161401 123.9286799
 102.5223697  39.7926181 104.3042826 102.5102367  40.7368021 104.4611096
 103.4147119  39.6096327 104.0102287 100.6959659  59.7164085 115.7300504
 101.5986906  59.7487695 116.0466999 100.4697029  58.7864536 115.7446839
 102.4513261  58.4695072 112.3910582 101.5008892  58.4696933 112.2774955
 102.7545747  57.7227806 111.8746617 106.3375817  36.3868958 108.5588762
 105.5708212  35.8327445 108.7045445 106.7486522  36.4590827 109.4202914
  98.3417578  42.6753754 122.6493944  99.2049039  42.3190559 122.8597268
  97.7682988  42.3367649 123.3369348 118.1865955  64.3055610 113.4556345
 118.8244365  64.1862358 112.7519685 118.0686798  65.2536454 113.5144297
 114.9955661  64.2583038 113.3917869 114.6574172  64.1424103 112.5038404
 115.8645429  63.8574203 113.3718875 110.8542477  66.1118515 109.3814760
 110.2907342  66.0208452 108.6131048 110.7394872  65.2918419 109.8617253
 115.4775444  65.4117890 119.3504075 115.4664085  65.0170688 118.4784579
 115.6396083  64.6783963 119.9437846 108.4006909  67.6069706 112.2198981
 109.1928201  67.2660531 111.8045280 108.6403559  67.7164681 113.1401134
 116.4342035  69.7789482 104.6929225 115.7830015  70.3643563 104.3063239
 117.2286398  70.3095677 104.7524263 110.3597663  66.8678620 105.0916360
 111.1328539  66.3207607 104.9529235 110.7123061  67.7322869 105.3030821
 112.1982705  68.1955002 118.2983259 111.9072571  69.1000633 118.1829925
 112.8339689  68.2371529 119.0127328 113.1238912  65.5731850 114.8884618
 113.7202484  65.3487873 114.1741581 113.1813883  64.8316596 115.4910066
 112.6963940  63.0271286 102.7234809 112.9489461  62.5052807 101.9618272
 111.7588499  62.8637431 102.8261493 117.7407223  62.0307064 110.5309553
 118.5270312  61.6126487 110.1799970 118.0045927  62.9353156 110.6991201
 117.9117301  67.4679914 105.2298210 117.2763134  67.5414541 105.9419114
 117.5814707  68.0573513 104.5517289 123.1415650  61.9682297 111.4342531
 123.8740822  61.3981514 111.6680361 122.3855006  61.5803898 111.8749037
 112.4160229  64.9299392 104.9259184 112.2996487  64.2544295 105.5940269
 112.5262489  64.4431766 104.1091337 114.7591770  64.3909539 108.6305874
 114.3949977  63.8640160 109.3418795 115.6158886  64.0008008 108.4572359
 120.6641071  55.6803871 115.8937140 120.3324395  56.5499282 115.6698355
 120.0686684  55.3640155 116.5731170 114.3997257  59.4199438 103.6267222
 114.5671659  60.2879675 103.9937693 114.2094426  59.5826720 102.7028511
 117.1572590  67.8816417 115.2933053 116.8573313  68.7841456 115.1848860
 116.8123650  67.6148601 116.1454205 110.6085072  64.3330214 111.3269757
 109.6835568  64.2006428 111.5347449 110.8569485  65.1124433 111.8239699
 120.5569734  60.3998957 112.9730490 119.6486611  60.3314366 112.6789251
 120.5057330  60.8770902 113.8012315 114.3786478  61.8757096 104.6113889
 114.2586103  62.3214147 105.4499369 113.6839066  62.2242414 104.0527427
 107.9693883  63.9763488 112.1613546 108.0986264  64.2297967 113.0752958
 107.2891334  64.5691196 111.8418201 112.1393370  74.6460738 108.2604020
 112.0617400  75.5968563 108.3392501 111.5355014  74.3006610 108.9178947
 114.6310600  61.8188603 120.9165387 113.8543934  62.3782523 120.9068252
 115.2701163  62.3045386 121.4380257 122.4231380  58.6015396 114.7508364
 121.7805761  58.8947929 114.1048158 121.9186309  58.4868316 115.5561560
 120.0771544  62.3478569 105.4394223 120.9889400  62.5805956 105.2641921
 119.5681191  62.9315613 104.8769302 112.8856972  64.6274056 120.4783354
 113.6271656  65.1659100 120.2018178 112.1793958  65.2540345 120.6354906
 118.3612312  66.7703197 119.0755516 118.7695668  66.3285607 118.3310148
 117.6389573  66.1955824 119.3289709 114.7143382  61.7075804 116.4489073
 115.5604577  62.1315217 116.5923722 114.6542019  61.0509428 117.1427636
 118.6841126  67.3304388 112.8307805 118.0549989  67.4950102 112.1283872
 118.2966788  67.7445997 113.6018769 122.5630358  68.2658825 110.1852168
 121.8781396  68.6457727 109.6349202 122.6474208  68.8754152 110.9184116
 117.8642827  59.3680172 118.1070246 117.6203759  60.1222233 117.5704522
 118.1402758  59.7465520 118.9417493 119.8181290  65.9118784 116.7847512
 120.0298185  66.5550544 116.1081893 119.7711038  65.0781101 116.3169442
 117.4207519  58.5236605 113.6884084 116.5591998  58.8217859 113.9800822
 117.4469953  58.7407004 112.7565117 114.2369088  67.0678796 110.0957890
 114.7007434  67.3466499 109.3062512 113.9725886  66.1662240 109.9130980
 111.1293169  66.6150277 113.0337653 111.6994526  67.0437546 112.3955137
 111.7201281  66.3332862 113.7321839 113.1737974  63.1901948 106.9047455
 113.8762018  63.6422992 107.3721381 112.8418603  62.5485767 107.5327348
 111.6218336  61.7813705 121.2798664 110.9916996  62.4629985 121.5134061
 111.5154424  61.6696786 120.3351802 106.9163308  61.4485501 112.2064588
 106.1262362  61.7043029 111.7304699 107.4074556  62.2633839 112.3116629
 120.9327118  68.7890740 114.9569869 121.7544562  68.3870927 114.6752551
 120.9289521  68.6858974 115.9085985 108.8678054  61.8130080 109.1648065
 108.0709217  61.9248774 109.6831561 108.6403646  62.1516732 108.2988956
 114.6983721  68.3374783 117.1130580 114.7628154  68.7995190 117.9488751
 113.9894645  67.7072148 117.2412889 105.2001011  61.7015991 114.6379579
 105.4509050  62.5863001 114.9037155 105.7360560  61.5220593 113.8654671
 129.0233111  65.1329488 111.3054841 128.2696819  64.5636886 111.1498845
 129.1580652  65.0992153 112.2525475 114.4131739  70.0042891 106.9809560
 114.2777414  70.8494426 107.4094408 114.9541551  70.2062168 106.2175494
 110.8999079  56.0834470 123.6423915 110.5066024  55.5300669 124.3171559
 111.7165219  56.3945049 124.0330433 107.8661136  67.5218329 107.5537485
 108.3785657  68.3161579 107.7043050 108.5183849  66.8244619 107.4871087
 109.6756021  70.6384085 109.6360238 109.8522649  71.5602050 109.4481222
 110.4712855  70.3242504 110.0654618 113.8167040  57.4992350 121.2344172
 114.5576753  58.0999503 121.1548634 114.0484962  56.7569987 120.6762214
 108.9608378  62.6848717 119.5122401 108.8461893  61.7833974 119.8129500
 108.1052895  62.9312414 119.1607218 116.0400215  70.6266457 121.1109902
 115.5964069  69.8402836 120.7930807 116.7017429  70.8145608 120.4453793
 110.7987336  72.1562259 115.6370581 111.3494762  72.0279322 114.8647574
 109.9598812  72.4557148 115.2865473 118.1381453  70.9069257 119.1391303
 118.1199929  71.7278138 118.6471572 119.0601373  70.7823332 119.3641444
 114.5954508  68.4213387 119.9814812 115.1282844  67.6601675 119.7514120
 114.0668589  68.1287038 120.7238966 117.7624202  53.5273452 115.5108453
 117.4188472  54.4175094 115.4347564 118.1303165  53.3375110 114.6478038
 105.8310053  65.8506983 108.3297056 106.6685275  66.2603991 108.1130763
 106.0088321  64.9106425 108.2997249 117.7274485  63.5182064 104.0180889
 117.2121109  64.2886668 104.2569276 117.4551794  62.8447200 104.6413950
 115.3121596  58.3631764 109.0766127 114.4563193  57.9738615 108.8971766
 115.7248548  58.4423725 108.2165912 116.8420743  55.8978108 113.4757687
 116.3385538  55.8608243 112.6625492 117.1351350  56.8070850 113.5354343
 113.0863629  55.9816837 112.4823868 113.9516626  55.7859646 112.1229758
 113.1541138  55.7527189 113.4093225 122.7008759  66.2714418 105.9534062
 121.9238202  65.9325578 105.5089224 123.3800240  66.2767041 105.2789027
 117.5160788  61.3909156 105.8440670 117.2110924  61.7055305 106.6950813
 118.4691230  61.4690576 105.8868003 115.9607220  67.5499379 107.4933624
 115.4328582  66.8152139 107.1806861 115.4594723  68.3274055 107.2473592
 120.9400066  65.7448399 112.6100670 120.2823741  66.4347661 112.6980799
 121.7440465  66.1344831 112.9534656 110.6925948  58.2119045 109.8540235
 111.2669700  57.9894227 109.1213428 111.2796930  58.2807740 110.6068837
 119.7505525  64.0992772 110.6604612 120.2637407  64.7322764 111.1626321
 120.4006749  63.4993968 110.2947972 111.0195535  60.2423506 103.8736120
 110.1832847  60.5798193 104.1945395 110.8800305  60.1072486 102.9363257
 112.9948616  55.0860294 108.5815305 112.3413028  54.7709311 107.9571919
 112.9529090  54.4636035 109.3075128 114.1059820  65.3679589 100.4968597
 113.1986882  65.1368843 100.6959746 114.6030852  64.5717209 100.6842578
 117.0127899  74.0777096 103.4165283 116.3389598  74.3808793 104.0250241
 117.3993721  74.8806177 103.0670740 116.2286356  61.5742228 112.9062952
 115.3108917  61.7957175 112.7484640 116.6446500  61.6488538 112.0474660
 117.0121404  62.9733643 108.0365633 117.7593223  63.4855041 107.7272755
 117.2812993  62.6517696 108.8970026 115.2848054  65.4692184 105.0192587
 114.3759273  65.1851217 105.1165057 115.3143138  65.8891263 104.1595894
 120.5167321  69.0798774 108.7883754 120.0629648  68.2389684 108.8448945
 119.8861288  69.7160172 109.1258535 119.4600241  60.0090760 110.0184422
 118.7222998  59.4968146 110.3494664 119.7127014  59.5691141 109.2067699
 118.9600260  70.9175270 109.7233573 119.2523235  71.4780327 109.0045938
 119.4698881  71.2103831 110.4786732 119.5611868  52.7867012 110.6126191
 119.8670745  51.9264375 110.3252106 120.2864473  53.3784632 110.4125185
 105.8536224  63.1897698 109.0007789 105.6560624  62.5967059 108.2758856
 105.2982888  62.8849908 109.7183728 113.8332948  63.0820805 111.1202382
 113.8881558  62.1294641 111.0444859 113.0224150  63.2380244 111.6043681
 114.9824142  67.0100928 102.3580665 114.5443572  66.2936787 101.8986303
 115.7234582  67.2377043 101.7965757 111.7725308  61.6997864 108.8792761
 110.9593173  61.9992035 109.2857953 112.2684302  61.3053553 109.5967243
 113.9233886  71.6955621 110.8127026 113.8810064  71.9216468 109.8835558
 114.8396585  71.4618996 110.9612827 117.3699519  62.1639689 117.7107655
 117.7248907  62.3911162 118.5702121 118.0171651  62.4958066 117.0884910
 123.0997256  65.2858125 108.4156984 122.9615155  65.4759721 107.4878173
 122.7433475  66.0477508 108.8725035 111.2639383  59.2716220 114.4953996
 111.9038762  59.1304979 113.7976959 110.4316913  58.9850733 114.1192598
 123.1266636  67.3534652 113.4268255 123.5603143  67.2609941 114.2751310
 123.8398217  67.3292152 112.7888271 112.0399686  68.5718650 110.6088988
 112.8340285  68.0768971 110.4071563 111.3291379  68.0436514 110.2456694
 116.8594531  70.9536746 114.9601356 116.9131553  71.5227682 115.7279072
 115.9909312  71.1238631 114.5955393 108.3482450  62.7161732 106.6848741
 107.4180038  62.6546188 106.9018703 108.4439922  62.1937685 105.8885382
 108.2667999  59.2416545 109.2726983 108.5274816  60.1561878 109.1636143
 109.0885171  58.7740988 109.4223596 109.7392924  60.6554302 116.4425807
 110.4115978  60.4471664 115.7938456 108.9122711  60.4576388 116.0031040
 123.9882186  67.3958353 115.9601141 124.1818076  68.3004163 116.2060416
 123.8882804  66.9365772 116.7939726 115.6418496  57.2816243 118.4591468
 114.9946411  57.9806193 118.3655945 116.4119512  57.7152387 118.8267716
 119.0497294  67.5465095 121.5342021 118.8982801  67.3175647 120.6172105
 119.0401974  68.5035697 121.5473366 115.8182631  65.1197008 116.5188288
 116.7474691  65.2708168 116.3457255 115.3973661  65.2081029 115.6636934
 114.6170962  69.1447672 114.2886826 114.4782048  68.7766457 115.1612764
 113.8285559  69.6595312 114.1170783 115.2119114  74.2456769 105.6312362
 115.3870870  73.7744812 106.4457985 114.5251902  74.8722535 105.8593623
 116.1676178  68.5229275 111.6775663 115.8326010  68.4830045 112.5733313
 115.6680123  67.8573991 111.2046074 110.1420422  63.9296905 117.2028244
 110.0040219  63.1977144 117.8039784 111.0525345  63.8405805 116.9212432
 119.1035369  65.8685309 101.9512723 118.4864540  65.1432138 101.8545776
 118.6351858  66.6294670 101.6079797 112.7702722  63.6416864 116.6911924
 113.4802341  63.0010057 116.6498543 112.7272030  63.8929759 117.6138105
 120.7589501  70.5784218 119.6118503 120.7002047  69.8943438 118.9449086
 121.1609019  71.3203208 119.1599129 111.4831656  60.6282082 118.5107564
 110.9469013  60.1772821 119.1629160 110.8948365  60.7627991 117.7678028
 109.7780200  77.3946132 112.4052222 110.0176798  78.0264656 113.0831241
 108.9349396  77.0434172 112.6917582 110.8933915  60.0870734 101.0734027
 110.0163381  59.9659535 100.7096274 111.3691668  59.2956812 100.8212916
 120.7606908  68.5423802 117.8432483 119.8733687  68.2049724 117.9658882
 121.3305459  67.8106833 118.0801248 102.4136055  64.8747893 111.1675534
 103.1007095  64.5609624 110.5796550 102.2584184  65.7789258 110.8942786
 107.2170777  59.7638090 115.5960558 107.1328966  59.1563760 114.8610968
 106.3953484  60.2547108 115.5970054 114.2908062  73.2025254 114.8093726
 114.2178233  74.0080226 115.3213031 113.8485455  73.4017220 113.9841748
 114.0797841  72.4397024 108.3196548 113.2965363  72.9818704 108.4134772
 114.7790586  72.9571004 108.7190789 117.3894491  58.2491654 110.9630753
 117.8863191  57.4961616 110.6431823 116.6181473  58.2855970 110.3973962
 125.2424249  63.9532019 112.6049045 125.2314125  64.8356735 112.2342978
 124.3741628  63.6003570 112.4103582 116.7506745  73.1012088 116.9651885
 117.4634717  73.7359553 116.8927786 116.2596774  73.1975954 116.1491887
 118.4724272  67.0063341 108.5369177 117.5380551  67.1264803 108.3673881
 118.6500940  66.1035808 108.2729186 113.9729460  60.3909037 110.6902438
 113.6027248  59.8380077 111.3783343 114.4688553  59.7867170 110.1377438
 121.8596823  62.8480660 109.0719211 122.3257276  63.6808652 108.9979513
 122.3104324  62.3825642 109.7764469 111.8018659  70.8506532 117.7857456
 112.5028118  71.4843015 117.9386850 111.3313774  71.1921263 117.0253095
 119.9273054  69.1924481 106.0705363 120.2032898  69.0781076 106.9799237
 119.0577553  68.7941966 106.0317536 119.8313486  55.2161247 113.1110112
 118.9176566  55.4465474 113.2792319 120.2606588  55.2999691 113.9624144
 119.6019945  63.4051139 115.6110006 118.9491395  63.6527046 114.9562459
 119.9800324  62.5915277 115.2772483 116.5627118  73.4410832 109.7138176
 116.7449513  72.6232488 110.1765929 117.3860104  73.6578524 109.2763066
 116.8969284  72.3679017 106.9753225 117.4257050  71.8571472 106.3623387
 117.1597504  72.0521548 107.8398758 115.6507518  64.1470950 122.0976043
 114.9748155  64.0465079 122.7678418 116.4735151  63.9910164 122.5612040
 107.3986377  70.3842887 114.7188558 107.9839813  69.6386575 114.8516463
 107.2011215  70.6946843 115.6025222 110.2525032  73.4194134 109.7351001
 109.5835407  73.9040262 109.2515041 110.1137902  73.6663354 110.6494379
 101.9904031  62.9548487 113.4393002 102.0288131  62.4212078 114.2330120
 101.4844324  62.4283692 112.8203979 114.3930300  75.4537878 116.3333659
 114.9448609  75.6169499 117.0982744 114.7336494  76.0442315 115.6613684
 109.3694794  57.8013027 116.9355544 109.4336120  58.6627858 116.5232942
 109.3061914  57.1887029 116.2027902 108.8447066  59.8736160 120.5828578
 109.4719105  59.4913237 121.1966102 107.9874985  59.6550362 120.9484271
 119.2441175  70.2799135 122.1882314 119.7881079  70.8929093 121.6937268
 118.6628020  70.8378713 122.7049327 105.6212609  61.6812589 106.5146933
 105.9166050  60.7723267 106.4613987 104.7200645  61.6600328 106.1927935
 117.5298688  73.4019853 113.3197341 117.4049827  72.6009593 112.8108287
 118.1877779  73.8966046 112.8311311 109.1506856  59.7568586 112.4974482
 108.4293442  60.3704553 112.3581955 109.9400112  60.2926350 112.4191127
 119.5933596  71.2028873 114.9476891 118.6463932  71.0834224 114.8755218
 119.9416369  70.3151371 115.0303153 111.9533170  57.0923012 118.7715133
 112.4767571  57.3385309 119.5341443 111.7345503  57.9243047 118.3518271
 107.3500451  59.3626687 106.6386258 107.0213157  58.4824066 106.4561364
 107.7039821  59.3074355 107.5262647 116.5980029  70.9981589 111.1481244
 116.4504992  70.0698297 111.3288814 117.4233523  71.0201680 110.6638319
 110.4642274  59.6499656 107.0061736 110.8038346  60.1785578 106.2840344
 110.9114394  59.9880063 107.7820302 120.2014151  71.8210148 112.2346116
 121.1260699  71.6153009 112.0970568 120.0329455  71.5726549 113.1435458
 113.1585715  58.0336707 116.4564804 112.8182535  57.2344520 116.8585484
 112.4524721  58.3338418 115.8841637 113.8102186  55.1186020 114.9092127
 114.6328256  54.6446498 114.7871017 114.0540250  55.8976503 115.4090813
 112.4510421  58.1474278 105.2055029 113.1718783  58.5255531 104.7018745
 111.8275725  58.8663155 105.3090006 116.5941544  58.8519427 106.1413361
 116.8105158  59.7344065 105.8402189 116.1135611  58.4605640 105.4119003
 111.3340765  61.8105140 112.7184105 111.1885346  62.1245443 113.6108387
 110.8565969  62.4290041 112.1655004 113.1937148  58.8007688 112.7664995
 113.1798717  57.9048782 112.4297293 113.9109576  58.8078352 113.4003281
 115.0463279  59.2345028 114.8118122 114.7881057  60.1562099 114.8102453
 114.5148319  58.8375463 115.5018587 119.9909468  72.3395816 107.5908208
 120.1646345  71.7742238 106.8382060 120.4838359  73.1396710 107.4087698
 105.8086427  64.3510485 115.6571767 105.2639895  65.1270293 115.7892041
 106.6865777  64.6981289 115.4990888 112.5974044  57.6822069 108.0352565
 112.7189955  56.7538715 108.2343453 112.3076086  57.6960754 107.1230881
 115.4665234  55.3676979 111.1719285 115.4886931  55.4316312 110.2171265
 115.8833293  54.5281488 111.3659791 125.8448859  65.1032238 109.2098508
 126.2880005  64.3539564 108.8117631 124.9675369  65.0942375 108.8272240
 120.9784640  71.6562580 104.6905106 121.6735545  72.2769273 104.9092421
 121.3207790  70.8057931 104.9657484 106.5952449  63.4780381 118.5501923
 105.8534185  63.6263016 119.1366554 106.2745193  63.7388647 117.6868673
 122.8776063  69.1062285 106.2192437 123.4027387  69.4449558 105.4941757
 122.7898416  68.1709301 106.0355571 114.5396112  73.0196359 118.3482313
 114.8483238  72.7745506 119.2205013 115.3371594  73.2242998 117.8601184
 114.5616724  75.1734269 110.5787690 114.1221714  74.6810647 111.2720547
 115.3124841  74.6307236 110.3379765 107.0409063  71.3645810 110.5812318
 107.8667083  71.0649581 110.2010962 106.6903115  70.5953432 111.0302107
 112.0090596  70.7172278 112.6509992 111.3870605  70.0542983 112.3512220
 112.6795463  70.7433410 111.9683639 105.2417668  69.2832136 111.5401252
 104.4049576  68.8554310 111.3585253 105.2141313  69.4764579 112.4772043
 112.0815124  59.1954066 122.2442498 112.1303279  60.0716189 121.8620267
 112.6237638  58.6531459 121.6714141 122.5669969  69.7395189 121.5243635
 121.7765513  69.7219328 120.9848134 122.3303324  70.2783483 122.2792671
 122.6867844  66.5887656 118.8376363 122.7365849  66.4237663 119.7791886
 122.5781768  65.7214915 118.4474244 111.5704103  69.2676201 106.1268452
 111.7192223  69.9511666 105.4735125 112.3770546  69.2481291 106.6417908
 119.9771607  62.5718584 120.1535670 120.8781469  62.4325048 119.8619668
 120.0519581  62.7373038 121.0933848 114.3114412  59.9485438 118.9988856
 113.4417721  60.2419004 118.7271445 114.5473892  60.5325883 119.7196120
 124.1886041  69.0084597 119.0818385 123.8970849  69.3714578 119.9181846
 123.5758172  68.2951605 118.9031717 125.3881723  66.5737477 111.6020955
 126.2228615  67.0127281 111.7658515 125.5240852  66.0976130 110.7829201
 122.4373229  64.1317212 117.5498443 122.9127351  64.3244858 116.7417294
 121.5138795  64.1876397 117.3041827 109.3256736  65.2941379 107.1329521
 109.0802778  64.3903709 107.3309731 109.4952650  65.2958529 106.1908999
 117.0153446  56.1665055 116.5154277 117.5335390  56.9026082 116.1900765
 116.6608579  56.4729049 117.3501036 108.5952383  61.0269736 104.6315683
 107.9021628  61.1014091 103.9755719 108.3504135  60.2630080 105.1537200
 117.2666040  52.5865338 112.0355173 117.5467794  51.9188527 112.6615600
 118.0516647  52.7794433 111.5229837 115.0699508  71.7624332 103.5980200
 114.4973476  72.3814519 103.1450672 115.6432302  72.3123693 104.1320122
 121.1374898  61.0082972 115.7826748 122.0892321  61.1081069 115.8038973
 120.9678349  60.2161240 116.2924833 119.1589278  58.0938555 115.9686149
 118.5639210  58.3743568 115.2732638 118.8738974  58.5832456 116.7402891
 118.2896768  72.0461482 104.7288782 119.2227441  71.9807043 104.9321657
 118.2019981  72.8817749 104.2703315 120.9184785  71.3627352 101.6892730
 120.8398416  71.0287216 102.5828487 121.7394452  71.8549120 101.6884202
 123.6162976  64.2289091 114.8969048 123.5839296  63.2905092 115.0828732
 124.2263600  64.3073128 114.1634873 115.4546307  63.0985144 100.9396252
 116.4005412  62.9691353 101.0084670 115.0760552  62.3599806 101.4165680
 123.7657465  61.0200135 114.9427331 123.2496513  60.2358591 114.7557260
 124.6497413  60.6918851 115.1073851 121.4268191  54.7641150 110.9023144
 121.2293013  54.4556239 111.7866476 122.0367897  55.4902789 111.0321074
 129.4339526  65.2905098 114.0375085 130.1642914  65.0290386 114.5982788
 128.8246471  64.5533820 114.0777153 127.5154823  63.4312961 114.6349536
 126.7887987  63.2968926 114.0266028 127.1002110  63.7389789 115.4406254
 115.3384999  67.1502891 122.3996909 116.2588009  67.3281490 122.5936956
 115.3034583  66.2058936 122.2476608 113.6389224  61.0235121 100.8751137
 112.7320679  60.7268233 100.9513851 113.9165205  60.7264939 100.0085424
 104.5567164  62.3441484 111.3250184 104.2369949  61.4906792 111.0324558
 104.0100593  62.5590062 112.0808151 108.3347072  65.0603925 115.0419690
 108.5533082  65.9921033 115.0607724 108.7472846  64.7011900 115.8274494
 115.2551290  55.5672010 107.0295379 114.4452018  55.2219095 107.4050625
 115.9435707  55.2579554 107.6182990 117.1841838  54.6450057 108.6519675
 117.7372877  55.0645511 109.3109698 117.4211924  53.7185805 108.6942631
 113.2074937  60.6337131 124.4322439 113.1071664  61.5831488 124.3634530
 112.9896479  60.3055370 123.5598509 112.4088009  57.8822056 101.0163117
 113.2707173  58.2076954 101.2758934 112.5938353  57.0953552 100.5036182
 104.4255424  65.9644396 113.2943305 103.7318896  65.5498348 112.7813260
 105.1728415  66.0064932 112.6976724 120.5620645  56.7550582 108.1598340
 119.9819314  57.4135386 107.7776392 120.2956578  55.9327927 107.7485757
 119.0124212  56.1555640 110.3619660 119.5123990  56.2672175 109.5533979
 119.6559819  55.8516693 111.0020468 113.0706207  64.0634270 123.2487501
 112.5873289  64.8634630 123.4551390 113.1567146  64.0742215 122.2954945
 106.3392167  65.8962649 111.1709320 106.3162855  65.9950337 110.2191203
 106.6492803  66.7427800 111.4926486 108.9979545  67.9538804 115.2855935
 109.9522798  67.9222747 115.2185866 108.7992068  67.4929428 116.1006161
 109.5878927  66.5239921 117.8526732 110.4071816  67.0183999 117.8761570
 109.8615735  65.6071889 117.8244300 119.3445523  58.9150673 107.2154688
 118.4571378  59.2000323 106.9974883 119.7599512  58.7544436 106.3681965
 122.6960059  58.9397194 110.9309027 123.4720449  59.4293646 111.2033644
 121.9708194  59.3655248 111.3880897 125.1332618  59.6524813 111.9882968
 125.7277109  59.4120549 111.2776276 125.2059202  58.9331944 112.6156504
 107.3529774  73.4958424 112.3026133 107.2184242  72.7358825 111.7364131
 106.9361836  74.2199324 111.8354921 118.4888737  68.6795348 101.3102708
 119.1924587  68.8845350 101.9260363 117.7651385  69.2472109 101.5751791
 119.3186547  64.4305209 107.4304978 119.2621748  64.8873760 106.5912610
 119.8714889  63.6695893 107.2527821 123.1291353  60.2194941 108.2555098
 122.8728287  59.8191576 109.0863305 122.5044221  60.9338735 108.1305237
 127.4403691  62.9591014 110.7626389 126.8803249  63.0284203 111.5357951
 126.8347194  62.7831999 110.0425885 110.5098900  74.3927741 112.5144575
 110.3931284  75.3373173 112.4123265 109.6891346  74.0901303 112.9030374
 120.3975434  69.1177877 103.3601168 121.2321038  68.6859075 103.1778643
 120.2359777  68.9459890 104.2878062 120.0521326  65.6209990 104.7257507
 119.9970130  65.4554261 103.7845951 119.4267382  66.3286023 104.8819697
 104.8413841  60.8578054 118.5518929 105.4872705  60.3477008 119.0406155
 104.6330992  61.5946736 119.1262355 117.3667233  67.9258902 124.0511070
 118.2358393  68.0999554 123.6897705 116.8873985  68.7453319 123.9286799
 113.3617452  55.1218099 104.3042826 113.3496122  56.0659939 104.4611096
 114.2540874  54.9388244 104.0102287 111.5353414  75.0456003 115.7300504
 112.4380660  75.0779613 116.0466999 111.3090784  74.1156454 115.7446839
 113.2907016  73.7986989 112.3910582 112.3402647  73.7988851 112.2774955
 113.5939502  73.0519724 111.8746617 117.1769571  51.7160876 108.5588762
 116.4101967  51.1619362 108.7045445 117.5880276  51.7882744 109.4202914
 109.1811332  58.0045671 122.6493944 110.0442794  57.6482476 122.8597268
 108.6076743  57.6659566 123.3369348 129.0259709  79.6347528 113.4556345
 129.6638119  79.5154275 112.7519685 128.9080552  80.5828372 113.5144297
 125.8349415  79.5874956 113.3917869 125.4967927  79.4716021 112.5038404
 126.7039184  79.1866121 113.3718875 121.6936231  81.4410432 109.3814760
 121.1301096  81.3500369 108.6131048 121.5788626  80.6210337 109.8617253
 126.3169198  80.7409808 119.3504075 126.3057839  80.3462606 118.4784579
 126.4789838  80.0075880 119.9437846 119.2400663  82.9361624 112.2198981
 120.0321955  82.5952449 111.8045280 119.4797313  83.0456599 113.1401134
 127.2735790  85.1081400 104.6929225 126.6223770  85.6935480 104.3063239
 128.0680153  85.6387595 104.7524263 121.1991417  82.1970537 105.0916360
 121.9722293  81.6499524 104.9529235 121.5516816  83.0614787 105.3030821
 123.0376460  83.5246919 118.2983259 122.7466326  84.4292550 118.1829925
 123.6733444  83.5663447 119.0127328 123.9632666  80.9023768 114.8884618
 124.5596239  80.6779790 114.1741581 124.0207638  80.1608513 115.4910066
 123.5357695  78.3563203 102.7234809 123.7883216  77.8344725 101.9618272
 122.5982254  78.1929349 102.8261493 128.5800978  77.3598982 110.5309553
 129.3664067  76.9418405 110.1799970 128.8439682  78.2645074 110.6991201
 128.7511055  82.7971832 105.2298210 128.1156888  82.8706459 105.9419114
 128.4208461  83.3865431 104.5517289 133.9809405  77.2974215 111.4342531
 134.7134577  76.7273432 111.6680361 133.2248760  76.9095815 111.8749037
 123.2553984  80.2591309 104.9259184 123.1390242  79.5836213 105.5940269
 123.3656243  79.7723683 104.1091337 125.5985525  79.7201456 108.6305874
 125.2343732  79.1932077 109.3418795 126.4552640  79.3299925 108.4572359
 131.5034825  71.0095789 115.8937140 131.1718150  71.8791200 115.6698355
 130.9080439  70.6932073 116.5731170 125.2391011  74.7491356 103.6267222
 125.4065414  75.6171592 103.9937693 125.0488181  74.9118638 102.7028511
 127.9966345  83.2108335 115.2933053 127.6967068  84.1133374 115.1848860
 127.6517404  82.9440518 116.1454205 121.4478826  79.6622132 111.3269757
 120.5229323  79.5298346 111.5347449 121.6963239  80.4416351 111.8239699
 131.3963488  75.7290875 112.9730490 130.4880366  75.6606284 112.6789251
 131.3451084  76.2062820 113.8012315 125.2180232  77.2049014 104.6113889
 125.0979858  77.6506064 105.4499369 124.5232821  77.5534331 104.0527427
 118.8087637  79.3055405 112.1613546 118.9380018  79.5589884 113.0752958
 118.1285088  79.8983113 111.8418201 122.9787124  89.9752655 108.2604020
 122.9011154  90.9260480 108.3392501 122.3748768  89.6298528 108.9178947
 125.4704354  77.1480521 120.9165387 124.6937688  77.7074441 120.9068252
 126.1094917  77.6337304 121.4380257 133.2625135  73.9307314 114.7508364
 132.6199515  74.2239847 114.1048158 132.7580063  73.8160234 115.5561560
 130.9165299  77.6770487 105.4394223 131.8283155  77.9097874 105.2641921
 130.4074946  78.2607531 104.8769302 123.7250727  79.9565974 120.4783354
 124.4665411  80.4951018 120.2018178 123.0187712  80.5832263 120.6354906
 129.2006066  82.0995115 119.0755516 129.6089422  81.6577525 118.3310148
 128.4783328  81.5247742 119.3289709 125.5537136  77.0367721 116.4489073
 126.3998331  77.4607135 116.5923722 125.4935774  76.3801346 117.1427636
 129.5234881  82.6596305 112.8307805 128.8943743  82.8242019 112.1283872
 129.1360543  83.0737915 113.6018769 133.4024113  83.5950743 110.1852168
 132.7175151  83.9749644 109.6349202 133.4867962  84.2046070 110.9184116
 128.7036582  74.6972090 118.1070246 128.4597513  75.4514150 117.5704522
 128.9796512  75.0757437 118.9417493 130.6575044  81.2410702 116.7847512
 130.8691940  81.8842462 116.1081893 130.6104793  80.4073019 116.3169442
 128.2601273  73.8528523 113.6884084 127.3985752  74.1509776 113.9800822
 128.2863708  74.0698922 112.7565117 125.0762843  82.3970713 110.0957890
 125.5401188  82.6758416 109.3062512 124.8119641  81.4954158 109.9130980
 121.9686924  81.9442195 113.0337653 122.5388281  82.3729463 112.3955137
 122.5595036  81.6624780 113.7321839 124.0131729  78.5193866 106.9047455
 124.7155772  78.9714909 107.3721381 123.6812357  77.8777685 107.5327348
 122.4612090  77.1105622 121.2798664 121.8310751  77.7921903 121.5134061
 122.3548178  76.9988704 120.3351802 117.7557063  76.7777418 112.2064588
 116.9656117  77.0334947 111.7304699 118.2468310  77.5925756 112.3116629
 131.7720872  84.1182658 114.9569869 132.5938316  83.7162845 114.6752551
 131.7683275  84.0150892 115.9085985 119.7071808  77.1421998 109.1648065
 118.9102971  77.2540692 109.6831561 119.4797400  77.4808650 108.2988956
 125.5377476  83.6666701 117.1130580 125.6021908  84.1287108 117.9488751
 124.8288400  83.0364066 117.2412889 116.0394766  77.0307909 114.6379579
 116.2902804  77.9154919 114.9037155 116.5754314  76.8512510 113.8654671
 139.8626865  80.4621406 111.3054841 139.1090574  79.8928804 111.1498845
 139.9974407  80.4284070 112.2525475 125.2525493  85.3334808 106.9809560
 125.1171168  86.1786344 107.4094408 125.7935306  85.5354086 106.2175494
 121.7392833  71.4126388 123.6423915 121.3459779  70.8592587 124.3171559
 122.5558973  71.7236967 124.0330433 118.7054891  82.8510246 107.5537485
 119.2179411  83.6453497 107.7043050 119.3577604  82.1536537 107.4871087
 120.5149775  85.9676003 109.6360238 120.6916404  86.8893967 109.4481222
 121.3106609  85.6534422 110.0654618 124.6560794  72.8284267 121.2344172
 125.3970507  73.4291420 121.1548634 124.8878717  72.0861905 120.6762214
 119.8002132  78.0140634 119.5122401 119.6855647  77.1125892 119.8129500
 118.9446650  78.2604331 119.1607218 126.8793970  85.9558375 121.1109902
 126.4357824  85.1694753 120.7930807 127.5411183  86.1437525 120.4453793
 121.6381091  87.4854176 115.6370581 122.1888516  87.3571240 114.8647574
 120.7992567  87.7849065 115.2865473 128.9775208  86.2361175 119.1391303
 128.9593683  87.0570056 118.6471572 129.8995128  86.1115250 119.3641444
 125.4348262  83.7505304 119.9814812 125.9676599  82.9893592 119.7514120
 124.9062343  83.4578956 120.7238966 128.6017957  68.8565370 115.5108453
 128.2582226  69.7467012 115.4347564 128.9696920  68.6667028 114.6478038
 116.6703808  81.1798901 108.3297056 117.5079030  81.5895909 108.1130763
 116.8482075  80.2398343 108.2997249 128.5668240  78.8473981 104.0180889
 128.0514863  79.6178586 104.2569276 128.2945548  78.1739117 104.6413950
 126.1515351  73.6923682 109.0766127 125.2956947  73.3030532 108.8971766
 126.5642302  73.7715643 108.2165912 127.6814497  71.2270025 113.4757687
 127.1779293  71.1900160 112.6625492 127.9745104  72.1362768 113.5354343
 123.9257383  71.3108755 112.4823868 124.7910380  71.1151564 112.1229758
 123.9934892  71.0819107 113.4093225 133.5402514  81.6006336 105.9534062
 132.7631957  81.2617495 105.5089224 134.2193995  81.6058959 105.2789027
 128.3554543  76.7201073 105.8440670 128.0504678  77.0347223 106.6950813
 129.3084985  76.7982493 105.8868003 126.8000975  82.8791297 107.4933624
 126.2722336  82.1444056 107.1806861 126.2988477  83.6565973 107.2473592
 131.7793821  81.0740317 112.6100670 131.1217495  81.7639579 112.6980799
 132.5834220  81.4636749 112.9534656 121.5319702  73.5410963 109.8540235
 122.1063454  73.3186144 109.1213428 122.1190685  73.6099657 110.6068837
 130.5899280  79.4284690 110.6604612 131.1031161  80.0614682 111.1626321
 131.2400503  78.8285885 110.2947972 121.8589289  75.5715424 103.8736120
 121.0226602  75.9090111 104.1945395 121.7194059  75.4364404 102.9363257
 123.8342370  70.4152212 108.5815305 123.1806782  70.1001229 107.9571919
 123.7922844  69.7927952 109.3075128 124.9453575  80.6971507 100.4968597
 124.0380637  80.4660760 100.6959746 125.4424607  79.9009126 100.6842578
 127.8521654  89.4069014 103.4165283 127.1783353  89.7100711 104.0250241
 128.2387476  90.2098094 103.0670740 127.0680110  76.9034145 112.9062952
 126.1502672  77.1249092 112.7484640 127.4840254  76.9780456 112.0474660
 127.8515158  78.3025561 108.0365633 128.5986977  78.8146958 107.7272755
 128.1206748  77.9809614 108.8970026 126.1241808  80.7984102 105.0192587
 125.2153028  80.5143135 105.1165057 126.1536892  81.2183180 104.1595894
 131.3561076  84.4090691 108.7883754 130.9023403  83.5681601 108.8448945
 130.7255042  85.0452090 109.1258535 130.2993995  75.3382677 110.0184422
 129.5616752  74.8260064 110.3494664 130.5520769  74.8983059 109.2067699
 129.7994015  86.2467188 109.7233573 130.0916989  86.8072245 109.0045938
 130.3092636  86.5395749 110.4786732 130.4005623  68.1158929 110.6126191
 130.7064499  67.2556293 110.3252106 131.1258227  68.7076550 110.4125185
 116.6929979  78.5189616 109.0007789 116.4954379  77.9258977 108.2758856
 116.1376643  78.2141826 109.7183728 124.6726702  78.4112722 111.1202382
 124.7275312  77.4586559 111.0444859 123.8617904  78.5672162 111.6043681
 125.8217896  82.3392845 102.3580665 125.3837326  81.6228704 101.8986303
 126.5628337  82.5668960 101.7965757 122.6119062  77.0289782 108.8792761
 121.7986928  77.3283953 109.2857953 123.1078056  76.6345471 109.5967243
 124.7627640  87.0247539 110.8127026 124.7203819  87.2508385 109.8835558
 125.6790339  86.7910914 110.9612827 128.2093274  77.4931607 117.7107655
 128.5642662  77.7203080 118.5702121 128.8565405  77.8249983 117.0884910
 133.9391011  80.6150043 108.4156984 133.8008909  80.8051638 107.4878173
 133.5827230  81.3769425 108.8725035 122.1033137  74.6008138 114.4953996
 122.7432516  74.4596897 113.7976959 121.2710668  74.3142651 114.1192598
 133.9660391  82.6826570 113.4268255 134.3996897  82.5901859 114.2751310
 134.6791971  82.6584070 112.7888271 122.8793441  83.9010568 110.6088988
 123.6734039  83.4060888 110.4071563 122.1685133  83.3728431 110.2456694
 127.6988285  86.2828664 114.9601356 127.7525308  86.8519600 115.7279072
 126.8303067  86.4530549 114.5955393 119.1876204  78.0453650 106.6848741
 118.2573793  77.9838105 106.9018703 119.2833676  77.5229603 105.8885382
 119.1061753  74.5708463 109.2726983 119.3668571  75.4853796 109.1636143
 119.9278926  74.1032905 109.4223596 120.5786679  75.9846220 116.4425807
 121.2509732  75.7763582 115.7938456 119.7516465  75.7868306 116.0031040
 134.8275940  82.7250270 115.9601141 135.0211830  83.6296081 116.2060416
 134.7276558  82.2657689 116.7939726 126.4812251  72.6108161 118.4591468
 125.8340166  73.3098110 118.3655945 127.2513266  73.0444305 118.8267716
 129.8891049  82.8757013 121.5342021 129.7376555  82.6467565 120.6172105
 129.8795728  83.8327614 121.5473366 126.6576385  80.4488926 116.5188288
 127.5868445  80.6000085 116.3457255 126.2367415  80.5372946 115.6636934
 125.4564717  84.4739590 114.2886826 125.3175803  84.1058374 115.1612764
 124.6679313  84.9887230 114.1170783 126.0512869  89.5748687 105.6312362
 126.2264625  89.1036730 106.4457985 125.3645657  90.2014453 105.8593623
 127.0069932  83.8521193 111.6775663 126.6719765  83.8121963 112.5733313
 126.5073878  83.1865909 111.2046074 120.9814176  79.2588823 117.2028244
 120.8433974  78.5269062 117.8039784 121.8919100  79.1697723 116.9212432
 129.9429124  81.1977227 101.9512723 129.3258294  80.4724055 101.8545776
 129.4745612  81.9586587 101.6079797 123.6096477  78.9708782 116.6911924
 124.3196095  78.3301974 116.6498543 123.5665785  79.2221677 117.6138105
 131.5983255  85.9076135 119.6118503 131.5395802  85.2235356 118.9449086
 132.0002774  86.6495125 119.1599129 122.3225411  75.9574000 118.5107564
 121.7862768  75.5064738 119.1629160 121.7342119  76.0919909 117.7678028
 120.6173954  92.7238049 112.4052222 120.8570552  93.3556573 113.0831241
 119.7743151  92.3726089 112.6917582 121.7327670  75.4162651 101.0734027
 120.8557136  75.2951452 100.7096274 122.2085423  74.6248730 100.8212916
 131.6000663  83.8715719 117.8432483 130.7127441  83.5341641 117.9658882
 132.1699214  83.1398751 118.0801248 113.2529810  80.2039811 111.1675534
 113.9400850  79.8901541 110.5796550 113.0977938  81.1081176 110.8942786
 118.0564532  75.0930008 115.5960558 117.9722721  74.4855677 114.8610968
 117.2347238  75.5839026 115.5970054 125.1301816  88.5317172 114.8093726
 125.0571988  89.3372143 115.3213031 124.6879209  88.7309138 113.9841748
 124.9191596  87.7688942 108.3196548 124.1359118  88.3110622 108.4134772
 125.6184341  88.2862921 108.7190789 128.2288246  73.5783571 110.9630753
 128.7256945  72.8253534 110.6431823 127.4575227  73.6147888 110.3973962
 136.0818003  79.2823937 112.6049045 136.0707879  80.1648652 112.2342978
 135.2135383  78.9295488 112.4103582 127.5900500  88.4304006 116.9651885
 128.3028472  89.0651471 116.8927786 127.0990528  88.5267872 116.1491887
 129.3118026  82.3355258 108.5369177 128.3774305  82.4556721 108.3673881
 129.4894695  81.4327725 108.2729186 124.8123215  75.7200954 110.6902438
 124.4421002  75.1671995 111.3783343 125.3082307  75.1159088 110.1377438
 132.6990578  78.1772578 109.0719211 133.1651030  79.0100569 108.9979513
 133.1498078  77.7117559 109.7764469 122.6412413  86.1798449 117.7857456
 123.3421873  86.8134932 117.9386850 122.1707528  86.5213181 117.0253095
 130.7666809  84.5216399 106.0705363 131.0426653  84.4072994 106.9799237
 129.8971308  84.1233884 106.0317536 130.6707241  70.5453165 113.1110112
 129.7570320  70.7757392 113.2792319 131.1000342  70.6291609 113.9624144
 130.4413699  78.7343057 115.6110006 129.7885149  78.9818964 114.9562459
 130.8194079  77.9207195 115.2772483 127.4020873  88.7702750 109.7138176
 127.5843267  87.9524406 110.1765929 128.2253859  88.9870442 109.2763066
 127.7363038  87.6970935 106.9753225 128.2650805  87.1863390 106.3623387
 127.9991258  87.3813465 107.8398758 126.4901272  79.4762868 122.0976043
 125.8141909  79.3756997 122.7678418 127.3128906  79.3202082 122.5612040
 118.2380131  85.7134804 114.7188558 118.8233568  84.9678492 114.8516463
 118.0404970  86.0238761 115.6025222 121.0918786  88.7486052 109.7351001
 120.4229162  89.2332179 109.2515041 120.9531656  88.9955272 110.6494379
 112.8297786  78.2840405 113.4393002 112.8681885  77.7503995 114.2330120
 112.3238079  77.7575610 112.8203979 125.2324055  90.7829795 116.3333659
 125.7842363  90.9461417 117.0982744 125.5730248  91.3734233 115.6613684
 120.2088548  73.1304945 116.9355544 120.2729875  73.9919776 116.5232942
 120.1455668  72.5178947 116.2027902 119.6840821  75.2028078 120.5828578
 120.3112860  74.8205155 121.1966102 118.8268740  74.9842280 120.9484271
 130.0834929  85.6091053 122.1882314 130.6274833  86.2221011 121.6937268
 129.5021774  86.1670631 122.7049327 116.4606363  77.0104507 106.5146933
 116.7559805  76.1015185 106.4613987 115.5594399  76.9892246 106.1927935
 128.3692442  88.7311771 113.3197341 128.2443582  87.9301511 112.8108287
 129.0271533  89.2257964 112.8311311 119.9900610  75.0860503 112.4974482
 119.2687196  75.6996471 112.3581955 120.7793866  75.6218268 112.4191127
 130.4327351  86.5320791 114.9476891 129.4857686  86.4126142 114.8755218
 130.7810124  85.6443289 115.0303153 122.7926924  72.4214930 118.7715133
 123.3161326  72.6677226 119.5341443 122.5739257  73.2534965 118.3518271
 118.1894205  74.6918604 106.6386258 117.8606911  73.8115983 106.4561364
 118.5433576  74.6366273 107.5262647 127.4373784  86.3273507 111.1481244
 127.2898746  85.3990214 111.3288814 128.2627277  86.3493598 110.6638319
 121.3036028  74.9791574 107.0061736 121.6432101  75.5077495 106.2840344
 121.7508149  75.3171980 107.7820302 131.0407906  87.1502066 112.2346116
 131.9654453  86.9444927 112.0970568 130.8723209  86.9018467 113.1435458
 123.9979469  73.3628625 116.4564804 123.6576289  72.5636438 116.8585484
 123.2918475  73.6630336 115.8841637 124.6495941  70.4477937 114.9092127
 125.4722010  69.9738415 114.7871017 124.8934004  71.2268421 115.4090813
 123.2904175  73.4766196 105.2055029 124.0112538  73.8547449 104.7018745
 122.6669479  74.1955073 105.3090006 127.4335298  74.1811345 106.1413361
 127.6498913  75.0635983 105.8402189 126.9529365  73.7897558 105.4119003
 122.1734520  77.1397058 112.7184105 122.0279100  77.4537361 113.6108387
 121.6959723  77.7581958 112.1655004 124.0330903  74.1299606 112.7664995
 124.0192471  73.2340699 112.4297293 124.7503331  74.1370270 113.4003281
 125.8857033  74.5636946 114.8118122 125.6274811  75.4854017 114.8102453
 125.3542074  74.1667381 115.5018587 130.8303222  87.6687733 107.5908208
 131.0040100  87.1034156 106.8382060 131.3232113  88.4688628 107.4087698
 116.6480182  79.6802402 115.6571767 116.1033650  80.4562210 115.7892041
 117.5259532  80.0273207 115.4990888 123.4367798  73.0113986 108.0352565
 123.5583710  72.0830632 108.2343453 123.1469841  73.0252672 107.1230881
 126.3058989  70.6968897 111.1719285 126.3280686  70.7608230 110.2171265
 126.7227048  69.8573405 111.3659791 136.6842613  80.4324156 109.2098508
 137.1273759  79.6831481 108.8117631 135.8069123  80.4234293 108.8272240
 131.8178394  86.9854498 104.6905106 132.5129299  87.6061190 104.9092421
 132.1601545  86.1349849 104.9657484 117.4346204  78.8072299 118.5501923
 116.6927940  78.9554934 119.1366554 117.1138948  79.0680564 117.6868673
 133.7169818  84.4354203 106.2192437 134.2421142  84.7741476 105.4941757
 133.6292170  83.5001218 106.0355571 125.3789866  88.3488277 118.3482313
 125.6876993  88.1037424 119.2205013 126.1765348  88.5534915 117.8601184
 125.4010478  90.5026186 110.5787690 124.9615469  90.0102565 111.2720547
 126.1518595  89.9599154 110.3379765 117.8802817  86.6937727 110.5812318
 118.7060837  86.3941499 110.2010962 117.5296869  85.9245350 111.0302107
 122.8484350  86.0464196 112.6509992 122.2264360  85.3834901 112.3512220
 123.5189217  86.0725327 111.9683639 116.0811422  84.6124054 111.5401252
 115.2443331  84.1846228 111.3585253 116.0535068  84.8056497 112.4772043
 122.9208878  74.5245984 122.2442498 122.9697033  75.4008106 121.8620267
 123.4631392  73.9823377 121.6714141 133.4063724  85.0687107 121.5243635
 132.6159267  85.0511246 120.9848134 133.1697078  85.6075400 122.2792671
 133.5261599  81.9179573 118.8376363 133.5759604  81.7529581 119.7791886
 133.4175522  81.0506832 118.4474244 122.4097857  84.5968119 106.1268452
 122.5585978  85.2803583 105.4735125 123.2164301  84.5773209 106.6417908
 130.8165361  77.9010501 120.1535670 131.7175224  77.7616966 119.8619668
 130.8913336  78.0664956 121.0933848 125.1508166  75.2777356 118.9988856
 124.2811476  75.5710922 118.7271445 125.3867647  75.8617801 119.7196120
 135.0279796  84.3376515 119.0818385 134.7364604  84.7006495 119.9181846
 134.4151927  83.6243523 118.9031717 136.2275478  81.9029394 111.6020955
 137.0622369  82.3419199 111.7658515 136.3634607  81.4268048 110.7829201
 133.2766984  79.4609129 117.5498443 133.7521105  79.6536776 116.7417294
 132.3532549  79.5168315 117.3041827 120.1650490  80.6233297 107.1329521
 119.9196532  79.7195627 107.3309731 120.3346405  80.6250447 106.1908999
 127.8547200  71.4956973 116.5154277 128.3729144  72.2318000 116.1900765
 127.5002333  71.8020966 117.3501036 119.4346138  76.3561654 104.6315683
 118.7415383  76.4306009 103.9755719 119.1897890  75.5921998 105.1537200
 128.1059794  67.9157255 112.0355173 128.3861548  67.2480444 112.6615600
 128.8910401  68.1086351 111.5229837 125.9093263  87.0916249 103.5980200
 125.3367230  87.7106436 103.1450672 126.4826057  87.6415611 104.1320122
 131.9768653  76.3374889 115.7826748 132.9286076  76.4372987 115.8038973
 131.8072103  75.5453158 116.2924833 129.9983032  73.4230473 115.9686149
 129.4032964  73.7035485 115.2732638 129.7132729  73.9124374 116.7402891
 129.1290523  87.3753399 104.7288782 130.0621196  87.3098961 104.9321657
 129.0413736  88.2109666 104.2703315 131.7578539  86.6919270 101.6892730
 131.6792171  86.3579133 102.5828487 132.5788206  87.1841038 101.6884202
 134.4556731  79.5581009 114.8969048 134.4233051  78.6197010 115.0828732
 135.0657354  79.6365046 114.1634873 126.2940061  78.4277062 100.9396252
 127.2399166  78.2983270 101.0084670 125.9154306  77.6891724 101.4165680
 134.6051219  76.3492053 114.9427331 134.0890268  75.5650509 114.7557260
 135.4891168  76.0210769 115.1073851 132.2661946  70.0933068 110.9023144
 132.0686767  69.7848156 111.7866476 132.8761652  70.8194707 111.0321074
 140.2733280  80.6197016 114.0375085 141.0036669  80.3582304 114.5982788
 139.6640226  79.8825738 114.0777153 138.3548578  78.7604879 114.6349536
 137.6281741  78.6260843 114.0266028 137.9395864  79.0681707 115.4406254
 126.1778754  82.4794808 122.3996909 127.0981763  82.6573407 122.5936956
 126.1428337  81.5350854 122.2476608 124.4782979  76.3527038 100.8751137
 123.5714434  76.0560151 100.9513851 124.7558960  76.0556857 100.0085424
 115.3960919  77.6733402 111.3250184 115.0763703  76.8198710 111.0324558
 114.8494347  77.8881980 112.0808151 119.1740827  80.3895843 115.0419690
 119.3926836  81.3212951 115.0607724 119.5866600  80.0303817 115.8274494
 126.0945044  70.8963928 107.0295379 125.2845773  70.5511013 107.4050625
 126.7829461  70.5871472 107.6182990 128.0235593  69.9741975 108.6519675
 128.5766631  70.3937428 109.3109698 128.2605679  69.0477723 108.6942631
 124.0468692  75.9629049 124.4322439 123.9465419  76.9123406 124.3634530
 123.8290234  75.6347288 123.5598509 123.2481763  73.2113974 101.0163117
 124.1100927  73.5368872 101.2758934 123.4332107  72.4245470 100.5036182
 115.2649179  81.2936313 113.2943305 114.5712650  80.8790266 112.7813260
 116.0122170  81.3356850 112.6976724 131.4014400  72.0842500 108.1598340
 130.8213069  72.7427304 107.7776392 131.1350332  71.2619845 107.7485757
 129.8517966  71.4847558 110.3619660 130.3517744  71.5964092 109.5533979
 130.4953574  71.1808611 111.0020468 123.9099962  79.3926187 123.2487501
 123.4267044  80.1926548 123.4551390 123.9960901  79.4034132 122.2954945
 117.1785921  81.2254567 111.1709320 117.1556610  81.3242254 110.2191203
 117.4886558  82.0719718 111.4926486 119.8373299  83.2830722 115.2855935
 120.7916553  83.2514665 115.2185866 119.6385823  82.8221346 116.1006161
 120.4272681  81.8531838 117.8526732 121.2465570  82.3475917 117.8761570
 120.7009489  80.9363806 117.8244300 130.1839278  74.2442591 107.2154688
 129.2965133  74.5292241 106.9974883 130.5993267  74.0836354 106.3681965
 133.5353814  74.2689112 110.9309027 134.3114204  74.7585564 111.2033644
 132.8101948  74.6947166 111.3880897 135.9726372  74.9816731 111.9882968
 136.5670863  74.7412467 111.2776276 136.0452956  74.2623861 112.6156504
 118.1923528  88.8250342 112.3026133 118.0577996  88.0650743 111.7364131
 117.7755590  89.5491242 111.8354921 129.3282491  84.0087265 101.3102708
 130.0318341  84.2137268 101.9260363 128.6045140  84.5764027 101.5751791
 130.1580301  79.7597126 107.4304978 130.1015503  80.2165678 106.5912610
 130.7108644  78.9987811 107.2527821 133.9685107  75.5486858 108.2555098
 133.7122042  75.1483494 109.0863305 133.3437975  76.2630652 108.1305237
 138.2797445  78.2882932 110.7626389 137.7197003  78.3576121 111.5357951
 137.6740949  78.1123916 110.0425885 121.3492654  89.7219659 112.5144575
 121.2325038  90.6665091 112.4123265 120.5285100  89.4193220 112.9030374
 131.2369189  84.4469794 103.3601168 132.0714793  84.0150993 103.1778643
 131.0753531  84.2751808 104.2878062 130.8915081  80.9501908 104.7257507
 130.8363885  80.7846179 103.7845951 130.2661136  81.6577941 104.8819697
 115.6807596  76.1869972 118.5518929 116.3266459  75.6768926 119.0406155
 115.4724747  76.9238654 119.1262355 128.2060988  83.2550820 124.0511070
 129.0752148  83.4291472 123.6897705 127.7267739  84.0745236 123.9286799
 124.2011206  70.4510017 104.3042826 124.1889876  71.3951857 104.4611096
 125.0934628  70.2680162 104.0102287 122.3747168  90.3747921 115.7300504
 123.2774415  90.4071531 116.0466999 122.1484538  89.4448372 115.7446839
 124.1300770  89.1278907 112.3910582 123.1796401  89.1280769 112.2774955
 124.4333256  88.3811642 111.8746617 128.0163326  67.0452793 108.5588762
 127.2495721  66.4911280 108.7045445 128.4274031  67.1174662 109.4202914
 120.0205087  73.3337589 122.6493944 120.8836548  72.9774394 122.8597268
 119.4470497  72.9951484 123.3369348 139.8653464  94.9639446 113.4556345
 140.5031874  94.8446193 112.7519685 139.7474307  95.9120289 113.5144297
 136.6743170  94.9166874 113.3917869 136.3361681  94.8007938 112.5038404
 137.5432938  94.5158039 113.3718875 132.5329986  96.7702350 109.3814760
 131.9694851  96.6792287 108.6131048 132.4182381  95.9502254 109.8617253
 130.0794418  98.2653542 112.2198981 130.8715709  97.9244366 111.8045280
 130.3191068  98.3748517 113.1401134 138.1129544 100.4373318 104.6929225
 137.4617524 101.0227398 104.3063239 138.9073907 100.9679513 104.7524263
 132.0385172  97.5262455 105.0916360 132.8116048  96.9791442 104.9529235
 132.3910570  98.3906704 105.3030821 134.8026421  96.2315686 114.8884618
 135.3989993  96.0071708 114.1741581 134.8601392  95.4900431 115.4910066
 134.3751449  93.6855121 102.7234809 134.6276970  93.1636642 101.9618272
 133.4376008  93.5221266 102.8261493 139.4194732  92.6890899 110.5309553
 140.2057821  92.2710323 110.1799970 139.6833436  93.5936992 110.6991201
 139.5904810  98.1263750 105.2298210 138.9550642  98.1998376 105.9419114
 139.2602216  98.7157348 104.5517289 134.0947738  95.5883227 104.9259184
 133.9783996  94.9128130 105.5940269 134.2049998  95.1015601 104.1091337
 136.4379279  95.0493374 108.6305874 136.0737486  94.5223995 109.3418795
 137.2946395  94.6591843 108.4572359 142.3428580  86.3387707 115.8937140
 142.0111904  87.2083118 115.6698355 141.7474193  86.0223991 116.5731170
 136.0784766  90.0783274 103.6267222 136.2459168  90.9463510 103.9937693
 135.8881935  90.2410555 102.7028511 138.8360099  98.5400253 115.2933053
 138.5360822  99.4425291 115.1848860 138.4911159  98.2732436 116.1454205
 132.2872581  94.9914049 111.3269757 131.3623077  94.8590264 111.5347449
 132.5356994  95.7708269 111.8239699 142.2357243  91.0582793 112.9730490
 141.3274120  90.9898201 112.6789251 142.1844839  91.5354738 113.8012315
 136.0573987  92.5340931 104.6113889 135.9373612  92.9797982 105.4499369
 135.3626575  92.8826249 104.0527427 129.6481392  94.6347323 112.1613546
 129.7773773  94.8881802 113.0752958 128.9678843  95.2275031 111.8418201
 133.8180879 105.3044573 108.2604020 133.7404909 106.2552398 108.3392501
 133.2142523 104.9590446 108.9178947 141.7559053  93.0062404 105.4394223
 142.6676909  93.2389791 105.2641921 141.2468700  93.5899449 104.8769302
 134.5644481  95.2857892 120.4783354 135.3059165  95.8242936 120.2018178
 133.8581467  95.9124181 120.6354906 136.3930891  92.3659639 116.4489073
 137.2392086  92.7899053 116.5923722 136.3329528  91.7093263 117.1427636
 140.3628635  97.9888223 112.8307805 139.7337498  98.1533937 112.1283872
 139.9754297  98.4029832 113.6018769 139.5430336  90.0264007 118.1070246
 139.2991268  90.7806068 117.5704522 139.8190267  90.4049355 118.9417493
 141.4968799  96.5702620 116.7847512 141.7085694  97.2134380 116.1081893
 141.4498547  95.7364936 116.3169442 139.0995028  89.1820440 113.6884084
 138.2379507  89.4801694 113.9800822 139.1257462  89.3990839 112.7565117
 135.9156597  97.7262631 110.0957890 136.3794943  98.0050334 109.3062512
 135.6513395  96.8246076 109.9130980 132.8080678  97.2734113 113.0337653
 133.3782035  97.7021381 112.3955137 133.3988790  96.9916697 113.7321839
 134.8525483  93.8485783 106.9047455 135.5549527  94.3006827 107.3721381
 134.5206112  93.2069602 107.5327348 133.3005845  92.4397540 121.2798664
 132.6704505  93.1213821 121.5134061 133.1941933  92.3280622 120.3351802
 128.5950817  92.1069336 112.2064588 127.8049871  92.3626865 111.7304699
 129.0862065  92.9217674 112.3116629 130.5465563  92.4713915 109.1648065
 129.7496726  92.5832609 109.6831561 130.3191155  92.8100567 108.2988956
 126.8788520  92.3599826 114.6379579 127.1296559  93.2446836 114.9037155
 127.4148069  92.1804428 113.8654671 136.0919248 100.6626726 106.9809560
 135.9564923 101.5078262 107.4094408 136.6329060 100.8646004 106.2175494
 132.5786588  86.7418306 123.6423915 132.1853533  86.1884504 124.3171559
 133.3952728  87.0528884 124.0330433 129.5448645  98.1802164 107.5537485
 130.0573166  98.9745414 107.7043050 130.1971358  97.4828454 107.4871087
 131.3543530 101.2967920 109.6360238 131.5310158 102.2185885 109.4481222
 132.1500363 100.9826339 110.0654618 135.4954549  88.1576185 121.2344172
 136.2364262  88.7583338 121.1548634 135.7272471  87.4153823 120.6762214
 130.6395887  93.3432552 119.5122401 130.5249402  92.4417809 119.8129500
 129.7840404  93.5896249 119.1607218 132.4774845 102.8146094 115.6370581
 133.0282271 102.6863157 114.8647574 131.6386321 103.1140983 115.2865473
 139.4411711  84.1857288 115.5108453 139.0975981  85.0758930 115.4347564
 139.8090674  83.9958945 114.6478038 127.5097562  96.5090818 108.3297056
 128.3472784  96.9187827 108.1130763 127.6875830  95.5690260 108.2997249
 139.4061994  94.1765899 104.0180889 138.8908618  94.9470504 104.2569276
 139.1339303  93.5031035 104.6413950 136.9909105  89.0215600 109.0766127
 136.1350702  88.6322450 108.8971766 137.4036057  89.1007561 108.2165912
 138.5208252  86.5561943 113.4757687 138.0173047  86.5192078 112.6625492
 138.8138859  87.4654686 113.5354343 134.7651138  86.6400673 112.4823868
 135.6304134  86.4443481 112.1229758 134.8328647  86.4111024 113.4093225
 139.1948297  92.0492991 105.8440670 138.8898433  92.3639140 106.6950813
 140.1478739  92.1274411 105.8868003 137.6394729  98.2083214 107.4933624
 137.1116091  97.4735974 107.1806861 137.1382232  98.9857891 107.2473592
 142.6187575  96.4032235 112.6100670 141.9611250  97.0931496 112.6980799
 143.4227974  96.7928667 112.9534656 132.3713457  88.8702881 109.8540235
 132.9457209  88.6478062 109.1213428 132.9584439  88.9391575 110.6068837
 141.4293034  94.7576608 110.6604612 141.9424916  95.3906599 111.1626321
 142.0794258  94.1577803 110.2947972 132.6983044  90.9007342 103.8736120
 131.8620356  91.2382028 104.1945395 132.5587814  90.7656321 102.9363257
 134.6736125  85.7444130 108.5815305 134.0200537  85.4293147 107.9571919
 134.6316599  85.1219870 109.3075128 135.7847329  96.0263425 100.4968597
 134.8774391  95.7952678 100.6959746 136.2818361  95.2301044 100.6842578
 138.6915408 104.7360932 103.4165283 138.0177107 105.0392629 104.0250241
 139.0781230 105.5390012 103.0670740 137.9073865  92.2326063 112.9062952
 136.9896426  92.4541010 112.7484640 138.3234008  92.3072374 112.0474660
 138.6908913  93.6317479 108.0365633 139.4380732  94.1438876 107.7272755
 138.9600502  93.3101531 108.8970026 136.9635563  96.1276019 105.0192587
 136.0546782  95.8435052 105.1165057 136.9930647  96.5475098 104.1595894
 142.1954830  99.7382609 108.7883754 141.7417157  98.8973519 108.8448945
 141.5648797 100.3744007 109.1258535 141.1387750  90.6674595 110.0184422
 140.4010507  90.1551981 110.3494664 141.3914523  90.2274977 109.2067699
 140.6387769 101.5759106 109.7233573 140.9310744 102.1364163 109.0045938
 141.1486390 101.8687667 110.4786732 141.2399377  83.4450847 110.6126191
 141.5458254  82.5848210 110.3252106 141.9651982  84.0368467 110.4125185
 127.5323733  93.8481534 109.0007789 127.3348133  93.2550894 108.2758856
 126.9770397  93.5433744 109.7183728 135.5120457  93.7404640 111.1202382
 135.5669067  92.7878476 111.0444859 134.7011659  93.8964079 111.6043681
 136.6611651  97.6684763 102.3580665 136.2231081  96.9520622 101.8986303
 137.4022091  97.8960878 101.7965757 133.4512817  92.3581700 108.8792761
 132.6380682  92.6575870 109.2857953 133.9471811  91.9637389 109.5967243
 135.6021395 102.3539457 110.8127026 135.5597573 102.5800303 109.8835558
 136.5184094 102.1202831 110.9612827 139.0487028  92.8223524 117.7107655
 139.4036416  93.0494997 118.5702121 139.6959160  93.1541901 117.0884910
 132.9426892  89.9300055 114.4953996 133.5826271  89.7888814 113.7976959
 132.1104422  89.6434569 114.1192598 133.7187195  99.2302486 110.6088988
 134.5127794  98.7352806 110.4071563 133.0078888  98.7020349 110.2456694
 130.0269959  93.3745568 106.6848741 129.0967547  93.3130023 106.9018703
 130.1227431  92.8521520 105.8885382 129.9455508  89.9000380 109.2726983
 130.2062325  90.8145714 109.1636143 130.7672680  89.4324823 109.4223596
 131.4180433  91.3138138 116.4425807 132.0903487  91.1055500 115.7938456
 130.5910220  91.1160224 116.0031040 137.3206005  87.9400078 118.4591468
 136.6733920  88.6390028 118.3655945 138.0907021  88.3736222 118.8267716
 137.4970140  95.7780843 116.5188288 138.4262200  95.9292003 116.3457255
 137.0761170  95.8664864 115.6636934 136.2958471  99.8031508 114.2886826
 136.1569557  99.4350292 115.1612764 135.5073068 100.3179147 114.1170783
 136.8906623 104.9040604 105.6312362 137.0658379 104.4328647 106.4457985
 136.2039411 105.5306370 105.8593623 137.8463687  99.1813110 111.6775663
 137.5113519  99.1413880 112.5733313 137.3467632  98.5157826 111.2046074
 131.8207931  94.5880740 117.2028244 131.6827728  93.8560979 117.8039784
 132.7312854  94.4989641 116.9212432 140.7822878  96.5269145 101.9512723
 140.1652049  95.8015973 101.8545776 140.3139367  97.2878505 101.6079797
 134.4490231  94.3000700 116.6911924 135.1589850  93.6593892 116.6498543
 134.4059539  94.5513595 117.6138105 133.1619165  91.2865918 118.5107564
 132.6256522  90.8356656 119.1629160 132.5735874  91.4211827 117.7678028
 131.4567709 108.0529967 112.4052222 131.6964307 108.6848491 113.0831241
 130.6136905 107.7018007 112.6917582 132.5721424  90.7454569 101.0734027
 131.6950890  90.6243370 100.7096274 133.0479177  89.9540647 100.8212916
 124.0923564  95.5331729 111.1675534 124.7794604  95.2193459 110.5796550
 123.9371693  96.4373093 110.8942786 128.8958286  90.4221925 115.5960558
 128.8116475  89.8147595 114.8610968 128.0740993  90.9130944 115.5970054
 135.7585350 103.0980859 108.3196548 134.9752872 103.6402540 108.4134772
 136.4578095 103.6154839 108.7190789 139.0682000  88.9075489 110.9630753
 139.5650700  88.1545451 110.6431823 138.2968982  88.9439806 110.3973962
 140.1511781  97.6647176 108.5369177 139.2168060  97.7848639 108.3673881
 140.3288449  96.7619643 108.2729186 135.6516969  91.0492872 110.6902438
 135.2814757  90.4963912 111.3783343 136.1476061  90.4451005 110.1377438
 141.6060563  99.8508317 106.0705363 141.8820407  99.7364911 106.9799237
 140.7365062  99.4525802 106.0317536 141.5100995  85.8745082 113.1110112
 140.5964075  86.1049309 113.2792319 141.9394097  85.9583526 113.9624144
 141.2807454  94.0634974 115.6110006 140.6278904  94.3110882 114.9562459
 141.6587833  93.2499113 115.2772483 138.2414627 104.0994668 109.7138176
 138.4237022 103.2816323 110.1765929 139.0647613 104.3162360 109.2763066
 138.5756793 103.0262853 106.9753225 139.1044559 102.5155307 106.3623387
 138.8385013 102.7105383 107.8398758 129.0773886 101.0426722 114.7188558
 129.6627322 100.2970410 114.8516463 128.8798724 101.3530679 115.6025222
 131.9312541 104.0777969 109.7351001 131.2622916 104.5624097 109.2515041
 131.7925411 104.3247190 110.6494379 123.6691540  93.6132322 113.4393002
 123.7075640  93.0795913 114.2330120 123.1631833  93.0867528 112.8203979
 131.0482303  88.4596863 116.9355544 131.1123629  89.3211694 116.5232942
 130.9849423  87.8470864 116.2027902 130.5234575  90.5319995 120.5828578
 131.1506614  90.1497073 121.1966102 129.6662494  90.3134197 120.9484271
 127.3000118  92.3396424 106.5146933 127.5953559  91.4307103 106.4613987
 126.3988154  92.3184164 106.1927935 139.2086197 104.0603688 113.3197341
 139.0837336 103.2593428 112.8108287 139.8665288 104.5549882 112.8311311
 130.8294365  90.4152421 112.4974482 130.1080951  91.0288389 112.3581955
 131.6187621  90.9510186 112.4191127 133.6320678  87.7506847 118.7715133
 134.1555080  87.9969144 119.5341443 133.4133012  88.5826882 118.3518271
 129.0287960  90.0210522 106.6386258 128.7000666  89.1407901 106.4561364
 129.3827330  89.9658191 107.5262647 138.2767538 101.6565425 111.1481244
 138.1292501 100.7282132 111.3288814 139.1021032 101.6785515 110.6638319
 132.1429783  90.3083492 107.0061736 132.4825855  90.8369413 106.2840344
 132.5901903  90.6463898 107.7820302 141.8801660 102.4793983 112.2346116
 142.8048208 102.2736845 112.0970568 141.7116964 102.2310385 113.1435458
 134.8373224  88.6920543 116.4564804 134.4970044  87.8928356 116.8585484
 134.1312230  88.9922253 115.8841637 135.4889695  85.7769855 114.9092127
 136.3115765  85.3030333 114.7871017 135.7327759  86.5560339 115.4090813
 134.1297930  88.8058113 105.2055029 134.8506292  89.1839366 104.7018745
 133.5063234  89.5246990 105.3090006 138.2729053  89.5103262 106.1413361
 138.4892667  90.3927900 105.8402189 137.7923120  89.1189476 105.4119003
 133.0128274  92.4688976 112.7184105 132.8672855  92.7829279 113.6108387
 132.5353478  93.0873876 112.1655004 134.8724657  89.4591524 112.7664995
 134.8586226  88.5632617 112.4297293 135.5897085  89.4662187 113.4003281
 136.7250788  89.8928864 114.8118122 136.4668566  90.8145934 114.8102453
 136.1935828  89.4959298 115.5018587 141.6696976 102.9979651 107.5908208
 141.8433854 102.4326073 106.8382060 142.1625868 103.7980546 107.4087698
 127.4873936  95.0094320 115.6571767 126.9427404  95.7854128 115.7892041
 128.3653286  95.3565124 115.4990888 134.2761553  88.3405904 108.0352565
 134.3977464  87.4122550 108.2343453 133.9863595  88.3544590 107.1230881
 137.1452743  86.0260814 111.1719285 137.1674440  86.0900147 110.2171265
 137.5620802  85.1865323 111.3659791 142.6572149 102.3146415 104.6905106
 143.3523054 102.9353108 104.9092421 142.9995299 101.4641767 104.9657484
 128.2739958  94.1364216 118.5501923 127.5321694  94.2846852 119.1366554
 127.9532702  94.3972482 117.6868673 136.2404233 105.8318104 110.5787690
 135.8009223 105.3394483 111.2720547 136.9912350 105.2891072 110.3379765
 128.7196572 102.0229645 110.5812318 129.5454592 101.7233417 110.2010962
 128.3690624 101.2537267 111.0302107 133.6878105 101.3756113 112.6509992
 133.0658114 100.7126818 112.3512220 134.3582972 101.4017245 111.9683639
 126.9205177  99.9415971 111.5401252 126.0837085  99.5138146 111.3585253
 126.8928822 100.1348415 112.4772043 133.7602632  89.8537901 122.2442498
 133.8090788  90.7300024 121.8620267 134.3025147  89.3115294 121.6714141
 133.2491612  99.9260037 106.1268452 133.3979732 100.6095501 105.4735125
 134.0558055  99.9065127 106.6417908 135.9901921  90.6069274 118.9988856
 135.1205230  90.9002840 118.7271445 136.2261401  91.1909719 119.7196120
 131.0044245  95.9525214 107.1329521 130.7590287  95.0487544 107.3309731
 131.1740159  95.9542365 106.1908999 138.6940955  86.8248891 116.5154277
 139.2122899  87.5609917 116.1900765 138.3396088  87.1312884 117.3501036
 130.2739892  91.6853572 104.6315683 129.5809137  91.7597927 103.9755719
 130.0291644  90.9213915 105.1537200 138.9453549  83.2449173 112.0355173
 139.2255303  82.5772362 112.6615600 139.7304156  83.4378269 111.5229837
 136.7487017 102.4208167 103.5980200 136.1760985 103.0398354 103.1450672
 137.3219811 102.9707529 104.1320122 140.8376787  88.7522390 115.9686149
 140.2426719  89.0327403 115.2732638 140.5526483  89.2416291 116.7402891
 139.9684277 102.7045317 104.7288782 140.9014950 102.6390879 104.9321657
 139.8807490 103.5401584 104.2703315 142.5972294 102.0211187 101.6892730
 142.5185925 101.6871051 102.5828487 143.4181961 102.5132955 101.6884202
 137.1333816  93.7568980 100.9396252 138.0792921  93.6275188 101.0084670
 136.7548061  93.0183642 101.4165680 135.3176733  91.6818956 100.8751137
 134.4108188  91.3852069 100.9513851 135.5952714  91.3848774 100.0085424
 126.2354673  93.0025320 111.3250184 125.9157458  92.1490628 111.0324558
 125.6888102  93.2173898 112.0808151 130.0134581  95.7187761 115.0419690
 130.2320591  96.6504868 115.0607724 130.4260355  95.3595735 115.8274494
 136.9338799  86.2255846 107.0295379 136.1239527  85.8802931 107.4050625
 137.6223216  85.9163390 107.6182990 138.8629347  85.3033893 108.6519675
 139.4160386  85.7229346 109.3109698 139.0999433  84.3769641 108.6942631
 134.0875518  88.5405891 101.0163117 134.9494682  88.8660790 101.2758934
 134.2725862  87.7537387 100.5036182 126.1042933  96.6228231 113.2943305
 125.4106405  96.2082184 112.7813260 126.8515924  96.6648768 112.6976724
 142.2408154  87.4134418 108.1598340 141.6606823  88.0719222 107.7776392
 141.9744087  86.5911762 107.7485757 140.6911721  86.8139476 110.3619660
 141.1911499  86.9256010 109.5533979 141.3347328  86.5100528 111.0020468
 128.0179676  96.5546485 111.1709320 127.9950364  96.6534172 110.2191203
 128.3280312  97.4011636 111.4926486 130.6767054  98.6122640 115.2855935
 131.6310307  98.5806582 115.2185866 130.4779577  98.1513264 116.1006161
 131.2666436  97.1823756 117.8526732 132.0859325  97.6767835 117.8761570
 131.5403244  96.2655724 117.8244300 141.0233032  89.5734508 107.2154688
 140.1358887  89.8584159 106.9974883 141.4387021  89.4128272 106.3681965
 129.0317283 104.1542259 112.3026133 128.8971751 103.3942660 111.7364131
 128.6149345 104.8783159 111.8354921 140.1676246  99.3379183 101.3102708
 140.8712096  99.5429185 101.9260363 139.4438894  99.9055945 101.5751791
 140.9974056  95.0889044 107.4304978 140.9409257  95.5457596 106.5912610
 141.5502398  94.3279729 107.2527821 132.1886409 105.0511576 112.5144575
 132.0718793 105.9957009 112.4123265 131.3678855 104.7485138 112.9030374
 142.0762943  99.7761712 103.3601168 142.9108547  99.3442911 103.1778643
 141.9147286  99.6043726 104.2878062 141.7308835  96.2793825 104.7257507
 141.6757639  96.1138097 103.7845951 141.1054891  96.9869858 104.8819697
 126.5201350  91.5161890 118.5518929 127.1660214  91.0060844 119.0406155
 126.3118501  92.2530571 119.1262355 135.0404961  85.7801934 104.3042826
 135.0283631  86.7243774 104.4611096 135.9328383  85.5972080 104.0102287
 134.9694525 104.4570825 112.3910582 134.0190156 104.4572686 112.2774955
 135.2727011 103.7103559 111.8746617 138.8557080  82.3744711 108.5588762
 138.0889476  81.8203198 108.7045445 139.2667785  82.4466580 109.4202914
 130.8598841  88.6629507 122.6493944 131.7230303  88.3066312 122.8597268
 130.2864252  88.3243402 123.3369348 141.3859317 107.8005833 109.1648065
 140.5890480 107.9124527 109.6831561 141.1584909 108.1392485 108.2988956
 138.3491317 111.8382736 108.3297056 139.1866539 112.2479744 108.1130763
 138.5269584 110.8982178 108.2997249 138.3717488 109.1773451 109.0007789
 138.1741887 108.5842812 108.2758856 137.8164152 108.8725661 109.7183728
 140.8663713 108.7037485 106.6848741 139.9361301 108.6421941 106.9018703
 140.9621185 108.1813438 105.8885382 140.7849262 105.2292298 109.2726983
 141.0456080 106.1437631 109.1636143 141.6066435 104.7616741 109.4223596
 134.9317319 110.8623647 111.1675534 135.6188359 110.5485377 110.5796550
 134.7765447 111.7665011 110.8942786 138.1393872 107.6688342 106.5146933
 138.4347314 106.7599020 106.4613987 137.2381908 107.6476081 106.1927935
 139.8681714 105.3502440 106.6386258 139.5394420 104.4699819 106.4561364
 140.2221085 105.2950108 107.5262647 142.9823537 105.6375409 107.0061736
 143.3219610 106.1661331 106.2840344 143.4295658 105.9755816 107.7820302
 141.8437999 111.2817132 107.1329521 141.5984041 110.3779462 107.3309731
 142.0133914 111.2834282 106.1908999 141.1133647 107.0145489 104.6315683
 140.4202892 107.0889844 103.9755719 140.8685399 106.2505833 105.1537200
 137.0748428 108.3317237 111.3250184 136.7551212 107.4782545 111.0324558
 136.5281856 108.5465815 112.0808151  75.8825646  -1.3743924  98.9444287
  76.6746938  -1.7153100  98.5290587  76.1222297  -1.2648949  99.8646441
  83.9160773   0.7975852  91.4174532  83.2648753   1.3829932  91.0308546
  84.7105136   1.3282047  91.4769569  79.6801443  -0.7858629 105.0228565
  79.3891309   0.1187002 104.9075232  80.3158427  -0.7442101 105.7372635
  79.6212108   5.6647107  94.9849327  79.5436137   6.6154932  95.0637807
  79.0173751   5.3192980  95.6424253  81.8950477   1.0229260  93.7054867
  81.7596151   1.8680796  94.1339714  82.4360289   1.2248538  92.9420800
  75.3479874  -1.4595302  94.2782792  75.8604395  -0.6652052  94.4288356
  76.0002587  -2.1569011  94.2116393  77.1574759   1.6570454  96.3605545
  77.3341387   2.5788419  96.1726529  77.9531592   1.3428874  96.7899925
  83.5218953   1.6452827 107.8355209  83.0782807   0.8589205 107.5176113
  84.1836167   1.8331977 107.1699099  78.2806074   3.1748628 102.3615887
  78.8313499   3.0465692 101.5892881  77.4417550   3.4743517 102.0110780
  85.6200191   1.9255627 105.8636610  85.6018666   2.7464508 105.3716879
  86.5420111   1.8009702 106.0886751  84.4946637   5.0963466  90.1410590
  83.8208336   5.3995163  90.7495547  84.8812459   5.8992546  89.7916047
  86.4418998   1.9361640  96.4478879  86.7341973   2.4966697  95.7291245
  86.9517619   2.2290201  97.2032038  81.4052623   2.7141991  97.5372332
  81.3628802   2.9402837  96.6080864  82.3215322   2.4805366  97.6858134
  84.3413269   1.9723116 101.6846663  84.3950291   2.5414052 102.4524379
  83.4728050   2.1425001 101.3200700  82.0989700   0.1634042 101.0132132
  81.9600786  -0.2047174 101.8858070  81.3104296   0.6781681 100.8416090
  82.6937852   5.2643138  92.3557669  82.8689608   4.7931182  93.1703291
  82.0070640   5.8908905  92.5838929  77.2598937   8.4132501  99.1297529
  77.4995536   9.0451025  99.8076547  76.4168134   8.0620541  99.4162888
  81.7726799   4.2211624 101.5339033  81.6996971   5.0266595 102.0458337
  81.3304192   4.4203589 100.7087054  81.5616579   3.4583394  95.0441854
  80.7784101   4.0005074  95.1380079  82.2609324   3.9757373  95.4436096
  84.2325483   4.1198458 103.6897192  84.9453455   4.7545923 103.6173093
  83.7415512   4.2162324 102.8737193  79.2837396   1.8692901 104.5102762
  79.9846856   2.5029384 104.6632157  78.8132511   2.2107633 103.7498402
  84.0445856   4.4597202  96.4383483  84.2268251   3.6418858  96.9011235
  84.8678842   4.6764894  96.0008373  84.3788022   3.3865387  93.6998531
  84.9075788   2.8757841  93.0868694  84.6416241   3.0707917  94.5644064
  74.8805114   1.4029256 101.4433865  75.4658551   0.6572944 101.5761769
  74.6829953   1.7133213 102.3270529  77.7343770   4.4380504  96.4596307
  77.0654145   4.9226631  95.9760347  77.5956639   4.6849724  97.3739686
  81.8749038   6.4724247 103.0578966  82.4267346   6.6355869 103.8228051
  82.2155232   7.0628685 102.3858991  85.0117426   4.4206223 100.0442648
  84.8868565   3.6195962  99.5353593  85.6696517   4.9152416  99.5556618
  84.0798767   2.0167959  97.8726550  83.9323730   1.0884666  98.0534120
  84.9052261   2.0388050  97.3883625  87.6832889   2.8396518  98.9591423
  88.6079437   2.6339379  98.8215874  87.5148192   2.5912919  99.8680764
  87.4728205   3.3582185  94.3153514  87.6465083   2.7928608  93.5627367
  87.9657097   4.1583080  94.1333004  82.0214850   4.0382729 105.0727620
  82.3301976   3.7931875 105.9450320  82.8190332   4.2429367 104.5846490
  82.0435462   6.1920638  97.3032997  81.6040452   5.6997017  97.9965853
  82.7943579   5.6493606  97.0625072  74.5227801   2.3832179  97.3057625
  75.3485821   2.0835951  96.9256268  74.1721853   1.6139802  97.7547413
  79.4909334   1.7358647  99.3755298  78.8689343   1.0729352  99.0757526
  80.1614201   1.7619779  98.6928946  72.7236406   0.3018506  98.2646558
  71.8868314  -0.1259320  98.0830560  72.6960051   0.4950949  99.2017350
  79.0522841   0.2862571  92.8513759  79.2010961   0.9698035  92.1980432
  79.8589284   0.2667661  93.3663215  82.5518246   2.7810701  90.3225506
  81.9792213   3.4000888  89.8695978  83.1251040   3.3310063  90.8565428
  85.7715506   3.0647851  91.4534089  86.7046179   2.9993413  91.6566964
  85.6838719   3.9004118  90.9948621  88.4003523   2.3813722  88.4138036
  88.3217154   2.0473585  89.3073794  89.2213189   2.8735490  88.4129509
  71.9074162  -3.0169235 100.0188612  71.2137634  -3.4315282  99.5058566
  72.6547153  -2.9748698  99.4222031  73.8210905  -3.0850981  97.8954627
  73.7981593  -2.9863294  96.9436510  74.1311541  -2.2385830  98.2171793
  76.4798283  -1.0274826 102.0101241  77.4341536  -1.0590884 101.9431173
  76.2810806  -1.4884202 102.8251467  74.8348511   4.5144794  99.0271439
  74.7002979   3.7545194  98.4609437  74.4180574   5.2385693  98.5600228
  77.9917637   5.4114111  99.2389882  77.8750021   6.3559543  99.1368572
  77.1710084   5.1087672  99.6275681  79.0172151   6.0642372 102.4545810
  79.9199398   6.0965983 102.7712305  78.7909522   5.1342823 102.4692146
  80.7725753   4.8173359  99.1155889  79.8221384   4.8175221  99.0020261
  81.0758240   4.0706094  98.5991924  96.5078447  10.6533897 100.1801651
  97.1456857  10.5340645  99.4764991  96.3899290  11.6014741 100.2389603
  93.3168153  10.6061326 100.1163176  92.9786665  10.4902390  99.2283711
  94.1857921  10.2052491 100.0964182  89.1754969  12.4596802  96.1060067
  88.6119834  12.3686739  95.3376355  89.0607364  11.6396706  96.5862559
  93.7987936  11.7596177 106.0749381  93.7876577  11.3648976 105.2029885
  93.9608576  11.0262250 106.6683153  86.7219401  13.9547994  98.9444287
  87.5140693  13.6138818  98.5290587  86.9616051  14.0642969  99.8646441
  94.7554528  16.1267770  91.4174532  94.1042507  16.7121850  91.0308546
  95.5498890  16.6573965  91.4769569  88.6810155  13.2156907  91.8161666
  89.4541031  12.6685894  91.6774542  89.0335554  14.0801156  92.0276128
  90.5195197  14.5433289 105.0228565  90.2285063  15.4478920 104.9075232
  91.1552182  14.5849817 105.7372635  91.4451404  11.9210138 101.6129925
  92.0414976  11.6966160 100.8986888  91.5026376  11.1794883 102.2155373
  91.0176433   9.3749573  89.4480116  91.2701953   8.8531094  88.6863579
  90.0800992   9.2115718  89.5506800  96.0619715   8.3785351  97.2554859
  96.8482805   7.9604774  96.9045276  96.3258420   9.2831443  97.4236508
  96.2329793  13.8158202  91.9543516  95.5975626  13.8892828  92.6664421
  95.9027199  14.4051800  91.2762595 101.4628143   8.3160584  98.1587838
 102.1953315   7.7459801  98.3925667 100.7067498   7.9282185  98.5994343
  90.7372721  11.2777679  91.6504491  90.6208979  10.6022582  92.3185575
  90.8474981  10.7910053  90.8336644  93.0804262  10.7387826  95.3551180
  92.7162470  10.2118447  96.0664102  93.9371378  10.3486295  95.1817666
  92.7209749   5.7677726  90.3512529  92.8884152   6.6357962  90.7183000
  92.5306918   5.9305007  89.4273818  95.4785082  14.2294705 102.0178359
  95.1785806  15.1319743 101.9094166  95.1336142  13.9626888 102.8699512
  88.9297564  10.6808501  98.0515064  88.0048060  10.5484715  98.2592755
  89.1781977  11.4602721  98.5485006  98.8782226   6.7477245  99.6975796
  97.9699104   6.6792653  99.4034557  98.8269822   7.2249190 100.5257622
  92.6998970   8.2235383  91.3359196  92.5798595   8.6692434  92.1744676
  92.0051559   8.5720701  90.7772734  86.2906375  10.3241775  98.8858853
  86.4198756  10.5776254  99.7998264  85.6103826  10.9169483  98.5663508
  90.4605862  20.9939025  94.9849327  90.3829892  21.9446850  95.0637807
  89.8567506  20.6484897  95.6424253  92.9523092   8.1666890 107.6410694
  92.1756426   8.7260810 107.6313558  93.5913655   8.6523673 108.1625564
  98.3984036   8.6956856  92.1639530  99.3101892   8.9284243  91.9887227
  97.8893683   9.2793901  91.6014608  91.2069464  10.9752344 107.2028661
  91.9484149  11.5137388 106.9263484  90.5006450  11.6018632 107.3600213
  96.6824804  13.1181484 105.8000822  97.0908160  12.6763895 105.0555455
  95.9602065  12.5434112 106.0535015  93.0355874   8.0554091 103.1734379
  93.8817069   8.4793504 103.3169028  92.9754512   7.3987715 103.8672942
  97.0053619  13.6782675  99.5553111  96.3762481  13.8428389  98.8529179
  96.6179281  14.0924284 100.3264075 100.8842851  14.6137113  96.9097475
 100.1993889  14.9936014  96.3594508 100.9686700  15.2232439  97.6429423
  96.1855319   5.7158459 104.8315553  95.9416251   6.4700520 104.2949829
  96.4615250   6.0943807 105.6662800  98.1393782  12.2597072 103.5092818
  98.3510677  12.9028832 102.8327200  98.0923530  11.4259388 103.0414749
  95.7420011   4.8714892 100.4129391  94.8804490   5.1696146 100.7046128
  95.7682446   5.0885291  99.4810423  92.5581580  13.4157083  96.8203196
  93.0219926  13.6944786  96.0307819  92.2938379  12.5140527  96.6376287
  89.4505662  12.9628564  99.7582959  90.0207019  13.3915833  99.1200444
  90.0413773  12.6811149 100.4567145  91.4950467   9.5380235  93.6292761
  92.1974510   9.9901279  94.0966688  91.1631095   8.8964054  94.2572654
  89.9430828   8.1291992 108.0043971  89.3129489   8.8108273 108.2379368
  89.8366916   8.0175073 107.0597109  85.2375801   7.7963788  98.9309895
  84.4474854   8.0521316  98.4550006  85.7287048   8.6112126  99.0361935
  99.2539610  15.1369027 101.6815176 100.0757054  14.7349214 101.3997857
  99.2502013  15.0337261 102.6331292  87.1890546   8.1608367  95.8893372
  86.3921709   8.2727061  96.4076867  86.9616138   8.4995019  95.0234262
  93.0196214  14.6853070 103.8375886  93.0840646  15.1473478 104.6734058
  92.3107137  14.0550435 103.9658196  83.5213503   8.0494278 101.3624886
  83.7721542   8.9341288 101.6282462  84.0573052   7.8698880 100.5899978
 107.3445603  11.4807776  98.0300147 106.5909312  10.9115174  97.8744152
 107.4793144  11.4470440  98.9770782  92.7344231  16.3521178  93.7054867
  92.5989906  17.1972714  94.1339714  93.2754044  16.5540455  92.9420800
  86.1873629  13.8696616  94.2782792  86.6998149  14.6639866  94.4288356
  86.8396341  13.1722906  94.2116393  87.9968513  16.9862372  96.3605545
  88.1735142  17.9080337  96.1726529  88.7925347  16.6720791  96.7899925
  87.2820870   9.0327004 106.2367708  87.1674385   8.1312261 106.5374807
  86.4265388   9.2790701 105.8852525  94.3612708  16.9744744 107.8355209
  93.9176562  16.1881123 107.5176113  95.0229921  17.1623895 107.1699099
  89.1199829  18.5040546 102.3615887  89.6707254  18.3757609 101.5892881
  88.2811305  18.8035435 102.0110780  96.4593946  17.2547544 105.8636610
  96.4412421  18.0756425 105.3716879  97.3813866  17.1301620 106.0886751
  92.9167000  14.7691674 106.7060118  93.4495337  14.0079962 106.4759426
  92.3881081  14.4765326 107.4484273  84.1522545  12.1985270  95.0542362
  84.9897767  12.6082279  94.8376070  84.3300813  11.2584712  95.0242556
  96.0486977   9.8660351  90.7426195  95.5333601  10.6364955  90.9814583
  95.7764286   9.1925487  91.3659257  93.6334088   4.7110052  95.8011434
  92.7775685   4.3216902  95.6217072  94.0461040   4.7902012  94.9411219
 101.0221252  12.6192705  92.6779369 100.2450694  12.2803865  92.2334531
 101.7012733  12.6245329  92.0034334  95.8373281   7.7387443  92.5685976
  95.5323416   8.0533592  93.4196120  96.7903723   7.8168863  92.6113309
  94.2819712  13.8977666  94.2178930  93.7541074  13.1630426  93.9052168
  93.7807215  14.6752343  93.9718899  99.2612559  12.0926687  99.3345977
  98.6036233  12.7825948  99.4226105 100.0652958  12.4823119  99.6779963
  89.0138440   4.5597333  96.5785542  89.5882192   4.3372514  95.8458735
  89.6009423   4.6286027  97.3314143  98.0718017  10.4471059  97.3849918
  98.5849899  11.0801051  97.8871628  98.7219241   9.8472255  97.0193278
  89.3408027   6.5901794  90.5981427  88.5045339   6.9276480  90.9190702
  89.2012797   6.4550773  89.6608564  92.4272313  11.7157877  87.2213903
  91.5199374  11.4847130  87.4205052  92.9243345  10.9195496  87.4087885
  95.3340392  20.4255384  90.1410590  94.6602090  20.7287080  90.7495547
  95.7206214  21.2284464  89.7916047  94.5498848   7.9220515  99.6308259
  93.6321410   8.1435462  99.4729947  94.9658992   7.9966825  98.7719966
  95.3333896   9.3211931  94.7610939  96.0805715   9.8333328  94.4518061
  95.6025485   8.9995983  95.6215333  93.6060546  11.8170471  91.7437893
  92.6971765  11.5329504  91.8410363  93.6355630  12.2369550  90.8841200
  98.8379814  15.4277061  95.5129061  98.3842141  14.5867971  95.5694251
  98.2073780  16.0638459  95.8503841  97.7812733   6.3569047  96.7429728
  97.0435490   5.8446433  97.0739971  98.0339507   5.9169429  95.9313005
  97.2812753  17.2653558  96.4478879  97.5735727  17.8258615  95.7291245
  97.7911373  17.5582119  97.2032038  84.1748716   9.5375986  95.7253096
  83.9773116   8.9445346  95.0004162  83.6195380   9.2328196  96.4429034
  92.1545440   9.4299092  97.8447689  92.2094050   8.4772928  97.7690165
  91.3436642   9.5858531  98.3288987  93.3036634  13.3579215  89.0825972
  92.8656064  12.6415074  88.6231609  94.0447075  13.5855330  88.5211063
  90.0937800   8.0476152  95.6038068  89.2805666   8.3470322  96.0103260
  90.5896794   7.6531841  96.3212550  92.2446378  18.0433909  97.5372332
  92.2022557  18.2694755  96.6080864  93.1609077  17.8097283  97.6858134
  95.6912012   8.5117976 104.4352962  96.0461399   8.7389449 105.2947427
  96.3384143   8.8436353 103.8130217 101.4209749  11.6336412  95.1402291
 101.2827647  11.8238008  94.2123480 101.0645967  12.3955795  95.5970342
  89.5851875   5.6194507 101.2199303  90.2251254   5.4783266 100.5222266
  88.7529405   5.3329021 100.8437905 101.4479128  13.7012939 100.1513562
 101.8815635  13.6088228 100.9996616 102.1610709  13.6770440  99.5133578
  90.3612179  14.9196938  97.3334295  91.1552777  14.4247258  97.1316870
  89.6503871  14.3914801  96.9702001  95.1807023  17.3015033 101.6846663
  95.2344045  17.8705970 102.4524379  94.3121805  17.4716918 101.3200700
  86.6694942   9.0640019  93.4094048  85.7392530   9.0024475  93.6264010
  86.7652414   8.5415972  92.6130689  86.5880491   5.5894832  95.9972289
  86.8487309   6.5040165  95.8881450  87.4097664   5.1219275  96.1468902
  88.0605417   7.0032589 103.1671114  88.7328470   6.7949952 102.5183763
  87.2335203   6.8054675 102.7276346 102.3094678  13.7436640 102.6846448
 102.5030568  14.6482450 102.9305722 102.2095296  13.2844059 103.5185033
  97.3709787  13.8943383 108.2587328  97.2195293  13.6653934 107.3417412
  97.3614466  14.8513984 108.2718673  94.1395123  11.4675295 103.2433595
  95.0687183  11.6186455 103.0702562  93.7186153  11.5559316 102.3882241
  92.9383455  15.4925960 101.0132132  92.7994540  15.1244744 101.8858070
  92.1498051  16.0073599 100.8416090  93.5331607  20.5935056  92.3557669
  93.7083362  20.1223099  93.1703291  92.8464395  21.2200822  92.5838929
  94.4888670  14.8707562  98.4020970  94.1538502  14.8308332  99.2978620
  93.9892616  14.2052278  97.9291380  88.4632914  10.2775192 103.9273551
  88.3252712   9.5455431 104.5285090  89.3737837  10.1884092 103.6457739
  97.4247862  12.2163597  88.6758030  96.8077032  11.4910425  88.5791082
  96.9564350  12.9772957  88.3325104  91.0915214   9.9895152 103.4157231
  91.8014833   9.3488344 103.3743849  91.0484523  10.2408047 104.3383412
  99.0801993  16.9262505 106.3363810  99.0214539  16.2421725 105.6694393
  99.4821512  17.6681495 105.8844436  89.8044148   6.9760370 105.2352870
  89.2681505   6.5251108 105.8874467  89.2160857   7.1106278 104.4923335
  88.0992692  23.7424419  99.1297529  88.3389290  24.3742943  99.8076547
  87.2561888  23.3912459  99.4162888  89.2146407   6.4349021  87.7979334
  88.3375874   6.3137822  87.4341581  89.6904160   5.6435099  87.5458223
  99.0819400  14.8902089 104.5677790  98.1946179  14.5528011 104.6904189
  99.6517952  14.1585120 104.8046555  80.7348548  11.2226181  97.8920841
  81.4219587  10.9087911  97.3041856  80.5796676  12.1267545  97.6188092
  85.5383270   6.1116377 102.3205865  85.4541458   5.5042047 101.5856275
  84.7165976   6.6025396 102.3215361  92.6120554  19.5503541 101.5339033
  92.5390725  20.3558513 102.0458337  92.1697947  19.7495507 100.7087054
  92.4010333  18.7875311  95.0441854  91.6177855  19.3296992  95.1380079
  93.1003079  19.3049291  95.4436096 103.5636741  10.3010306  99.3294351
 103.5526617  11.1835022  98.9588284 102.6954120   9.9481857  99.1348888
  95.0719237  19.4490375 103.6897192  95.7847210  20.0837840 103.6173093
  94.5809266  19.5454241 102.8737193  96.7936764  13.3541628  95.2614483
  95.8593043  13.4743091  95.0919188  96.9713433  12.4514095  94.9974493
  92.2941952   6.7387324  97.4147744  91.9239740   6.1858364  98.1028650
  92.7901045   6.1345457  96.8622744 100.1809316   9.1958947  95.7964517
 100.6469768  10.0286939  95.7224820 100.6316816   8.7303929  96.5009776
  90.1231151  17.1984819 104.5102762  90.8240610  17.8321302 104.6632157
  89.6526266  17.5399550 103.7498402  98.2485547  15.5402769  92.7950669
  98.5245391  15.4259363  93.7044543  97.3790045  15.1420253  92.7562842
  97.9232437   9.7529426 102.3355313  97.2703887  10.0005334 101.6807765
  98.3012817   8.9393564 102.0017790  94.8839611  19.7889119  96.4383483
  95.0662005  18.9710775  96.9011235  95.7072597  20.0056812  96.0008373
  95.2181776  18.7157305  93.6998531  95.7469543  18.2049759  93.0868694
  95.4809996  18.3999835  94.5644064  93.9720010  10.4949237 108.8221350
  93.2960647  10.3943367 109.4923725  94.7947644  10.3388451 109.2857347
  85.7198869  16.7321174 101.4433865  86.3052306  15.9864862 101.5761769
  85.5223707  17.0425131 102.3270529  88.5737524  19.7672421  96.4596307
  87.9047899  20.2518549  95.9760347  88.4350394  20.0141642  97.3739686
  80.3116524   9.3026774 100.1638308  80.3500623   8.7690365 100.9575426
  79.8056817   8.7761980  99.5449285  92.7142793  21.8016165 103.0578966
  93.2661101  21.9647786 103.8228051  93.0548986  22.3920603 102.3858991
  87.6907286   4.1491315 103.6600850  87.7548612   5.0106145 103.2478248
  87.6274406   3.5365316 102.9273209  87.1659559   6.2214447 107.3073885
  87.7931597   5.8391524 107.9211409  86.3087477   6.0028649 107.6729577
  97.5653667  16.6277422 108.9127620  98.1093571  17.2407381 108.4182575
  96.9840512  17.1857001 109.4294633  83.9425101   8.0290876  93.2392240
  84.2378542   7.1201555  93.1859293  83.0413137   8.0078616  92.9173242
  95.8511180  19.7498140 100.0442648  95.7262319  18.9487880  99.5353593
  96.5090271  20.2444334  99.5556618  87.4719348   6.1046873  99.2219788
  86.7505934   6.7182841  99.0827261  88.2612604   6.6404638  99.1436434
  97.9146088  17.5507160 101.6722198  96.9676424  17.4312512 101.6000525
  98.2628862  16.6629658 101.7548459  90.2745662   3.4401299 105.4960440
  90.7980064   3.6863596 106.2586749  90.0557995   4.2721334 105.0763577
  85.6712943   5.7104974  93.3631565  85.3425649   4.8302353  93.1806671
  86.0252314   5.6552643  94.2507954  94.9192522  17.3459877  97.8726550
  94.7717484  16.4176584  98.0534120  95.7446015  17.3679967  97.3883625
  88.7854766   5.9977944  93.7307042  89.1250839   6.5263865  93.0085651
  89.2326886   6.3358350  94.5065609  98.5226644  18.1688435  98.9591423
  99.4473191  17.9631297  98.8215874  98.3541947  17.9204837  99.8680764
  91.4798207   4.3814994 103.1810110  91.1395027   3.5822807 103.5830790
  90.7737213   4.6816705 102.6086944  90.7722913   4.4952565  91.9300335
  91.4931276   4.8733818  91.4264052  90.1488217   5.2141442  92.0335313
  94.9154036   5.1997714  92.8658667  95.1317650   6.0822352  92.5647496
  94.4348103   4.8083928  92.1364309  89.6553257   8.1583427  99.4429412
  89.5097838   8.4723731 100.3353694  89.1778461   8.7768328  98.8900311
  91.5149640   5.1485975  99.4910302  91.5011209   4.2527069  99.1542600
  92.2322068   5.1556639 100.1248588  93.3675771   5.5823316 101.5363429
  93.1093549   6.5040386 101.5347759  92.8360811   5.1853750 102.2263893
  98.3121960  18.6874103  94.3153514  98.4858837  18.1220525  93.5627367
  98.8050851  19.4874998  94.1333004  84.1298920  10.6988772 102.3817073
  83.5852388  11.4748580 102.5137348  85.0078269  11.0459576 102.2236195
  90.9186536   4.0300356  94.7597872  91.0402447   3.1017002  94.9588759
  90.6288579   4.0439042  93.8476187 104.1661351  11.4510526  95.9343814
 104.6092497  10.7017851  95.5362937 103.2887861  11.4420662  95.5517546
  99.2997132  18.0040867  91.4150413  99.9948037  18.6247560  91.6337727
  99.6420282  17.1536218  91.6902791  84.9164941   9.8258668 105.2747230
  84.1746677   9.9741304 105.8611861  84.5957686  10.0866934 104.4113980
 101.1988555  15.4540573  92.9437743 101.7239879  15.7927845  92.2187064
 101.1110908  14.5187588  92.7600878  92.8608604  19.3674646 105.0727620
  93.1695731  19.1223793 105.9450320  93.6584086  19.5721285 104.5846490
  92.8829216  21.5212556  97.3032997  92.4434206  21.0288935  97.9965853
  93.6337333  20.9785524  97.0625072  85.3621555  17.7124097  97.3057625
  86.1879575  17.4127869  96.9256268  85.0115607  16.9431719  97.7547413
  90.3303088  17.0650565  99.3755298  89.7083098  16.4021270  99.0757526
  91.0007955  17.0911697  98.6928946  83.5630160  15.6310423  98.2646558
  82.7262068  15.2032598  98.0830560  83.5353806  15.8242867  99.2017350
  90.4027616   5.5432353 108.9687804  90.4515771   6.4194476 108.5865574
  90.9450130   5.0009746 108.3959448 100.8882461  16.0873476 108.2488941
 100.0978005  16.0697615 107.7093441 100.6515816  16.6261770 109.0037978
 101.0080336  12.9365943 105.5621670 101.0578341  12.7715950 106.5037193
 100.8994260  12.0693202 105.1719551  89.8916595  15.6154488  92.8513759
  90.0404716  16.2989953  92.1980432  90.6983039  15.5959579  93.3663215
  98.2984099   8.9196871 106.8780977  99.1993962   8.7803336 106.5864975
  98.3732073   9.0851326 107.8179154  92.6326904   6.2963726 105.7234163
  91.7630214   6.5897292 105.4516752  92.8686385   6.8804171 106.4441427
 102.5098533  15.3562884 105.8063692 102.2183342  15.7192865 106.6427152
 101.8970665  14.6429893 105.6277024 103.7094216  12.9215764  98.3266262
 104.5441107  13.3605568  98.4903822 103.8453344  12.4454417  97.5074508
 100.7585722  10.4795499 104.2743750 101.2339843  10.6723145 103.4662601
  99.8351287  10.5354685 104.0287133  87.6469228  11.6419666  93.8574828
  87.4015270  10.7381996  94.0555038  87.8165143  11.6436817  92.9154306
  86.9164876   7.3748024  91.3560989  86.2234121   7.4492379  90.7001025
  86.6716628   6.6108367  91.8782506  93.3912001  18.1102619  90.3225506
  92.8185968  18.7292806  89.8695978  93.9644794  18.6601981  90.8565428
  99.4587391   7.3561259 102.5072055 100.4104813   7.4559357 102.5284279
  99.2890841   6.5639528 103.0170139  96.6109260  18.3939769  91.4534089
  97.5439934  18.3285331  91.6566964  96.5232473  19.2296036  90.9948621
  99.2397277  17.7105639  88.4138036  99.1610909  17.3765503  89.3073794
 100.0606944  18.2027407  88.4129509 101.9375468  10.5767379 101.6214355
 101.9051788   9.6383379 101.8074039 102.5476092  10.6551415 100.8880180
  93.7758799   9.4463432  87.6641559  94.7217904   9.3169640  87.7329977
  93.3973044   8.7078094  88.1410987 107.7552018  11.6383386 100.7620392
 108.4855407  11.3768674 101.3228095 107.1458964  10.9012107 100.8022460
 105.8367315   9.7791248 101.3594843 105.1100479   9.6447213 100.7511334
 105.4214602  10.0868077 102.1651561  93.6597492  13.4981178 109.1242216
  94.5800501  13.6759777 109.3182262  93.6247075  12.5537223 108.9721915
  91.9601716   7.3713408  87.5996444  91.0533172   7.0746521  87.6759158
  92.2377697   7.0743226  86.7330730  82.8779657   8.6919771  98.0495490
  82.5582441   7.8385080  97.7569864  82.3313085   8.9068350  98.8053458
  86.6559564  11.4082212 101.7664997  86.8745574  12.3399320 101.7853031
  87.0685338  11.0490187 102.5519801  91.5287430   6.9815418 111.1567746
  91.4284157   7.9309775 111.0879837  91.3108972   6.6533657 110.2843816
  90.7300501   4.2300343  87.7408423  91.5919665   4.5555242  88.0004241
  90.9150845   3.4431839  87.2281489  82.7467917  12.3122683 100.0188612
  82.0531388  11.8976636  99.5058566  83.4940908  12.3543219  99.4222031
  91.3918700  10.4112557 109.9732808  90.9085781  11.2112917 110.1796697
  91.4779639  10.4220502 109.0200252  84.6604659  12.2440937  97.8954627
  84.6375347  12.3428624  96.9436510  84.9705296  13.0906088  98.2171793
  87.3192037  14.3017092 102.0101241  88.2735291  14.2701034 101.9431173
  87.1204561  13.8407715 102.8251467  87.9091419  12.8718208 104.5772039
  88.7284308  13.3662286 104.6006876  88.1828227  11.9550176 104.5489606
  85.6742266  19.8436711  99.0271439  85.5396734  19.0837112  98.4609437
  85.2574328  20.5677611  98.5600228  96.8101229  15.0273635  88.0348014
  97.5137079  15.2323637  88.6505670  96.0863878  15.5950397  88.2997098
  97.6399039  10.7783496  94.1550285  97.5834241  11.2352047  93.3157917
  98.1927382  10.0174181  93.9773127 105.7616183   9.3069301  97.4871696
 105.2015741   9.3762490  98.2603258 105.1559686   9.1310286  96.7671192
  88.8311392  20.7406028  99.2389882  88.7143776  21.6851461  99.1368572
  88.0103838  20.4379590  99.6275681  98.7187926  15.4656164  90.0846475
  99.5533530  15.0337362  89.9023949  98.5572269  15.2938178  91.0123369
  98.3733819  11.9688277  91.4502814  98.3182622  11.8032549  90.5091258
  97.7479874  12.6764310  91.6065004  83.1626334   7.2056342 105.2764236
  83.8085197   6.6955296 105.7651461  82.9543485   7.9425023 105.8507661
  95.6879726  14.2737189 110.7756377  96.5570885  14.4477841 110.4143012
  95.2086477  15.0931606 110.6532106  89.8565906  21.3934290 102.4545810
  90.7593153  21.4257900 102.7712305  89.6303276  20.4634741 102.4692146
  91.6119508  20.1465277  99.1155889  90.6615139  20.1467138  99.0020261
  91.9151994  19.3998011  98.5991924  87.5023825   4.3523959 109.3739250
  88.3655286   3.9960764 109.5842575  86.9289235   4.0137854 110.0614655
 107.3472201  25.9825815 100.1801651 107.9850611  25.8632562  99.4764991
 107.2293044  26.9306659 100.2389603 104.1561908  25.9353243 100.1163176
 103.8180419  25.8194308  99.2283711 105.0251676  25.5344408 100.0964182
 100.0148723  27.7888720  96.1060067  99.4513589  27.6978657  95.3376355
  99.9001118  26.9688624  96.5862559 104.6381691  27.0888095 106.0749381
 104.6270331  26.6940893 105.2029885 104.8002330  26.3554168 106.6683153
  97.5613155  29.2839911  98.9444287  98.3534447  28.9430736  98.5290587
  97.8009806  29.3934886  99.8646441 105.5948282  31.4559687  91.4174532
 104.9436262  32.0413768  91.0308546 106.3892645  31.9865882  91.4769569
  99.5203909  28.5448824  91.8161666 100.2934785  27.9977812  91.6774542
  99.8729308  29.4093074  92.0276128 101.3588952  29.8725207 105.0228565
 101.0678818  30.7770838 104.9075232 101.9945936  29.9141734 105.7372635
 102.2845159  27.2502055 101.6129925 102.8808731  27.0258078 100.8986888
 102.3420130  26.5086801 102.2155373 101.8570187  24.7041491  89.4480116
 102.1095708  24.1823012  88.6863579 100.9194746  24.5407636  89.5506800
 106.9013470  23.7077269  97.2554859 107.6876559  23.2896692  96.9045276
 107.1652174  24.6123361  97.4236508 107.0723547  29.1450119  91.9543516
 106.4369380  29.2184746  92.6664421 106.7420954  29.7343718  91.2762595
 112.3021897  23.6452502  98.1587838 113.0347069  23.0751719  98.3925667
 111.5461253  23.2574103  98.5994343 101.5766476  26.6069597  91.6504491
 101.4602734  25.9314500  92.3185575 101.6868736  26.1201970  90.8336644
 103.9198017  26.0679744  95.3551180 103.5556224  25.5410365  96.0664102
 104.7765133  25.6778213  95.1817666 109.8247317  17.3574076 102.6182446
 109.4930642  18.2269487 102.3943661 109.2292931  17.0410360 103.2976477
 103.5603504  21.0969643  90.3512529 103.7277906  21.9649880  90.7183000
 103.3700673  21.2596925  89.4273818 106.3178837  29.5586622 102.0178359
 106.0179560  30.4611661 101.9094166 105.9729896  29.2918805 102.8699512
  99.7691318  26.0100419  98.0515064  98.8441815  25.8776633  98.2592755
 100.0175732  26.7894638  98.5485006 109.7175981  22.0769162  99.6975796
 108.8092858  22.0084571  99.4034557 109.6663577  22.5541107 100.5257622
 103.5392725  23.5527301  91.3359196 103.4192350  23.9984352  92.1744676
 102.8445313  23.9012618  90.7772734  97.1300129  25.6533693  98.8858853
  97.2592511  25.9068172  99.7998264  96.4497581  26.2461401  98.5663508
 101.2999617  36.3230943  94.9849327 101.2223646  37.2738768  95.0637807
 100.6961260  35.9776815  95.6424253 103.7916847  23.4958808 107.6410694
 103.0150181  24.0552728 107.6313558 104.4307410  23.9815591 108.1625564
 111.5837627  20.2785601 101.4753670 110.9412007  20.5718134 100.8293465
 111.0792556  20.1638521 102.2806867 109.2377791  24.0248774  92.1639530
 110.1495647  24.2576161  91.9887227 108.7287438  24.6085818  91.6014608
 102.0463219  26.3044261 107.2028661 102.7877903  26.8429305 106.9263484
 101.3400204  26.9310550 107.3600213 107.5218558  28.4473402 105.8000822
 107.9301914  28.0055812 105.0555455 106.7995820  27.8726029 106.0535015
 103.8749629  23.3846009 103.1734379 104.7210824  23.8085422 103.3169028
 103.8148266  22.7279633 103.8672942 107.8447373  29.0074592  99.5553111
 107.2156236  29.1720307  98.8529179 107.4573035  29.4216202 100.3264075
 111.7236605  29.9429030  96.9097475 111.0387643  30.3227932  96.3594508
 111.8080454  30.5524357  97.6429423 107.0249074  21.0450377 104.8315553
 106.7810006  21.7992437 104.2949829 107.3009004  21.4235725 105.6662800
 108.9787537  27.5888989 103.5092818 109.1904432  28.2320749 102.8327200
 108.9317285  26.7551306 103.0414749 106.5813766  20.2006810 100.4129391
 105.7198245  20.4988064 100.7046128 106.6076200  20.4177209  99.4810423
 103.3975335  28.7449001  96.8203196 103.8613681  29.0236704  96.0307819
 103.1332133  27.8432445  96.6376287 100.2899416  28.2920482  99.7582959
 100.8600773  28.7207750  99.1200444 100.8807528  28.0103067 100.4567145
 102.3344221  24.8672153  93.6292761 103.0368264  25.3193197  94.0966688
 102.0024850  24.2255972  94.2572654 100.7824583  23.4583910 108.0043971
 100.1523243  24.1400190 108.2379368 100.6760670  23.3466991 107.0597109
  96.0769555  23.1255706  98.9309895  95.2868609  23.3813234  98.4550006
  96.5680802  23.9404043  99.0361935 110.0933365  30.4660945 101.6815176
 110.9150808  30.0641132 101.3997857 110.0895767  30.3629179 102.6331292
  98.0284300  23.4900285  95.8893372  97.2315464  23.6018979  96.4076867
  97.8009893  23.8286937  95.0234262 103.8589968  30.0144988 103.8375886
 103.9234401  30.4765395 104.6734058 103.1500892  29.3842353 103.9658196
  94.3607258  23.3786196 101.3624886  94.6115296  24.2633206 101.6282462
  94.8966806  23.1990798 100.5899978 118.1839358  26.8099693  98.0300147
 117.4303066  26.2407091  97.8744152 118.3186899  26.7762358  98.9770782
 103.5737986  31.6813096  93.7054867 103.4383660  32.5264631  94.1339714
 104.1147798  31.8832373  92.9420800 100.0605325  17.7604675 110.3669222
  99.6672271  17.2070874 111.0416866 100.8771466  18.0715254 110.7575739
  97.0267383  29.1988534  94.2782792  97.5391904  29.9931784  94.4288356
  97.6790096  28.5014824  94.2116393  98.8362268  32.3154290  96.3605545
  99.0128896  33.2372255  96.1726529  99.6319101  32.0012709  96.7899925
 102.9773286  19.1762554 107.9589478 103.7183000  19.7769708 107.8793941
 103.2091209  18.4340192 107.4007521  98.1214624  24.3618922 106.2367708
  98.0068139  23.4604179 106.5374807  97.2659142  24.6082618 105.8852525
 105.2006462  32.3036662 107.8355209 104.7570316  31.5173041 107.5176113
 105.8623676  32.4915813 107.1699099  99.9593583  33.8332464 102.3615887
 100.5101008  33.7049527 101.5892881  99.1205059  34.1327353 102.0110780
 107.2987700  32.5839462 105.8636610 107.2806175  33.4048343 105.3716879
 108.2207620  32.4593537 106.0886751 103.7560754  30.0983591 106.7060118
 104.2889091  29.3371880 106.4759426 103.2274835  29.8057243 107.4484273
 106.9230449  15.2043657 102.2353760 106.5794719  16.0945299 102.1592871
 107.2909412  15.0145315 101.3723345  94.9916300  27.5277188  95.0542362
  95.8291522  27.9374196  94.8376070  95.1694568  26.5876630  95.0242556
 106.8880732  25.1952269  90.7426195 106.3727355  25.9656873  90.9814583
 106.6158040  24.5217405  91.3659257 104.4727843  20.0401969  95.8011434
 103.6169439  19.6508820  95.6217072 104.8854795  20.1193930  94.9411219
 106.0026990  17.5748313 100.2002993 105.4991785  17.5378448  99.3870799
 106.2957596  18.4841055 100.2599650 102.2469876  17.6587042  99.2069175
 103.1122872  17.4629851  98.8475065 102.3147384  17.4297394 100.1338532
 111.8615006  27.9484623  92.6779369 111.0844449  27.6095783  92.2334531
 112.5406487  27.9537246  92.0034334 106.6767035  23.0679361  92.5685976
 106.3717171  23.3825510  93.4196120 107.6297477  23.1460781  92.6113309
 105.1213467  29.2269584  94.2178930 104.5934829  28.4922344  93.9052168
 104.6200970  30.0044260  93.9718899 110.1006313  27.4218604  99.3345977
 109.4429987  28.1117866  99.4226105 110.9046712  27.8115036  99.6779963
  99.8532195  19.8889250  96.5785542 100.4275946  19.6664432  95.8458735
 100.4403177  19.9577945  97.3314143 108.9111772  25.7762977  97.3849918
 109.4243654  26.4092969  97.8871628 109.5612996  25.1764173  97.0193278
 100.1801782  21.9193711  90.5981427  99.3439094  22.2568398  90.9190702
 100.0406551  21.7842691  89.6608564 102.1554862  16.7630499  95.3060611
 101.5019275  16.4479516  94.6817226 102.1135336  16.1406240  96.0320434
 103.2666067  27.0449794  87.2213903 102.3593129  26.8139048  87.4205052
 103.7637099  26.2487413  87.4087885 106.1734146  35.7547301  90.1410590
 105.4995845  36.0578998  90.7495547 106.5599968  36.5576382  89.7916047
 105.3892603  23.2512433  99.6308259 104.4715164  23.4727380  99.4729947
 105.8052746  23.3258743  98.7719966 106.1727650  24.6503848  94.7610939
 106.9199469  25.1625246  94.4518061 106.4419240  24.3287901  95.6215333
 104.4454301  27.1462389  91.7437893 103.5365520  26.8621422  91.8410363
 104.4749384  27.5661468  90.8841200 109.6773568  30.7568979  95.5129061
 109.2235895  29.9159888  95.5694251 109.0467535  31.3930377  95.8503841
 108.6206488  21.6860965  96.7429728 107.8829244  21.1738351  97.0739971
 108.8733261  21.2461346  95.9313005 108.1206507  32.5945475  96.4478879
 108.4129482  33.1550532  95.7291245 108.6305128  32.8874036  97.2032038
 108.7218115  14.4637217  97.3371498 109.0276992  13.6034580  97.0497413
 109.4470720  15.0554837  97.1370492  95.0142471  24.8667903  95.7253096
  94.8166871  24.2737264  95.0004162  94.4589135  24.5620113  96.4429034
 102.9939195  24.7591010  97.8447689 103.0487804  23.8064846  97.7690165
 102.1830397  24.9150449  98.3288987 104.1430388  28.6871133  89.0825972
 103.7049818  27.9706992  88.6231609 104.8840829  28.9147248  88.5211063
 100.9331555  23.3768069  95.6038068 100.1199420  23.6762240  96.0103260
 101.4290549  22.9823758  96.3212550 103.0840132  33.3725826  97.5372332
 103.0416311  33.5986673  96.6080864 104.0002831  33.1389201  97.6858134
 106.5305766  23.8409894 104.4352962 106.8855154  24.0681367 105.2947427
 107.1777897  24.1728271 103.8130217 112.2603503  26.9628330  95.1402291
 112.1221402  27.1529926  94.2123480 111.9039722  27.7247713  95.5970342
 100.4245629  20.9486425 101.2199303 101.0645009  20.8075184 100.5222266
  99.5923160  20.6620938 100.8437905 112.2872883  29.0304857 100.1513562
 112.7209389  28.9380146 100.9996616 113.0004463  29.0062357  99.5133578
 101.2005933  30.2488855  97.3334295 101.9946532  29.7539175  97.1316870
 100.4897626  29.7206718  96.9702001 106.0200778  32.6306951 101.6846663
 106.0737800  33.1997887 102.4524379 105.1515559  32.8008836 101.3200700
  97.5088697  24.3931937  93.4094048  96.5786285  24.3316393  93.6264010
  97.6046169  23.8707890  92.6130689  97.4274246  20.9186750  95.9972289
  97.6881063  21.8332083  95.8881450  98.2491418  20.4511192  96.1468902
  98.8999171  22.3324507 103.1671114  99.5722224  22.1241869 102.5183763
  98.0728958  22.1346593 102.7276346 113.1488432  29.0728557 102.6846448
 113.3424322  29.9774368 102.9305722 113.0489051  28.6135977 103.5185033
 104.8024743  18.9586448 105.1836775 104.1552658  19.6576398 105.0901251
 105.5725758  19.3922592 105.5513023 108.2103541  29.2235300 108.2587328
 108.0589047  28.9945852 107.3417412 108.2008220  30.1805902 108.2718673
 104.9788877  26.7967213 103.2433595 105.9080937  26.9478373 103.0702562
 104.5579907  26.8851234 102.3882241 103.7777209  30.8217877 101.0132132
 103.6388295  30.4536662 101.8858070 102.9891805  31.3365517 100.8416090
 104.3725361  35.9226974  92.3557669 104.5477117  35.4515017  93.1703291
 103.6858149  36.5492740  92.5838929 105.3282424  30.1999480  98.4020970
 104.9932257  30.1600250  99.2978620 104.8286370  29.5344196  97.9291380
  99.3026668  25.6067110 103.9273551  99.1646466  24.8747349 104.5285090
 100.2131592  25.5176010 103.6457739 108.2641616  27.5455514  88.6758030
 107.6470787  26.8202343  88.5791082 107.7958104  28.3064875  88.3325104
 101.9308969  25.3187069 103.4157231 102.6408588  24.6780262 103.3743849
 101.8878277  25.5699964 104.3383412 109.9195748  32.2554423 106.3363810
 109.8608294  31.5713643 105.6694393 110.3215266  32.9973413 105.8844436
 100.6437903  22.3052287 105.2352870 100.1075260  21.8543026 105.8874467
 100.0554611  22.4398196 104.4923335  98.9386446  39.0716337  99.1297529
  99.1783045  39.7034861  99.8076547  98.0955643  38.7204377  99.4162888
 100.0540162  21.7640939  87.7979334  99.1769628  21.6429739  87.4341581
 100.5297915  20.9727017  87.5458223 109.9213155  30.2194007 104.5677790
 109.0339934  29.8819928 104.6904189 110.4911706  29.4877038 104.8046555
  91.5742302  26.5518098  97.8920841  92.2613342  26.2379828  97.3041856
  91.4190431  27.4559463  97.6188092  96.3777024  21.4408295 102.3205865
  96.2935213  20.8333965 101.5856275  95.5559731  21.9317313 102.3215361
 103.4514308  34.8795459 101.5339033 103.3784480  35.6850431 102.0458337
 103.0091701  35.0787425 100.7087054 103.2404088  34.1167229  95.0441854
 102.4571610  34.6588909  95.1380079 103.9396833  34.6341209  95.4436096
 106.5500738  19.9261859  97.6876060 107.0469438  19.1731821  97.3677130
 105.7787720  19.9626175  97.1219269 114.4030495  25.6302224  99.3294351
 114.3920372  26.5126939  98.9588284 113.5347875  25.2773775  99.1348888
 105.9112992  34.7782293 103.6897192 106.6240964  35.4129758 103.6173093
 105.4203020  34.8746159 102.8737193 107.6330519  28.6833546  95.2614483
 106.6986797  28.8035008  95.0919188 107.8107187  27.7806012  94.9974493
 103.1335707  22.0679241  97.4147744 102.7633494  21.5150282  98.1028650
 103.6294799  21.4637375  96.8622744 111.0203070  24.5250865  95.7964517
 111.4863522  25.3578857  95.7224820 111.4710571  24.0595847  96.5009776
 100.9624905  32.5276737 104.5102762 101.6634365  33.1613219 104.6632157
 100.4920020  32.8691468 103.7498402 109.0879301  30.8694686  92.7950669
 109.3639145  30.7551281  93.7044543 108.2183800  30.4712171  92.7562842
 108.9919733  16.8931452  99.8355419 108.0782813  17.1235679 100.0037626
 109.4212834  16.9769896 100.6869451 108.7626191  25.0821344 102.3355313
 108.1097642  25.3297251 101.6807765 109.1406571  24.2685482 102.0017790
 105.7233365  35.1181037  96.4383483 105.9055760  34.3002693  96.9011235
 106.5466351  35.3348729  96.0008373 106.0575531  34.0449222  93.6998531
 106.5863297  33.5341677  93.0868694 106.3203750  33.7291752  94.5644064
 104.8113764  25.8241155 108.8221350 104.1354401  25.7235284 109.4923725
 105.6341398  25.6680369 109.2857347  96.5592623  32.0613092 101.4433865
  97.1446060  31.3156779 101.5761769  96.3617462  32.3717048 102.3270529
  99.4131279  35.0964339  96.4596307  98.7441654  35.5810467  95.9760347
  99.2744148  35.3433559  97.3739686  91.1510278  24.6318692 100.1638308
  91.1894378  24.0982282 100.9575426  90.6450571  24.1053897  99.5449285
 103.5536547  37.1308082 103.0578966 104.1054855  37.2939704 103.8228051
 103.8942741  37.7212520 102.3858991  98.5301040  19.4783232 103.6600850
  98.5942367  20.3398063 103.2478248  98.4668161  18.8657234 102.9273209
  98.0053313  21.5506365 107.3073885  98.6325352  21.1683442 107.9211409
  97.1481232  21.3320567 107.6729577 108.4047422  31.9569340 108.9127620
 108.9487326  32.5699298 108.4182575 107.8234266  32.5148918 109.4294633
  94.7818856  23.3582794  93.2392240  95.0772297  22.4493472  93.1859293
  93.8806892  23.3370533  92.9173242 106.6904935  35.0790058 100.0442648
 106.5656074  34.2779798  99.5353593 107.3484026  35.5736251  99.5556618
  98.3113103  21.4338790  99.2219788  97.5899689  22.0474758  99.0827261
  99.1006359  21.9696555  99.1436434 108.7539843  32.8799078 101.6722198
 107.8070178  32.7604429 101.6000525 109.1022616  31.9921576 101.7548459
 101.1139416  18.7693217 105.4960440 101.6373818  19.0155514 106.2586749
 100.8951750  19.6013252 105.0763577  96.5106697  21.0396892  93.3631565
  96.1819403  20.1594271  93.1806671  96.8646068  20.9844560  94.2507954
 105.7586276  32.6751794  97.8726550 105.6111239  31.7468502  98.0534120
 106.5839770  32.6971885  97.3883625  99.6248521  21.3269861  93.7307042
  99.9644593  21.8555783  93.0085651 100.0720641  21.6650267  94.5065609
 109.3620398  33.4980353  98.9591423 110.2866946  33.2923214  98.8215874
 109.1935701  33.2496754  99.8680764 102.3191961  19.7106912 103.1810110
 101.9788782  18.9114725 103.5830790 101.6130968  20.0108623 102.6086944
 102.9708433  16.7956225 101.6337433 103.7934502  16.3216703 101.5116324
 103.2146497  17.5746708 102.1336120 101.6116668  19.8244483  91.9300335
 102.3325030  20.2025736  91.4264052 100.9881972  20.5433360  92.0335313
 105.7547791  20.5289632  92.8658667 105.9711405  21.4114270  92.5647496
 105.2741858  20.1375845  92.1364309 100.4947012  23.4875345  99.4429412
 100.3491593  23.8015648 100.3353694 100.0172216  24.1060245  98.8900311
 102.3543395  20.4777893  99.4910302 102.3404964  19.5818986  99.1542600
 103.0715823  20.4848557 100.1248588 104.2069526  20.9115233 101.5363429
 103.9487303  21.8332304 101.5347759 103.6754566  20.5145668 102.2263893
 109.1515714  34.0166020  94.3153514 109.3252592  33.4512443  93.5627367
 109.6444605  34.8166915  94.1333004  94.9692674  26.0280690 102.3817073
  94.4246142  26.8040498 102.5137348  95.8472024  26.3751494 102.2236195
 101.7580291  19.3592273  94.7597872 101.8796202  18.4308920  94.9588759
 101.4682333  19.3730959  93.8476187 104.6271481  17.0447184  97.8964592
 104.6493178  17.1086517  96.9416571 105.0439540  16.2051693  98.0905098
 115.0055105  26.7802443  95.9343814 115.4486251  26.0309769  95.5362937
 114.1281616  26.7712580  95.5517546 110.1390887  33.3332785  91.4150413
 110.8341791  33.9539478  91.6337727 110.4814037  32.4828136  91.6902791
  95.7558696  25.1550586 105.2747230  95.0140432  25.3033221 105.8611861
  95.4351440  25.4158851 104.4113980 112.0382310  30.7832490  92.9437743
 112.5633634  31.1219763  92.2187064 111.9504662  29.8479506  92.7600878
 103.7002359  34.6966564 105.0727620 104.0089485  34.4515711 105.9450320
 104.4977841  34.9013203 104.5846490 103.7222971  36.8504474  97.3032997
 103.2827961  36.3580852  97.9965853 104.4731088  36.3077441  97.0625072
  96.2015310  33.0416015  97.3057625  97.0273330  32.7419786  96.9256268
  95.8509362  32.2723637  97.7547413 101.1696843  32.3942483  99.3755298
 100.5476852  31.7313188  99.0757526 101.8401710  32.4203615  98.6928946
  94.4023915  30.9602341  98.2646558  93.5655823  30.5324515  98.0830560
  94.3747560  31.1534784  99.2017350 101.2421370  20.8724271 108.9687804
 101.2909526  21.7486394 108.5865574 101.7843884  20.3301664 108.3959448
 111.7276216  31.4165394 108.2488941 110.9371760  31.3989533 107.7093441
 111.4909571  31.9553688 109.0037978 111.8474091  28.2657860 105.5621670
 111.8972096  28.1007868 106.5037193 111.7388014  27.3985119 105.1719551
 100.7310350  30.9446406  92.8513759 100.8798470  31.6281871  92.1980432
 101.5376793  30.9251496  93.3663215 109.1377853  24.2488788 106.8780977
 110.0387716  24.1095253 106.5864975 109.2125828  24.4143243 107.8179154
 103.4720659  21.6255643 105.7234163 102.6023968  21.9189209 105.4516752
 103.7080139  22.2096088 106.4441427 113.3492288  30.6854802 105.8063692
 113.0577096  31.0484782 106.6427152 112.7364419  29.9721810 105.6277024
 114.5487970  28.2507682  98.3266262 115.3834862  28.6897486  98.4903822
 114.6847099  27.7746335  97.5074508 111.5979476  25.8087417 104.2743750
 112.0733598  26.0015063 103.4662601 110.6745041  25.8646602 104.0287133
  98.4862983  26.9711584  93.8574828  98.2409025  26.0673914  94.0555038
  98.6558897  26.9728734  92.9154306 106.1759693  17.8435260 103.2399583
 106.6941636  18.5796287 102.9146072 105.8214825  18.1499253 104.0746343
  97.7558630  22.7039941  91.3560989  97.0627875  22.7784296  90.7001025
  97.5110382  21.9400285  91.8782506 106.4272287  14.2635543  98.7600480
 106.7074040  13.5958732  99.3860907 107.2122894  14.4564638  98.2475144
 104.2305755  33.4394537  90.3225506 103.6579722  34.0584724  89.8695978
 104.8038549  33.9893898  90.8565428 110.2981145  22.6853177 102.5072055
 111.2498568  22.7851274 102.5284279 110.1284595  21.8931445 103.0170139
 108.3195525  19.7708760 102.6931456 107.7245457  20.0513773 101.9977945
 108.0345221  20.2602661 103.4648197 107.4503015  33.7231687  91.4534089
 108.3833688  33.6577248  91.6566964 107.3626228  34.5587954  90.9948621
 110.0791032  33.0397557  88.4138036 110.0004663  32.7057421  89.3073794
 110.9000698  33.5319325  88.4129509 112.7769223  25.9059296 101.6214355
 112.7445543  24.9675297 101.8074039 113.3869846  25.9843333 100.8880180
 104.6152554  24.7755349  87.6641559 105.5611658  24.6461557  87.7329977
 104.2366799  24.0370011  88.1410987 112.9263711  22.6970340 101.6672638
 112.4102760  21.9128796 101.4802567 113.8103660  22.3689056 101.8319157
 110.5874438  16.4411355  97.6268451 110.3899259  16.1326444  98.5111783
 111.1974144  17.1672994  97.7566380 118.5945773  26.9675303 100.7620392
 119.3249161  26.7060591 101.3228095 117.9852718  26.2304025 100.8022460
 116.6761070  25.1083166 101.3594843 115.9494233  24.9739131 100.7511334
 116.2608357  25.4159994 102.1651561 104.4991246  28.8273095 109.1242216
 105.4194256  29.0051694 109.3182262 104.4640829  27.8829141 108.9721915
 102.7995471  22.7005326  87.5996444 101.8926926  22.4038438  87.6759158
 103.0771452  22.4035144  86.7330730  93.7173411  24.0211689  98.0495490
  93.3976196  23.1676997  97.7569864  93.1706839  24.2360267  98.8053458
  97.4953319  26.7374130 101.7664997  97.7139329  27.6691238 101.7853031
  97.9079093  26.3782105 102.5519801 104.4157537  17.2442215  93.7540685
 103.6058265  16.8989300  94.1295931 105.1041954  16.9349759  94.3428297
 106.3448085  16.3220262  95.3764982 106.8979123  16.7415716  96.0355005
 106.5818171  15.3956010  95.4187938 102.3681184  22.3107336 111.1567746
 102.2677911  23.2601693 111.0879837 102.1502726  21.9825575 110.2843816
 101.5694255  19.5592261  87.7408423 102.4313419  19.8847159  88.0004241
 101.7544600  18.7723757  87.2281489  93.5861671  27.6414601 100.0188612
  92.8925143  27.2268553  99.5058566  94.3334662  27.6835137  99.4222031
 109.7226892  18.4320787  94.8843646 109.1425561  19.0905591  94.5021699
 109.4562825  17.6098132  94.4731064 108.1730458  17.8325845  97.0864967
 108.6730237  17.9442380  96.2779285 108.8166066  17.5286898  97.7265775
 102.2312454  25.7404475 109.9732808 101.7479536  26.5404835 110.1796697
 102.3173393  25.7512420 109.0200252  95.4998414  27.5732854  97.8954627
  95.4769102  27.6720542  96.9436510  95.8099050  28.4198005  98.2171793
  98.1585792  29.6309009 102.0101241  99.1129045  29.5992952 101.9431173
  97.9598315  29.1699633 102.8251467  98.7485174  28.2010125 104.5772039
  99.5678063  28.6954204 104.6006876  99.0221981  27.2842094 104.5489606
 108.5051770  20.5920878  93.9399995 107.6177625  20.8770528  93.7220189
 108.9205759  20.4314641  93.0927271 111.8566306  20.6167399  97.6554334
 112.6326696  21.1063851  97.9278951 111.1314440  21.0425453  98.1126203
 114.2938865  21.3295018  98.7128274 114.8883356  21.0890754  98.0021583
 114.3665448  20.6102149  99.3401811  96.5136020  35.1728629  99.0271439
  96.3790488  34.4129030  98.4609437  96.0968083  35.8969529  98.5600228
 107.6494983  30.3565552  88.0348014 108.3530834  30.5615555  88.6505670
 106.9257632  30.9242314  88.2997098 108.4792794  26.1075414  94.1550285
 108.4227995  26.5643965  93.3157917 109.0321136  25.3466098  93.9773127
 112.2897600  21.8965146  94.9800404 112.0334534  21.4961781  95.8108612
 111.6650468  22.6108940  94.8550543 116.6009937  24.6361219  97.4871696
 116.0409495  24.7054408  98.2603258 115.9953441  24.4602203  96.7671192
  99.6705146  36.0697946  99.2389882  99.5537530  37.0143378  99.1368572
  98.8497593  35.7671507  99.6275681 109.5581681  30.7948082  90.0846475
 110.3927285  30.3629280  89.9023949 109.3966024  30.6230095  91.0123369
 109.2127573  27.2980195  91.4502814 109.1576377  27.1324466  90.5091258
 108.5873628  28.0056228  91.6065004  94.0020088  22.5348259 105.2764236
  94.6478952  22.0247213 105.7651461  93.7937239  23.2716941 105.8507661
 106.5273480  29.6029107 110.7756377 107.3964640  29.7769759 110.4143012
 106.0480232  30.4223524 110.6532106 102.5223698  16.7988304  91.0288132
 102.5102368  17.7430144  91.1856403 103.4147120  16.6158449  90.7347593
 100.6959660  36.7226208 102.4545810 101.5986907  36.7549818 102.7712305
 100.4697030  35.7926659 102.4692146 102.4513262  35.4757194  99.1155889
 101.5008893  35.4759056  99.0020261 102.7545749  34.7289929  98.5991924
 106.3375818  13.3931081  95.2834069 105.5708214  12.8389567  95.4290751
 106.7486523  13.4652949  96.1448221  98.3417579  19.6815876 109.3739250
  99.2049041  19.3252681 109.5842575  97.7682990  19.3429771 110.0614655
 118.1865956  41.3117733 100.1801651 118.8244366  41.1924480  99.4764991
 118.0686799  42.2598577 100.2389603 114.9955662  41.2645161 100.1163176
 114.6574174  41.1486226  99.2283711 115.8645430  40.8636326 100.0964182
 110.8542478  43.1180637  96.1060067 110.2907343  43.0270574  95.3376355
 110.7394873  42.2980542  96.5862559 115.4775445  42.4180013 106.0749381
 115.4664086  42.0232811 105.2029885 115.6396085  41.6846085 106.6683153
 108.4006910  44.6131829  98.9444287 109.1928202  44.2722654  98.5290587
 108.6403560  44.7226804  99.8646441 116.4342037  46.7851605  91.4174532
 115.7830016  47.3705685  91.0308546 117.2286399  47.3157800  91.4769569
 110.3597664  43.8740742  91.8161666 111.1328540  43.3269729  91.6774542
 110.7123063  44.7384991  92.0276128 112.1982706  45.2017124 105.0228565
 111.9072572  46.1062755 104.9075232 112.8339691  45.2433652 105.7372635
 113.1238913  42.5793973 101.6129925 113.7202485  42.3549995 100.8986888
 113.1813885  41.8378718 102.2155373 112.6963942  40.0333408  89.4480116
 112.9489462  39.5114930  88.6863579 111.7588501  39.8699554  89.5506800
 117.7407224  39.0369187  97.2554859 118.5270314  38.6188610  96.9045276
 118.0045929  39.9415279  97.4236508 117.9117302  44.4742037  91.9543516
 117.2763135  44.5476663  92.6664421 117.5814708  45.0635636  91.2762595
 123.1415652  38.9744420  98.1587838 123.8740823  38.4043637  98.3925667
 122.3855007  38.5866020  98.5994343 112.4160230  41.9361514  91.6504491
 112.2996488  41.2606418  92.3185575 112.5262490  41.4493888  90.8336644
 114.7591771  41.3971661  95.3551180 114.3949979  40.8702282  96.0664102
 115.6158887  41.0070130  95.1817666 120.6641072  32.6865994 102.6182446
 120.3324397  33.5561405 102.3943661 120.0686685  32.3702278 103.2976477
 114.3997258  36.4261561  90.3512529 114.5671661  37.2941797  90.7183000
 114.2094427  36.5888843  89.4273818 117.1572591  44.8878540 102.0178359
 116.8573315  45.7903579 101.9094166 116.8123651  44.6210723 102.8699512
 110.6085073  41.3392337  98.0515064 109.6835569  41.2068551  98.2592755
 110.8569486  42.1186556  98.5485006 120.5569735  37.4061080  99.6975796
 119.6486613  37.3376489  99.4034557 120.5057331  37.8833025 100.5257622
 114.3786479  38.8819218  91.3359196 114.2586104  39.3276269  92.1744676
 113.6839068  39.2304536  90.7772734 107.9693884  40.9825610  98.8858853
 108.0986265  41.2360089  99.7998264 107.2891335  41.5753318  98.5663508
 112.1393371  51.6522860  94.9849327 112.0617401  52.6030685  95.0637807
 111.5355015  51.3068733  95.6424253 114.6310601  38.8250726 107.6410694
 113.8543935  39.3844646 107.6313558 115.2701164  39.3107509 108.1625564
 122.4231382  35.6077518 101.4753670 121.7805762  35.9010052 100.8293465
 121.9186310  35.4930439 102.2806867 120.0771545  39.3540692  92.1639530
 120.9889401  39.5868078  91.9887227 119.5681192  39.9377736  91.6014608
 112.8856973  41.6336179 107.2028661 113.6271658  42.1721223 106.9263484
 112.1793959  42.2602468 107.3600213 118.3612313  43.7765320 105.8000822
 118.7695669  43.3347730 105.0555455 117.6389574  43.2017947 106.0535015
 114.7143383  38.7137926 103.1734379 115.5604578  39.1377340 103.3169028
 114.6542021  38.0571551 103.8672942 118.6841128  44.3366510  99.5553111
 118.0549990  44.5012224  98.8529179 118.2966790  44.7508120 100.3264075
 122.5630359  45.2720948  96.9097475 121.8781398  45.6519849  96.3594508
 122.6474209  45.8816275  97.6429423 117.8642828  36.3742295 104.8315553
 117.6203760  37.1284355 104.2949829 118.1402759  36.7527642 105.6662800
 119.8181291  42.9180907 103.5092818 120.0298186  43.5612667 102.8327200
 119.7711039  42.0843224 103.0414749 117.4207520  35.5298728 100.4129391
 116.5591999  35.8279981 100.7046128 117.4469955  35.7469127  99.4810423
 114.2369089  44.0740918  96.8203196 114.7007435  44.3528621  96.0307819
 113.9725888  43.1724363  96.6376287 111.1293171  43.6212400  99.7582959
 111.6994528  44.0499668  99.1200444 111.7201282  43.3394984 100.4567145
 113.1737976  40.1964071  93.6292761 113.8762019  40.6485114  94.0966688
 112.8418604  39.5547889  94.2572654 111.6218337  38.7875827 108.0043971
 110.9916998  39.4692108 108.2379368 111.5154425  38.6758909 107.0597109
 106.9163309  38.4547623  98.9309895 106.1262363  38.7105152  98.4550006
 107.4074557  39.2695961  99.0361935 120.9327119  45.7952862 101.6815176
 121.7544563  45.3933050 101.3997857 120.9289522  45.6921097 102.6331292
 108.8678055  38.8192202  95.8893372 108.0709218  38.9310897  96.4076867
 108.6403647  39.1578855  95.0234262 114.6983722  45.3436906 103.8375886
 114.7628155  45.8057313 104.6734058 113.9894646  44.7134271 103.9658196
 105.2001012  38.7078114 101.3624886 105.4509051  39.5925124 101.6282462
 105.7360561  38.5282715 100.5899978 129.0233112  42.1391611  98.0300147
 128.2696820  41.5699009  97.8744152 129.1580653  42.1054275  98.9770782
 114.4131740  47.0105013  93.7054867 114.2777415  47.8556549  94.1339714
 114.9541553  47.2124291  92.9420800 110.8999080  33.0896593 110.3669222
 110.5066025  32.5362792 111.0416866 111.7165220  33.4007172 110.7575739
 107.8661138  44.5280451  94.2782792 108.3785658  45.3223701  94.4288356
 108.5183850  43.8306742  94.2116393 109.6756022  47.6446208  96.3605545
 109.8522651  48.5664172  96.1726529 110.4712856  47.3304627  96.7899925
 113.8167041  34.5054472 107.9589478 114.5576754  35.1061625 107.8793941
 114.0484964  33.7632110 107.4007521 108.9608379  39.6910839 106.2367708
 108.8461894  38.7896097 106.5374807 108.1052897  39.9374536 105.8852525
 116.0400217  47.6328580 107.8355209 115.5964071  46.8464958 107.5176113
 116.7017430  47.8207730 107.1699099 110.7987338  49.1624381 102.3615887
 111.3494763  49.0341445 101.5892881 109.9598814  49.4619270 102.0110780
 118.1381455  47.9131380 105.8636610 118.1199930  48.7340261 105.3716879
 119.0601375  47.7885455 106.0886751 114.5954509  45.4275509 106.7060118
 115.1282846  44.6663797 106.4759426 114.0668590  45.1349161 107.4484273
 117.7624204  30.5335575 102.2353760 117.4188473  31.4237217 102.1592871
 118.1303166  30.3437233 101.3723345 105.8310054  42.8569106  95.0542362
 106.6685276  43.2666114  94.8376070 106.0088322  41.9168548  95.0242556
 117.7274486  40.5244186  90.7426195 117.2121110  41.2948791  90.9814583
 117.4551795  39.8509322  91.3659257 115.3121597  35.3693887  95.8011434
 114.4563194  34.9800737  95.6217072 115.7248549  35.4485848  94.9411219
 116.8420744  32.9040230 100.2002993 116.3385540  32.8670365  99.3870799
 117.1351351  33.8132973 100.2599650 113.0863630  32.9878960  99.2069175
 113.9516627  32.7921769  98.8475065 113.1541139  32.7589312 100.1338532
 122.7008761  43.2776541  92.6779369 121.9238203  42.9387700  92.2334531
 123.3800242  43.2829164  92.0034334 117.5160790  38.3971278  92.5685976
 117.2110925  38.7117427  93.4196120 118.4691232  38.4752698  92.6113309
 115.9607221  44.5561502  94.2178930 115.4328583  43.8214261  93.9052168
 115.4594724  45.3336178  93.9718899 120.9400067  42.7510522  99.3345977
 120.2823742  43.4409783  99.4226105 121.7440467  43.1406954  99.6779963
 110.6925949  35.2181168  96.5785542 111.2669701  34.9956349  95.8458735
 111.2796932  35.2869862  97.3314143 119.7505526  41.1054895  97.3849918
 120.2637408  41.7384887  97.8871628 120.4006750  40.5056090  97.0193278
 111.0195536  37.2485629  90.5981427 110.1832848  37.5860315  90.9190702
 110.8800306  37.1134609  89.6608564 112.9948617  32.0922417  95.3060611
 112.3413029  31.7771434  94.6817226 112.9529091  31.4698157  96.0320434
 114.1059822  42.3741712  87.2213903 113.1986883  42.1430965  87.4205052
 114.6030854  41.5779331  87.4087885 117.0127901  51.0839219  90.1410590
 116.3389599  51.3870916  90.7495547 117.3993722  51.8868299  89.7916047
 116.2286357  38.5804350  99.6308259 115.3108919  38.8019297  99.4729947
 116.6446501  38.6550661  98.7719966 117.0121405  39.9795766  94.7610939
 117.7593224  40.4917163  94.4518061 117.2812994  39.6579819  95.6215333
 115.2848055  42.4754307  91.7437893 114.3759274  42.1913340  91.8410363
 115.3143139  42.8953385  90.8841200 120.5167322  46.0860896  95.5129061
 120.0629650  45.2451806  95.5694251 119.8861289  46.7222295  95.8503841
 119.4600242  37.0152882  96.7429728 118.7222999  36.5030268  97.0739971
 119.7127016  36.5753264  95.9313005 118.9600262  47.9237393  96.4478879
 119.2523236  48.4842450  95.7291245 119.4698882  48.2165954  97.2032038
 119.5611869  29.7929134  97.3371498 119.8670746  28.9326498  97.0497413
 120.2864474  30.3846754  97.1370492 105.8536225  40.1959821  95.7253096
 105.6560625  39.6029182  95.0004162 105.2982889  39.8912031  96.4429034
 113.8332949  40.0882927  97.8447689 113.8881559  39.1356764  97.7690165
 113.0224151  40.2442366  98.3288987 114.9824143  44.0163050  89.0825972
 114.5443573  43.2998909  88.6231609 115.7234584  44.2439165  88.5211063
 111.7725309  38.7059987  95.6038068 110.9593175  39.0054158  96.0103260
 112.2684303  38.3115676  96.3212550 113.9233887  48.7017744  97.5372332
 113.8810066  48.9278590  96.6080864 114.8396586  48.4681119  97.6858134
 117.3699521  39.1701812 104.4352962 117.7248908  39.3973285 105.2947427
 118.0171652  39.5020188 103.8130217 123.0997258  42.2920247  95.1402291
 122.9615156  42.4821843  94.2123480 122.7433476  43.0539630  95.5970342
 111.2639384  36.2778343 101.2199303 111.9038763  36.1367102 100.5222266
 110.4316914  35.9912856 100.8437905 123.1266637  44.3596774 100.1513562
 123.5603144  44.2672064 100.9996616 123.8398218  44.3354275  99.5133578
 112.0399688  45.5780773  97.3334295 112.8340286  45.0831093  97.1316870
 111.3291380  45.0498636  96.9702001 116.8594532  47.9598869 101.6846663
 116.9131554  48.5289805 102.4524379 115.9909314  48.1300754 101.3200700
 108.3482451  39.7223855  93.4094048 107.4180039  39.6608310  93.6264010
 108.4439923  39.1999808  92.6130689 108.2668000  36.2478668  95.9972289
 108.5274818  37.1624001  95.8881450 109.0885173  35.7803110  96.1468902
 109.7392926  37.6616425 103.1671114 110.4115979  37.4533787 102.5183763
 108.9122712  37.4638511 102.7276346 123.9882187  44.4020475 102.6846448
 124.1818077  45.3066286 102.9305722 123.8882805  43.9427894 103.5185033
 115.6418498  34.2878366 105.1836775 114.9946413  34.9868315 105.0901251
 116.4119513  34.7214510 105.5513023 119.0497296  44.5527218 108.2587328
 118.8982802  44.3237770 107.3417412 119.0401975  45.5097819 108.2718673
 115.8182632  42.1259131 103.2433595 116.7474692  42.2770290 103.0702562
 115.3973662  42.2143151 102.3882241 114.6170964  46.1509795 101.0132132
 114.4782049  45.7828579 101.8858070 113.8285560  46.6657434 100.8416090
 115.2119116  51.2518891  92.3557669 115.3870871  50.7806935  93.1703291
 114.5251904  51.8784658  92.5838929 116.1676179  45.5291398  98.4020970
 115.8326011  45.4892168  99.2978620 115.6680125  44.8636114  97.9291380
 110.1420423  40.9359028 103.9273551 110.0040221  40.2039267 104.5285090
 111.0525346  40.8467928 103.6457739 119.1035370  42.8747432  88.6758030
 118.4864541  42.1494260  88.5791082 118.6351859  43.6356792  88.3325104
 112.7702723  40.6478987 103.4157231 113.4802342  40.0072179 103.3743849
 112.7272032  40.8991882 104.3383412 120.7589502  47.5846340 106.3363810
 120.7002048  46.9005561 105.6694393 121.1609021  48.3265330 105.8844436
 111.4831657  37.6344205 105.2352870 110.9469014  37.1834943 105.8874467
 110.8948366  37.7690114 104.4923335 109.7780201  54.4008254  99.1297529
 110.0176799  55.0326778  99.8076547 108.9349397  54.0496294  99.4162888
 110.8933916  37.0932856  87.7979334 110.0163383  36.9721657  87.4341581
 111.3691669  36.3018935  87.5458223 120.7606909  45.5485924 104.5677790
 119.8733688  45.2111846 104.6904189 121.3305460  44.8168956 104.8046555
 102.4136057  41.8810016  97.8920841 103.1007096  41.5671746  97.3041856
 102.2584185  42.7851381  97.6188092 107.2170779  36.7700213 102.3205865
 107.1328967  36.1625882 101.5856275 106.3953485  37.2609231 102.3215361
 114.2908063  50.2087377 101.5339033 114.2178234  51.0142348 102.0458337
 113.8485456  50.4079343 100.7087054 114.0797842  49.4459147  95.0441854
 113.2965364  49.9880827  95.1380079 114.7790588  49.9633126  95.4436096
 117.3894493  35.2553776  97.6876060 117.8863192  34.5023739  97.3677130
 116.6181474  35.2918093  97.1219269 125.2424250  40.9594142  99.3294351
 125.2314126  41.8418857  98.9588284 124.3741629  40.6065693  99.1348888
 116.7506746  50.1074211 103.6897192 117.4634719  50.7421676 103.6173093
 116.2596775  50.2038077 102.8737193 118.4724273  44.0125463  95.2614483
 117.5380552  44.1326926  95.0919188 118.6500942  43.1097930  94.9974493
 113.9729461  37.3971159  97.4147744 113.6027249  36.8442200  98.1028650
 114.4688554  36.7929293  96.8622744 121.8596825  39.8542783  95.7964517
 122.3257277  40.6870774  95.7224820 122.3104325  39.3887764  96.5009776
 111.8018660  47.8568654 104.5102762 112.5028119  48.4905137 104.6632157
 111.3313775  48.1983386 103.7498402 119.9273056  46.1986604  92.7950669
 120.2032900  46.0843199  93.7044543 119.0577554  45.8004089  92.7562842
 119.8313487  32.2223370  99.8355419 118.9176567  32.4527597 100.0037626
 120.2606589  32.3061814 100.6869451 119.6019946  40.4113262 102.3355313
 118.9491396  40.6589169 101.6807765 119.9800326  39.5977400 102.0017790
 116.5627120  50.4472955  96.4383483 116.7449514  49.6294611  96.9011235
 117.3860106  50.6640647  96.0008373 116.8969285  49.3741140  93.6998531
 117.4257052  48.8633595  93.0868694 117.1597505  49.0583670  94.5644064
 115.6507519  41.1533073 108.8221350 114.9748156  41.0527202 109.4923725
 116.4735153  40.9972286 109.2857347 107.3986378  47.3905009 101.4433865
 107.9839815  46.6448697 101.5761769 107.2011216  47.7008966 102.3270529
 110.2525033  50.4256257  96.4596307 109.5835408  50.9102384  95.9760347
 110.1137903  50.6725477  97.3739686 101.9904033  39.9610609 100.1638308
 102.0288132  39.4274200 100.9575426 101.4844325  39.4345815  99.5449285
 114.3930302  52.4600000 103.0578966 114.9448610  52.6231622 103.8228051
 114.7336495  53.0504438 102.3858991 109.3694795  34.8075150 103.6600850
 109.4336121  35.6689981 103.2478248 109.3061915  34.1949152 102.9273209
 108.8447067  36.8798282 107.3073885 109.4719106  36.4975360 107.9211409
 107.9874986  36.6612484 107.6729577 119.2441176  47.2861258 108.9127620
 119.7881080  47.8991216 108.4182575 118.6628021  47.8440836 109.4294633
 105.6212610  38.6874712  93.2392240 105.9166051  37.7785390  93.1859293
 104.7200646  38.6662451  92.9173242 117.5298689  50.4081976 100.0442648
 117.4049828  49.6071716  99.5353593 118.1877780  50.9028169  99.5556618
 109.1506857  36.7630708  99.2219788 108.4293443  37.3766676  99.0827261
 109.9400113  37.2988473  99.1436434 119.5933597  48.2090996 101.6722198
 118.6463933  48.0896347 101.6000525 119.9416371  47.3213494 101.7548459
 111.9533171  34.0985135 105.4960440 112.4767573  34.3447431 106.2586749
 111.7345504  34.9305169 105.0763577 107.3500452  36.3688809  93.3631565
 107.0213158  35.4886188  93.1806671 107.7039823  36.3136478  94.2507954
 116.5980031  48.0043712  97.8726550 116.4504993  47.0760419  98.0534120
 117.4233524  48.0263803  97.3883625 110.4642275  36.6561779  93.7307042
 110.8038347  37.1847700  93.0085651 110.9114395  36.9942185  94.5065609
 120.2014153  48.8272271  98.9591423 121.1260700  48.6215132  98.8215874
 120.0329456  48.5788672  99.8680764 113.1585716  35.0398830 103.1810110
 112.8182536  34.2406643 103.5830790 112.4524722  35.3400541 102.6086944
 113.8102188  32.1248142 101.6337433 114.6328257  31.6508620 101.5116324
 114.0540251  32.9038626 102.1336120 112.4510422  35.1536401  91.9300335
 113.1718785  35.5317653  91.4264052 111.8275726  35.8725277  92.0335313
 116.5941545  35.8581550  92.8658667 116.8105159  36.7406187  92.5647496
 116.1135612  35.4667763  92.1364309 111.3340766  38.8167263  99.4429412
 111.1885347  39.1307566 100.3353694 110.8565970  39.4352163  98.8900311
 113.1937149  35.8069811  99.4910302 113.1798718  34.9110904  99.1542600
 113.9109577  35.8140475 100.1248588 115.0463280  36.2407151 101.5363429
 114.7881058  37.1624222 101.5347759 114.5148320  35.8437586 102.2263893
 119.9909469  49.3457938  94.3153514 120.1646346  48.7804361  93.5627367
 120.4838360  50.1458833  94.1333004 105.8086429  41.3572607 102.3817073
 105.2639897  42.1332415 102.5137348 106.6865778  41.7043412 102.2236195
 112.5974045  34.6884191  94.7597872 112.7189956  33.7600837  94.9588759
 112.3076088  34.7022877  93.8476187 115.4665236  32.3739102  97.8964592
 115.4886932  32.4378435  96.9416571 115.8833295  31.5343610  98.0905098
 125.8448860  42.1094361  95.9343814 126.2880006  41.3601686  95.5362937
 124.9675370  42.1004497  95.5517546 120.9784641  48.6624703  91.4150413
 121.6735546  49.2831395  91.6337727 121.3207791  47.8120054  91.6902791
 106.5952450  40.4842504 105.2747230 105.8534186  40.6325139 105.8611861
 106.2745195  40.7450769 104.4113980 122.8776064  46.1124408  92.9437743
 123.4027388  46.4511681  92.2187064 122.7898417  45.1771423  92.7600878
 114.5396113  50.0258482 105.0727620 114.8483240  49.7807628 105.9450320
 115.3371595  50.2305120 104.5846490 114.5616725  52.1796391  97.3032997
 114.1221715  51.6872770  97.9965853 115.3124842  51.6369359  97.0625072
 107.0409064  48.3707932  97.3057625 107.8667084  48.0711704  96.9256268
 106.6903116  47.6015555  97.7547413 112.0090597  47.7234400  99.3755298
 111.3870607  47.0605105  99.0757526 112.6795464  47.7495532  98.6928946
 105.2417669  46.2894259  98.2646558 104.4049577  45.8616433  98.0830560
 105.2141315  46.4826702  99.2017350 112.0815125  36.2016188 108.9687804
 112.1303280  37.0778311 108.5865574 112.6237639  35.6593582 108.3959448
 122.5669970  46.7457312 108.2488941 121.7765514  46.7281451 107.7093441
 122.3303325  47.2845605 109.0037978 122.6867845  43.5949778 105.5621670
 122.7365850  43.4299786 106.5037193 122.5781769  42.7277037 105.1719551
 111.5704104  46.2738324  92.8513759 111.7192225  46.9573788  92.1980432
 112.3770548  46.2543414  93.3663215 119.9771608  39.5780706 106.8780977
 120.8781471  39.4387171 106.5864975 120.0519582  39.7435161 107.8179154
 114.3114413  36.9547561 105.7234163 113.4417723  37.2481127 105.4516752
 114.5473894  37.5388006 106.4441427 124.1886042  46.0146720 105.8063692
 123.8970851  46.3776700 106.6427152 123.5758174  45.3013728 105.6277024
 125.3881725  43.5799599  98.3266262 126.2228616  44.0189403  98.4903822
 125.5240853  43.1038253  97.5074508 122.4373231  41.1379334 104.2743750
 122.9127352  41.3306981 103.4662601 121.5138796  41.1938520 104.0287133
 109.3256737  42.3003501  93.8574828 109.0802779  41.3965831  94.0555038
 109.4952652  42.3020652  92.9154306 117.0153447  33.1727178 103.2399583
 117.5335391  33.9088205 102.9146072 116.6608580  33.4791171 104.0746343
 108.5952385  38.0331859  91.3560989 107.9021630  38.1076214  90.7001025
 108.3504137  37.2692203  91.8782506 117.2666041  29.5927460  98.7600480
 117.5467795  28.9250649  99.3860907 118.0516648  29.7856556  98.2475144
 115.0699510  48.7686454  90.3225506 114.4973477  49.3876641  89.8695978
 115.6432303  49.3185816  90.8565428 121.1374900  38.0145094 102.5072055
 122.0892322  38.1143192 102.5284279 120.9678350  37.2223363 103.0170139
 119.1589279  35.1000678 102.6931456 118.5639211  35.3805690 101.9977945
 118.8738976  35.5894578 103.4648197 118.2896769  49.0523604  91.4534089
 119.2227443  48.9869166  91.6566964 118.2019982  49.8879871  90.9948621
 120.9184786  48.3689475  88.4138036 120.8398418  48.0349338  89.3073794
 121.7394453  48.8611243  88.4129509 123.6162977  41.2351214 101.6214355
 123.5839297  40.2967215 101.8074039 124.2263601  41.3135251 100.8880180
 115.4546308  40.1047267  87.6641559 116.4005413  39.9753475  87.7329977
 115.0760553  39.3661929  88.1410987 123.7657466  38.0262257 101.6672638
 123.2496514  37.2420714 101.4802567 124.6497414  37.6980974 101.8319157
 121.4268193  31.7703273  97.6268451 121.2293014  31.4618361  98.5111783
 122.0367898  32.4964912  97.7566380 129.4339527  42.2967221 100.7620392
 130.1642916  42.0352509 101.3228095 128.8246473  41.5595943 100.8022460
 127.5154824  40.4375083 101.3594843 126.7887988  40.3031048 100.7511334
 127.1002111  40.7451912 102.1651561 115.3385001  44.1565013 109.1242216
 116.2588010  44.3343612 109.3182262 115.3034584  43.2121058 108.9721915
 113.6389225  38.0297243  87.5996444 112.7320681  37.7330356  87.6759158
 113.9165206  37.7327061  86.7330730 104.5567166  39.3503607  98.0495490
 104.2369950  38.4968915  97.7569864 104.0100594  39.5652185  98.8053458
 108.3347073  42.0666048 101.7664997 108.5533083  42.9983156 101.7853031
 108.7472847  41.7074022 102.5519801 115.2551291  32.5734133  93.7540685
 114.4452019  32.2281218  94.1295931 115.9435708  32.2641677  94.3428297
 117.1841839  31.6512180  95.3764982 117.7372878  32.0707633  96.0355005
 117.4211926  30.7247928  95.4187938 113.2074939  37.6399254 111.1567746
 113.1071665  38.5893611 111.0879837 112.9896481  37.3117492 110.2843816
 112.4088010  34.8884179  87.7408423 113.2707174  35.2139077  88.0004241
 112.5938354  34.1015675  87.2281489 104.4255426  42.9706518 100.0188612
 103.7318897  42.5560471  99.5058566 105.1728417  43.0127055  99.4222031
 120.5620646  33.7612705  94.8843646 119.9819315  34.4197509  94.5021699
 120.2956579  32.9390050  94.4731064 119.0124213  33.1617763  97.0864967
 119.5123991  33.2734297  96.2779285 119.6559821  32.8578816  97.7265775
 113.0706209  41.0696392 109.9732808 112.5873290  41.8696752 110.1796697
 113.1567148  41.0804337 109.0200252 106.3392168  42.9024772  97.8954627
 106.3162856  43.0012459  96.9436510 106.6492805  43.7489923  98.2171793
 108.9979546  44.9600927 102.0101241 109.9522800  44.9284869 101.9431173
 108.7992070  44.4991551 102.8251467 109.5878928  43.5302043 104.5772039
 110.4071817  44.0246122 104.6006876 109.8615736  42.6134011 104.5489606
 119.3445524  35.9212795  93.9399995 118.4571379  36.2062446  93.7220189
 119.7599514  35.7606559  93.0927271 122.6960061  35.9459316  97.6554334
 123.4720451  36.4355769  97.9278951 121.9708195  36.3717371  98.1126203
 125.1332619  36.6586936  98.7128274 125.7277110  36.4182672  98.0021583
 125.2059203  35.9394066  99.3401811 107.3529775  50.5020547  99.0271439
 107.2184243  49.7420947  98.4609437 106.9361837  51.2261446  98.5600228
 118.4888738  45.6857470  88.0348014 119.1924588  45.8907473  88.6505670
 117.7651387  46.2534232  88.2997098 119.3186548  41.4367331  94.1550285
 119.2621750  41.8935883  93.3157917 119.8714891  40.6758016  93.9773127
 123.1291354  37.2257063  94.9800404 122.8728288  36.8253699  95.8108612
 122.5044222  37.9400857  94.8550543 127.4403692  39.9653136  97.4871696
 126.8803250  40.0346326  98.2603258 126.8347195  39.7894121  96.7671192
 110.5098901  51.3989864  99.2389882 110.3931285  52.3435296  99.1368572
 109.6891347  51.0963425  99.6275681 120.3975435  46.1239999  90.0846475
 121.2321039  45.6921198  89.9023949 120.2359778  45.9522013  91.0123369
 120.0521328  42.6272113  91.4502814 119.9970131  42.4616384  90.5091258
 119.4267383  43.3348146  91.6065004 104.8413843  37.8640177 105.2764236
 105.4872706  37.3539131 105.7651461 104.6330994  38.6008859 105.8507661
 117.3667235  44.9321024 110.7756377 118.2358394  45.1061677 110.4143012
 116.8873986  45.7515441 110.6532106 113.3617453  32.1280222  91.0288132
 113.3496123  33.0722062  91.1856403 114.2540875  31.9450367  90.7347593
 111.5353415  52.0518125 102.4545810 112.4380662  52.0841736 102.7712305
 111.3090785  51.1218576 102.4692146 113.2907017  50.8049112  99.1155889
 112.3402648  50.8050974  99.0020261 113.5939503  50.0581847  98.5991924
 117.1769572  28.7222998  95.2834069 116.4101968  28.1681485  95.4290751
 117.5880277  28.7944867  96.1448221 109.1811334  35.0107794 109.3739250
 110.0442795  34.6544599 109.5842575 108.6076744  34.6721689 110.0614655
 129.0259710  56.6409650 100.1801651 129.6638120  56.5216398  99.4764991
 128.9080553  57.5890494 100.2389603 125.8349417  56.5937079 100.1163176
 125.4967928  56.4778143  99.2283711 126.7039185  56.1928244 100.0964182
 121.6936232  58.4472555  96.1060067 121.1301098  58.3562492  95.3376355
 121.5788627  57.6272459  96.5862559 126.3169200  57.7471930 106.0749381
 126.3057840  57.3524729 105.2029885 126.4789839  57.0138003 106.6683153
 119.2400664  59.9423747  98.9444287 120.0321956  59.6014571  98.5290587
 119.4797315  60.0518722  99.8646441 127.2735791  62.1143523  91.4174532
 126.6223771  62.6997603  91.0308546 128.0680154  62.6449718  91.4769569
 121.1991418  59.2032660  91.8161666 121.9722294  58.6561647  91.6774542
 121.5516817  60.0676909  92.0276128 123.0376461  60.5309042 105.0228565
 122.7466327  61.4354673 104.9075232 123.6733445  60.5725570 105.7372635
 123.9632668  57.9085891 101.6129925 124.5596240  57.6841913 100.8986888
 124.0207639  57.1670636 102.2155373 123.5357696  55.3625326  89.4480116
 123.7883217  54.8406847  88.6863579 122.5982255  55.1991471  89.5506800
 128.5800979  54.3661104  97.2554859 129.3664068  53.9480527  96.9045276
 128.8439683  55.2707196  97.4236508 128.7511056  59.8033955  91.9543516
 128.1156889  59.8768581  92.6664421 128.4208463  60.3927553  91.2762595
 133.9809406  54.3036337  98.1587838 134.7134578  53.7335554  98.3925667
 133.2248762  53.9157938  98.5994343 123.2553985  57.2653432  91.6504491
 123.1390243  56.5898335  92.3185575 123.3656245  56.7785806  90.8336644
 125.5985526  56.7263579  95.3551180 125.2343733  56.1994200  96.0664102
 126.4552642  56.3362048  95.1817666 131.5034826  48.0157912 102.6182446
 131.1718151  48.8853323 102.3943661 130.9080440  47.6994196 103.2976477
 125.2391013  51.7553479  90.3512529 125.4065415  52.6233715  90.7183000
 125.0488182  51.9180760  89.4273818 127.9966346  60.2170458 102.0178359
 127.6967069  61.1195496 101.9094166 127.6517405  59.9502641 102.8699512
 121.4478827  56.6684254  98.0515064 120.5229324  56.5360469  98.2592755
 121.6963241  57.4478474  98.5485006 131.3963490  52.7352998  99.6975796
 130.4880367  52.6668406  99.4034557 131.3451086  53.2124943 100.5257622
 125.2180234  54.2111136  91.3359196 125.0979859  54.6568187  92.1744676
 124.5232822  54.5596454  90.7772734 118.8087638  56.3117528  98.8858853
 118.9380020  56.5652007  99.7998264 118.1285090  56.9045236  98.5663508
 122.9787126  66.9814778  94.9849327 122.9011155  67.9322603  95.0637807
 122.3748769  66.6360650  95.6424253 125.4704355  54.1542643 107.6410694
 124.6937690  54.7136563 107.6313558 126.1094919  54.6399426 108.1625564
 133.2625136  50.9369436 101.4753670 132.6199516  51.2301969 100.8293465
 132.7580065  50.8222356 102.2806867 130.9165300  54.6832609  92.1639530
 131.8283156  54.9159996  91.9887227 130.4074947  55.2669654  91.6014608
 123.7250728  56.9628097 107.2028661 124.4665412  57.5013141 106.9263484
 123.0187713  57.5894385 107.3600213 129.2006067  59.1057237 105.8000822
 129.6089423  58.6639648 105.0555455 128.4783329  58.5309865 106.0535015
 125.5537137  54.0429844 103.1734379 126.3998333  54.4669258 103.3169028
 125.4935775  53.3863468 103.8672942 129.5234882  59.6658428  99.5553111
 128.8943745  59.8304142  98.8529179 129.1360544  60.0800037 100.3264075
 133.4024114  60.6012866  96.9097475 132.7175152  60.9811767  96.3594508
 133.4867963  61.2108192  97.6429423 128.7036583  51.7034212 104.8315553
 128.4597515  52.4576273 104.2949829 128.9796513  52.0819560 105.6662800
 130.6575046  58.2472825 103.5092818 130.8691941  58.8904585 102.8327200
 130.6104794  57.4135141 103.0414749 128.2601275  50.8590645 100.4129391
 127.3985754  51.1571899 100.7046128 128.2863709  51.0761044  99.4810423
 125.0762844  59.4032836  96.8203196 125.5401189  59.6820539  96.0307819
 124.8119642  58.5016280  96.6376287 121.9686925  58.9504317  99.7582959
 122.5388282  59.3791586  99.1200444 122.5595037  58.6686902 100.4567145
 124.0131730  55.5255988  93.6292761 124.7155773  55.9777032  94.0966688
 123.6812359  54.8839807  94.2572654 122.4612092  54.1167745 108.0043971
 121.8310752  54.7984026 108.2379368 122.3548179  54.0050826 107.0597109
 117.7557064  53.7839541  98.9309895 116.9656118  54.0397069  98.4550006
 118.2468311  54.5987879  99.0361935 131.7720874  61.1244780 101.6815176
 132.5938317  60.7224967 101.3997857 131.7683276  61.0213014 102.6331292
 119.7071809  54.1484120  95.8893372 118.9102973  54.2602814  96.4076867
 119.4797402  54.4870772  95.0234262 125.5377477  60.6728823 103.8375886
 125.6021910  61.1349231 104.6734058 124.8288401  60.0426188 103.9658196
 116.0394767  54.0370031 101.3624886 116.2902805  54.9217041 101.6282462
 116.5754315  53.8574633 100.5899978 139.8626867  57.4683529  98.0300147
 139.1090575  56.8990927  97.8744152 139.9974408  57.4346193  98.9770782
 125.2525495  62.3396931  93.7054867 125.1171169  63.1848467  94.1339714
 125.7935307  62.5416209  92.9420800 121.7392834  48.4188511 110.3669222
 121.3459780  47.8654709 111.0416866 122.5558975  48.7299089 110.7575739
 118.7054892  59.8572369  94.2782792 119.2179413  60.6515619  94.4288356
 119.3577605  59.1598659  94.2116393 120.5149777  62.9738125  96.3605545
 120.6916405  63.8956090  96.1726529 121.3106610  62.6596544  96.7899925
 124.6560795  49.8346390 107.9589478 125.3970509  50.4353543 107.8793941
 124.8878718  49.0924028 107.4007521 119.8002133  55.0202757 106.2367708
 119.6855648  54.1188014 106.5374807 118.9446651  55.2666454 105.8852525
 126.8793971  62.9620497 107.8355209 126.4357825  62.1756876 107.5176113
 127.5411185  63.1499648 107.1699099 121.6381092  64.4916299 102.3615887
 122.1888517  64.3633362 101.5892881 120.7992568  64.7911188 102.0110780
 128.9775209  63.2423297 105.8636610 128.9593684  64.0632178 105.3716879
 129.8995129  63.1177373 106.0886751 125.4348263  60.7567427 106.7060118
 125.9676600  59.9955715 106.4759426 124.9062344  60.4641079 107.4484273
 128.6017958  45.8627493 102.2353760 128.2582228  46.7529134 102.1592871
 128.9696921  45.6729150 101.3723345 116.6703809  58.1861023  95.0542362
 117.5079031  58.5958032  94.8376070 116.8482077  57.2460465  95.0242556
 128.5668241  55.8536104  90.7426195 128.0514864  56.6240709  90.9814583
 128.2945549  55.1801240  91.3659257 126.1515352  50.6985805  95.8011434
 125.2956948  50.3092655  95.6217072 126.5642304  50.7777765  94.9411219
 127.6814499  48.2332148 100.2002993 127.1779294  48.1962283  99.3870799
 127.9745105  49.1424891 100.2599650 123.9257384  48.3170878  99.2069175
 124.7910381  48.1213686  98.8475065 123.9934893  48.0881229 100.1338532
 133.5402515  58.6068459  92.6779369 132.7631958  58.2679618  92.2334531
 134.2193996  58.6121082  92.0034334 128.3554544  53.7263196  92.5685976
 128.0504680  54.0409345  93.4196120 129.3084986  53.8044616  92.6113309
 126.8000976  59.8853419  94.2178930 126.2722338  59.1506179  93.9052168
 126.2988479  60.6628096  93.9718899 131.7793822  58.0802440  99.3345977
 131.1217496  58.7701701  99.4226105 132.5834221  58.4698872  99.6779963
 121.5319704  50.5473086  96.5785542 122.1063455  50.3248267  95.8458735
 122.1190686  50.6161780  97.3314143 130.5899281  56.4346812  97.3849918
 131.1031163  57.0676804  97.8871628 131.2400505  55.8348008  97.0193278
 121.8589291  52.5777547  90.5981427 121.0226603  52.9152233  90.9190702
 121.7194060  52.4426526  89.6608564 123.8342371  47.4214334  95.3060611
 123.1806784  47.1063352  94.6817226 123.7922845  46.7990075  96.0320434
 124.9453576  57.7033630  87.2213903 124.0380638  57.4722883  87.4205052
 125.4424608  56.9071249  87.4087885 127.8521655  66.4131137  90.1410590
 127.1783354  66.7162833  90.7495547 128.2387477  67.2160217  89.7916047
 127.0680112  53.9096268  99.6308259 126.1502673  54.1311215  99.4729947
 127.4840255  53.9842578  98.7719966 127.8515159  55.3087684  94.7610939
 128.5986978  55.8209081  94.4518061 128.1206749  54.9871736  95.6215333
 126.1241810  57.8046224  91.7437893 125.2153029  57.5205257  91.8410363
 126.1536893  58.2245303  90.8841200 131.3561077  61.4152814  95.5129061
 130.9023404  60.5743724  95.5694251 130.7255044  62.0514212  95.8503841
 130.2993997  52.3444800  96.7429728 129.5616753  51.8322186  97.0739971
 130.5520770  51.9045182  95.9313005 129.7994016  63.2529311  96.4478879
 130.0916991  63.8134368  95.7291245 130.3092637  63.5457872  97.2032038
 130.4005624  45.1221052  97.3371498 130.7064501  44.2618415  97.0497413
 131.1258229  45.7138672  97.1370492 116.6929980  55.5251739  95.7253096
 116.4954380  54.9321099  95.0004162 116.1376644  55.2203949  96.4429034
 124.6726704  55.4174845  97.8447689 124.7275313  54.4648681  97.7690165
 123.8617906  55.5734284  98.3288987 125.8217897  59.3454968  89.0825972
 125.3837327  58.6290827  88.6231609 126.5628338  59.5731083  88.5211063
 122.6119064  54.0351905  95.6038068 121.7986929  54.3346075  96.0103260
 123.1078058  53.6407594  96.3212550 124.7627641  64.0309662  97.5372332
 124.7203820  64.2570508  96.6080864 125.6790340  63.7973036  97.6858134
 128.2093275  54.4993729 104.4352962 128.5642663  54.7265202 105.2947427
 128.8565406  54.8312106 103.8130217 133.9391012  57.6212165  95.1402291
 133.8008911  57.8113761  94.2123480 133.5827231  58.3831548  95.5970342
 122.1033138  51.6070260 101.2199303 122.7432518  51.4659019 100.5222266
 121.2710669  51.3204774 100.8437905 133.9660392  59.6888692 100.1513562
 134.3996898  59.5963981 100.9996616 134.6791972  59.6646193  99.5133578
 122.8793442  60.9072691  97.3334295 123.6734041  60.4123011  97.1316870
 122.1685135  60.3790554  96.9702001 127.6988287  63.2890786 101.6846663
 127.7525309  63.8581723 102.4524379 126.8303068  63.4592671 101.3200700
 119.1876206  55.0515772  93.4094048 118.2573794  54.9900228  93.6264010
 119.2833678  54.5291725  92.6130689 119.1061755  51.5770585  95.9972289
 119.3668572  52.4915919  95.8881450 119.9278927  51.1095028  96.1468902
 120.5786680  52.9908342 103.1671114 121.2509733  52.7825705 102.5183763
 119.7516467  52.7930428 102.7276346 134.8275941  59.7312393 102.6846448
 135.0211831  60.6358203 102.9305722 134.7276559  59.2719812 103.5185033
 126.4812252  49.6170283 105.1836775 125.8340167  50.3160233 105.0901251
 127.2513267  50.0506427 105.5513023 129.8891050  59.8819136 108.2587328
 129.7376556  59.6529687 107.3417412 129.8795729  60.8389737 108.2718673
 126.6576386  57.4551048 103.2433595 127.5868446  57.6062208 103.0702562
 126.2367416  57.5435069 102.3882241 125.4564718  61.4801713 101.0132132
 125.3175804  61.1120497 101.8858070 124.6679314  61.9949352 100.8416090
 126.0512870  66.5810809  92.3557669 126.2264626  66.1098852  93.1703291
 125.3645658  67.2076575  92.5838929 127.0069933  60.8583315  98.4020970
 126.6719766  60.8184085  99.2978620 126.5073879  60.1928031  97.9291380
 120.9814177  56.2650945 103.9273551 120.8433975  55.5331184 104.5285090
 121.8919101  56.1759846 103.6457739 129.9429125  58.2039350  88.6758030
 129.3258296  57.4786178  88.5791082 129.4745613  58.9648710  88.3325104
 123.6096478  55.9770905 103.4157231 124.3196096  55.3364097 103.3743849
 123.5665786  56.2283800 104.3383412 131.5983257  62.9138258 106.3363810
 131.5395803  62.2297478 105.6694393 132.0002775  63.6557248 105.8844436
 122.3225412  52.9636123 105.2352870 121.7862769  52.5126861 105.8874467
 121.7342120  53.0982031 104.4923335 120.6173955  69.7300172  99.1297529
 120.8570554  70.3618696  99.8076547 119.7743152  69.3788212  99.4162888
 121.7327671  52.4224774  87.7979334 120.8557137  52.3013575  87.4341581
 122.2085424  51.6310852  87.5458223 131.6000664  60.8777842 104.5677790
 130.7127443  60.5403764 104.6904189 132.1699215  60.1460873 104.8046555
 113.2529811  57.2101934  97.8920841 113.9400851  56.8963664  97.3041856
 113.0977940  58.1143298  97.6188092 118.0564533  52.0992130 102.3205865
 117.9722722  51.4917800 101.5856275 117.2347240  52.5901149 102.3215361
 125.1301817  65.5379294 101.5339033 125.0571989  66.3434266 102.0458337
 124.6879210  65.7371260 100.7087054 124.9191597  64.7751064  95.0441854
 124.1359119  65.3172745  95.1380079 125.6184342  65.2925044  95.4436096
 128.2288247  50.5845694  97.6876060 128.7256947  49.8315656  97.3677130
 127.4575229  50.6210011  97.1219269 136.0818004  56.2886059  99.3294351
 136.0707881  57.1710775  98.9588284 135.2135384  55.9357610  99.1348888
 127.5900501  65.4366128 103.6897192 128.3028473  66.0713593 103.6173093
 127.0990529  65.5329994 102.8737193 129.3118028  59.3417381  95.2614483
 128.3774306  59.4618844  95.0919188 129.4894696  58.4389848  94.9974493
 124.8123216  52.7263077  97.4147744 124.4421003  52.1734117  98.1028650
 125.3082308  52.1221210  96.8622744 132.6990579  55.1834700  95.7964517
 133.1651031  56.0162692  95.7224820 133.1498080  54.7179682  96.5009776
 122.6412414  63.1860572 104.5102762 123.3421874  63.8197055 104.6632157
 122.1707529  63.5275303 103.7498402 130.7666810  61.5278522  92.7950669
 131.0426654  61.4135116  93.7044543 129.8971309  61.1296006  92.7562842
 130.6707242  47.5515287  99.8355419 129.7570322  47.7819514 100.0037626
 131.1000343  47.6353731 100.6869451 130.4413700  55.7405179 102.3355313
 129.7885151  55.9881087 101.6807765 130.8194080  54.9269317 102.0017790
 127.4020874  65.7764872  96.4383483 127.5843269  64.9586528  96.9011235
 128.2253860  65.9932565  96.0008373 127.7363040  64.7033058  93.6998531
 128.2650806  64.1925512  93.0868694 127.9991259  64.3875588  94.5644064
 126.4901273  56.4824990 108.8221350 125.8141910  56.3819120 109.4923725
 127.3128907  56.3264204 109.2857347 118.2380132  62.7196927 101.4433865
 118.8233569  61.9740615 101.5761769 118.0404971  63.0300884 102.3270529
 121.0918788  65.7548174  96.4596307 120.4229163  66.2394302  95.9760347
 120.9531657  66.0017395  97.3739686 112.8297787  55.2902527 100.1638308
 112.8681887  54.7566118 100.9575426 112.3238080  54.7637733  99.5449285
 125.2324056  67.7891918 103.0578966 125.7842364  67.9523539 103.8228051
 125.5730250  68.3796356 102.3858991 120.2088549  50.1367068 103.6600850
 120.2729876  50.9981899 103.2478248 120.1455670  49.5241069 102.9273209
 119.6840822  52.2090200 107.3073885 120.3112861  51.8267277 107.9211409
 118.8268741  51.9904402 107.6729577 130.0834931  62.6153175 108.9127620
 130.6274835  63.2283134 108.4182575 129.5021775  63.1732754 109.4294633
 116.4606365  54.0166629  93.2392240 116.7559806  53.1077308  93.1859293
 115.5594400  53.9954369  92.9173242 128.3692444  65.7373893 100.0442648
 128.2443583  64.9363633  99.5353593 129.0271535  66.2320087  99.5556618
 119.9900612  52.0922626  99.2219788 119.2687197  52.7058594  99.0827261
 120.7793868  52.6280391  99.1436434 130.4327352  63.5382913 101.6722198
 129.4857687  63.4188265 101.6000525 130.7810125  62.6505411 101.7548459
 122.7926925  49.4277052 105.4960440 123.3161327  49.6739349 106.2586749
 122.5739259  50.2597087 105.0763577 118.1894206  51.6980727  93.3631565
 117.8606912  50.8178106  93.1806671 118.5433577  51.6428396  94.2507954
 127.4373785  63.3335630  97.8726550 127.2898748  62.4052337  98.0534120
 128.2627279  63.3555720  97.3883625 121.3036029  51.9853697  93.7307042
 121.6432102  52.5139618  93.0085651 121.7508150  52.3234103  94.5065609
 131.0407907  64.1564188  98.9591423 131.9654455  63.9507050  98.8215874
 130.8723210  63.9080590  99.8680764 123.9979470  50.3690747 103.1810110
 123.6576291  49.5698561 103.5830790 123.2918477  50.6692458 102.6086944
 124.6495942  47.4540060 101.6337433 125.4722011  46.9800538 101.5116324
 124.8934006  48.2330544 102.1336120 123.2904177  50.4828318  91.9300335
 124.0112539  50.8609571  91.4264052 122.6669481  51.2017195  92.0335313
 127.4335300  51.1873467  92.8658667 127.6498914  52.0698105  92.5647496
 126.9529367  50.7959681  92.1364309 122.1734521  54.1459181  99.4429412
 122.0279102  54.4599484 100.3353694 121.6959725  54.7644081  98.8900311
 124.0330904  51.1361729  99.4910302 124.0192473  50.2402822  99.1542600
 124.7503332  51.1432392 100.1248588 125.8857034  51.5699069 101.5363429
 125.6274812  52.4916139 101.5347759 125.3542075  51.1729503 102.2263893
 130.8303223  64.6749856  94.3153514 131.0040101  64.1096278  93.5627367
 131.3232114  65.4750751  94.1333004 116.6480183  56.6864525 102.3817073
 116.1033651  57.4624333 102.5137348 117.5259533  57.0335329 102.2236195
 123.4367800  50.0176109  94.7597872 123.5583711  49.0892755  94.9588759
 123.1469842  50.0314795  93.8476187 126.3058990  47.7031019  97.8964592
 126.3280687  47.7670352  96.9416571 126.7227049  46.8635528  98.0905098
 136.6842614  57.4386279  95.9343814 137.1273760  56.6893604  95.5362937
 135.8069125  57.4296415  95.5517546 131.8178396  63.9916620  91.4150413
 132.5129300  64.6123313  91.6337727 132.1601546  63.1411971  91.6902791
 117.4346205  55.8134421 105.2747230 116.6927941  55.9617057 105.8611861
 117.1138949  56.0742687 104.4113980 133.7169819  61.4416326  92.9437743
 134.2421143  61.7803599  92.2187064 133.6292171  60.5063341  92.7600878
 125.3789868  65.3550399 105.0727620 125.6876994  65.1099546 105.9450320
 126.1765350  65.5597038 104.5846490 125.4010480  67.5088309  97.3032997
 124.9615470  67.0164688  97.9965853 126.1518597  66.9661277  97.0625072
 117.8802819  63.6999850  97.3057625 118.7060838  63.4003622  96.9256268
 117.5296871  62.9307472  97.7547413 122.8484352  63.0526318  99.3755298
 122.2264361  62.3897023  99.0757526 123.5189219  63.0787450  98.6928946
 116.0811424  61.6186176  98.2646558 115.2443332  61.1908351  98.0830560
 116.0535069  61.8118620  99.2017350 122.9208879  51.5308106 108.9687804
 122.9697035  52.4070229 108.5865574 123.4631393  50.9885499 108.3959448
 133.4063725  62.0749229 108.2488941 132.6159269  62.0573368 107.7093441
 133.1697079  62.6137523 109.0037978 133.5261600  58.9241696 105.5621670
 133.5759605  58.7591703 106.5037193 133.4175523  58.0568955 105.1719551
 122.4097859  61.6030241  92.8513759 122.5585979  62.2865706  92.1980432
 123.2164302  61.5835332  93.3663215 130.8165362  54.9072624 106.8780977
 131.7175225  54.7679089 106.5864975 130.8913337  55.0727079 107.8179154
 125.1508168  52.2839479 105.7234163 124.2811477  52.5773045 105.4516752
 125.3867648  52.8679924 106.4441427 135.0279797  61.3438637 105.8063692
 134.7364605  61.7068618 106.6427152 134.4151928  60.6305646 105.6277024
 136.2275479  58.9091517  98.3266262 137.0622370  59.3481321  98.4903822
 136.3634608  58.4330170  97.5074508 133.2766985  56.4671252 104.2743750
 133.7521107  56.6598898 103.4662601 132.3532550  56.5230438 104.0287133
 120.1650492  57.6295419  93.8574828 119.9196534  56.7257749  94.0555038
 120.3346406  57.6312570  92.9154306 127.8547202  48.5019095 103.2399583
 128.3729145  49.2380122 102.9146072 127.5002334  48.8083089 104.0746343
 119.4346139  53.3623777  91.3560989 118.7415384  53.4368132  90.7001025
 119.1897891  52.5984120  91.8782506 128.1059796  44.9219378  98.7600480
 128.3861549  44.2542567  99.3860907 128.8910403  45.1148474  98.2475144
 125.9093264  64.0978372  90.3225506 125.3367231  64.7168559  89.8695978
 126.4826058  64.6477734  90.8565428 131.9768654  53.3437012 102.5072055
 132.9286077  53.4435110 102.5284279 131.8072104  52.5515281 103.0170139
 129.9983034  50.4292595 102.6931456 129.4032966  50.7097608 101.9977945
 129.7132730  50.9186496 103.4648197 129.1290524  64.3815522  91.4534089
 130.0621197  64.3161084  91.6566964 129.0413737  65.2171789  90.9948621
 131.7578541  63.6981392  88.4138036 131.6792172  63.3641256  89.3073794
 132.5788207  64.1903160  88.4129509 134.4556732  56.5643132 101.6214355
 134.4233052  55.6259132 101.8074039 135.0657355  56.6427168 100.8880180
 126.2940063  55.4339185  87.6641559 127.2399167  55.3045393  87.7329977
 125.9154308  54.6953847  88.1410987 134.6051220  53.3554175 101.6672638
 134.0890269  52.5712632 101.4802567 135.4891169  53.0272892 101.8319157
 132.2661947  47.0995191  97.6268451 132.0686768  46.7910279  98.5111783
 132.8761653  47.8256830  97.7566380 140.2733282  57.6259139 100.7620392
 141.0036670  57.3644427 101.3228095 139.6640227  56.8887860 100.8022460
 138.3548579  55.7667001 101.3594843 137.6281742  55.6322966 100.7511334
 137.9395866  56.0743830 102.1651561 126.1778755  59.4856931 109.1242216
 127.0981765  59.6635530 109.3182262 126.1428338  58.5412976 108.9721915
 124.4782980  53.3589161  87.5996444 123.5714435  53.0622274  87.6759158
 124.7558961  53.0618979  86.7330730 115.3960920  54.6795524  98.0495490
 115.0763705  53.8260833  97.7569864 114.8494348  54.8944103  98.8053458
 119.1740828  57.3957965 101.7664997 119.3926838  58.3275073 101.7853031
 119.5866602  57.0365940 102.5519801 126.0945046  47.9026051  93.7540685
 125.2845774  47.5573136  94.1295931 126.7829462  47.5933595  94.3428297
 128.0235594  46.9804098  95.3764982 128.5766632  47.3999551  96.0355005
 128.2605680  46.0539846  95.4187938 124.0468693  52.9691171 111.1567746
 123.9465420  53.9185528 111.0879837 123.8290235  52.6409410 110.2843816
 123.2481764  50.2176096  87.7408423 124.1100928  50.5430995  88.0004241
 123.4332109  49.4307592  87.2281489 115.2649180  58.2998436 100.0188612
 114.5712652  57.8852389  99.5058566 116.0122171  58.3418972  99.4222031
 131.4014401  49.0904623  94.8843646 130.8213070  49.7489427  94.5021699
 131.1350334  48.2681967  94.4731064 129.8517967  48.4909680  97.0864967
 130.3517746  48.6026215  96.2779285 130.4953575  48.1870733  97.7265775
 123.9099963  56.3988310 109.9732808 123.4267045  57.1988670 110.1796697
 123.9960902  56.4096255 109.0200252 117.1785923  58.2316690  97.8954627
 117.1556611  58.3304377  96.9436510 117.4886559  59.0781841  98.2171793
 119.8373301  60.2892845 102.0101241 120.7916554  60.2576787 101.9431173
 119.6385824  59.8283469 102.8251467 120.4272683  58.8593961 104.5772039
 121.2465572  59.3538039 104.6006876 120.7009490  57.9425929 104.5489606
 130.1839279  51.2504713  93.9399995 129.2965134  51.5354364  93.7220189
 130.5993268  51.0898476  93.0927271 133.5353815  51.2751234  97.6554334
 134.3114205  51.7647687  97.9278951 132.8101949  51.7009288  98.1126203
 135.9726374  51.9878853  98.7128274 136.5670865  51.7474589  98.0021583
 136.0452957  51.2685984  99.3401811 118.1923529  65.8312464  99.0271439
 118.0577997  65.0712865  98.4609437 117.7755592  66.5553364  98.5600228
 129.3282492  61.0149388  88.0348014 130.0318343  61.2199390  88.6505670
 128.6045141  61.5826150  88.2997098 130.1580303  56.7659249  94.1550285
 130.1015504  57.2227800  93.3157917 130.7108645  56.0049934  93.9773127
 133.9685109  52.5548981  94.9800404 133.7122043  52.1545617  95.8108612
 133.3437977  53.2692775  94.8550543 138.2797446  55.2945054  97.4871696
 137.7197004  55.3638243  98.2603258 137.6740950  55.1186039  96.7671192
 121.3492655  66.7281781  99.2389882 121.2325039  67.6727214  99.1368572
 120.5285102  66.4255343  99.6275681 131.2369190  61.4531917  90.0846475
 132.0714794  61.0213115  89.9023949 131.0753533  61.2813931  91.0123369
 130.8915082  57.9564030  91.4502814 130.8363886  57.7908302  90.5091258
 130.2661137  58.6640063  91.6065004 115.6807597  53.1932095 105.2764236
 116.3266461  52.6831049 105.7651461 115.4724748  53.9300776 105.8507661
 128.2060989  60.2612942 110.7756377 129.0752149  60.4353594 110.4143012
 127.7267741  61.0807359 110.6532106 124.2011207  47.4572139  91.0288132
 124.1889877  48.4013979  91.1856403 125.0934629  47.2742285  90.7347593
 122.3747169  67.3810043 102.4545810 123.2774416  67.4133653 102.7712305
 122.1484539  66.4510494 102.4692146 124.1300771  66.1341030  99.1155889
 123.1796402  66.1342891  99.0020261 124.4333258  65.3873764  98.5991924
 128.0163327  44.0514916  95.2834069 127.2495723  43.4973403  95.4290751
 128.4274032  44.1236785  96.1448221 120.0205088  50.3399712 109.3739250
 120.8836550  49.9836517 109.5842575 119.4470499  50.0013607 110.0614655
 139.8653465  71.9701568 100.1801651 140.5031875  71.8508315  99.4764991
 139.7474308  72.9182412 100.2389603 136.6743171  71.9228996 100.1163176
 136.3361683  71.8070061  99.2283711 137.5432939  71.5220161 100.0964182
 132.5329987  73.7764473  96.1060067 131.9694852  73.6854410  95.3376355
 132.4182382  72.9564377  96.5862559 137.1562954  73.0763848 106.0749381
 137.1451595  72.6816646 105.2029885 137.3183594  72.3429921 106.6683153
 130.0794419  75.2715664  98.9444287 130.8715711  74.9306489  98.5290587
 130.3191069  75.3810639  99.8646441 138.1129546  77.4435440  91.4174532
 137.4617525  78.0289521  91.0308546 138.9073908  77.9741635  91.4769569
 132.0385173  74.5324577  91.8161666 132.8116049  73.9853565  91.6774542
 132.3910572  75.3968827  92.0276128 133.8770215  75.8600960 105.0228565
 133.5860081  76.7646591 104.9075232 134.5127200  75.9017487 105.7372635
 134.8026422  73.2377808 101.6129925 135.3989994  73.0133831 100.8986888
 134.8601394  72.4962554 102.2155373 134.3751451  70.6917244  89.4480116
 134.6276971  70.1698765  88.6863579 133.4376010  70.5283389  89.5506800
 139.4194733  69.6953022  97.2554859 140.2057823  69.2772445  96.9045276
 139.6833438  70.5999114  97.4236508 139.5904811  75.1325872  91.9543516
 138.9550644  75.2060499  92.6664421 139.2602217  75.7219471  91.2762595
 134.0947739  72.5945350  91.6504491 133.9783997  71.9190253  92.3185575
 134.2049999  72.1077723  90.8336644 136.4379280  72.0555497  95.3551180
 136.0737487  71.5286118  96.0664102 137.2946396  71.6653966  95.1817666
 142.3428581  63.3449829 102.6182446 142.0111906  64.2145240 102.3943661
 141.7474194  63.0286113 103.2976477 136.0784767  67.0845396  90.3512529
 136.2459170  67.9525633  90.7183000 135.8881936  67.2472678  89.4273818
 138.8360100  75.5462375 102.0178359 138.5360824  76.4487414 101.9094166
 138.4911160  75.2794558 102.8699512 132.2872582  71.9976172  98.0515064
 131.3623078  71.8652386  98.2592755 132.5356995  72.7770391  98.5485006
 142.2357244  68.0644915  99.6975796 141.3274122  67.9960324  99.4034557
 142.1844840  68.5416860 100.5257622 136.0573988  69.5403054  91.3359196
 135.9373613  69.9860105  92.1744676 135.3626576  69.8888372  90.7772734
 129.6481393  71.6409446  98.8858853 129.7773774  71.8943925  99.7998264
 128.9678844  72.2337154  98.5663508 133.8180880  82.3106696  94.9849327
 133.7404910  83.2614521  95.0637807 133.2142524  81.9652568  95.6424253
 136.3098110  69.4834561 107.6410694 135.5331444  70.0428481 107.6313558
 136.9488673  69.9691344 108.1625564 141.7559054  70.0124527  92.1639530
 142.6676910  70.2451914  91.9887227 141.2468701  70.5961571  91.6014608
 134.5644482  72.2920014 107.2028661 135.3059167  72.8305058 106.9263484
 133.8581468  72.9186303 107.3600213 140.0399822  74.4349155 105.8000822
 140.4483178  73.9931565 105.0555455 139.3177083  73.8601782 106.0535015
 136.3930892  69.3721762 103.1734379 137.2392087  69.7961175 103.3169028
 136.3329530  68.7155386 103.8672942 140.3628637  74.9950345  99.5553111
 139.7337499  75.1596060  98.8529179 139.9754299  75.4091955 100.3264075
 139.5430337  67.0326130 104.8315553 139.2991269  67.7868191 104.2949829
 139.8190268  67.4111478 105.6662800 141.4968800  73.5764742 103.5092818
 141.7085695  74.2196502 102.8327200 141.4498548  72.7427059 103.0414749
 139.0995029  66.1882563 100.4129391 138.2379508  66.4863817 100.7046128
 139.1257464  66.4052962  99.4810423 135.9156598  74.7324754  96.8203196
 136.3794944  75.0112457  96.0307819 135.6513397  73.8308198  96.6376287
 132.8080680  74.2796235  99.7582959 133.3782037  74.7083503  99.1200444
 133.3988791  73.9978820 100.4567145 134.8525485  70.8547906  93.6292761
 135.5549528  71.3068950  94.0966688 134.5206113  70.2131725  94.2572654
 133.3005846  69.4459663 108.0043971 132.6704507  70.1275943 108.2379368
 133.1941934  69.3342744 107.0597109 128.5950818  69.1131459  98.9309895
 127.8049872  69.3688987  98.4550006 129.0862066  69.9279796  99.0361935
 142.6114628  76.4536698 101.6815176 143.4332072  76.0516885 101.3997857
 142.6077031  76.3504932 102.6331292 130.5465564  69.4776038  95.8893372
 129.7496727  69.5894732  96.4076867 130.3191156  69.8162690  95.0234262
 136.3771231  76.0020741 103.8375886 136.4415664  76.4641148 104.6734058
 135.6682155  75.3718106 103.9658196 126.8788521  69.3661949 101.3624886
 127.1296560  70.2508959 101.6282462 127.4148070  69.1866551 100.5899978
 136.0919249  77.6688849  93.7054867 135.9564924  78.5140384  94.1339714
 136.6329062  77.8708126  92.9420800 132.5786589  63.7480428 110.3669222
 132.1853534  63.1946627 111.0416866 133.3952729  64.0591007 110.7575739
 129.5448647  75.1864287  94.2782792 130.0573167  75.9807537  94.4288356
 130.1971359  74.4890577  94.2116393 131.3543531  78.3030043  96.3605545
 131.5310160  79.2248008  96.1726529 132.1500365  77.9888462  96.7899925
 135.4954550  65.1638307 107.9589478 136.2364263  65.7645461 107.8793941
 135.7272473  64.4215945 107.4007521 130.6395888  70.3494675 106.2367708
 130.5249403  69.4479932 106.5374807 129.7840406  70.5958372 105.8852525
 137.7187726  78.2912415 107.8355209 137.2751580  77.5048794 107.5176113
 138.3804939  78.4791566 107.1699099 132.4774847  79.8208217 102.3615887
 133.0282272  79.6925280 101.5892881 131.6386323  80.1203106 102.0110780
 139.8168964  78.5715215 105.8636610 139.7987439  79.3924096 105.3716879
 140.7388884  78.4469290 106.0886751 136.2742018  76.0859344 106.7060118
 136.8070355  75.3247633 106.4759426 135.7456099  75.7932996 107.4484273
 139.4411713  61.1919410 102.2353760 139.0975982  62.0821052 102.1592871
 139.8090675  61.0021068 101.3723345 127.5097563  73.5152941  95.0542362
 128.3472785  73.9249949  94.8376070 127.6875831  72.5752383  95.0242556
 139.4061995  71.1828022  90.7426195 138.8908619  71.9532626  90.9814583
 139.1339304  70.5093158  91.3659257 136.9909106  66.0277722  95.8011434
 136.1350703  65.6384573  95.6217072 137.4036058  66.1069683  94.9411219
 138.5208253  63.5624066 100.2002993 138.0173049  63.5254201  99.3870799
 138.8138860  64.4716808 100.2599650 134.7651139  63.6462795  99.2069175
 135.6304136  63.4505604  98.8475065 134.8328648  63.4173147 100.1338532
 139.1948299  69.0555114  92.5685976 138.8898434  69.3701263  93.4196120
 140.1478741  69.1336534  92.6113309 137.6394730  75.2145337  94.2178930
 137.1116092  74.4798097  93.9052168 137.1382233  75.9920013  93.9718899
 142.6187576  73.4094357  99.3345977 141.9611251  74.0993619  99.4226105
 143.4227976  73.7990789  99.6779963 132.3713458  65.8765003  96.5785542
 132.9457210  65.6540185  95.8458735 132.9584440  65.9453698  97.3314143
 141.4293035  71.7638730  97.3849918 141.9424917  72.3968722  97.8871628
 142.0794259  71.1639926  97.0193278 132.6983045  67.9069464  90.5981427
 131.8620357  68.2444151  90.9190702 132.5587815  67.7718444  89.6608564
 134.6736126  62.7506252  95.3060611 134.0200538  62.4355269  94.6817226
 134.6316600  62.1281993  96.0320434 135.7847331  73.0325547  87.2213903
 134.8774392  72.8014801  87.4205052 136.2818363  72.2363166  87.4087885
 138.6915410  81.7423054  90.1410590 138.0177108  82.0454751  90.7495547
 139.0781231  82.5452135  89.7916047 137.9073866  69.2388186  99.6308259
 136.9896427  69.4603133  99.4729947 138.3234010  69.3134496  98.7719966
 138.6908914  70.6379601  94.7610939 139.4380733  71.1500999  94.4518061
 138.9600503  70.3163654  95.6215333 136.9635564  73.1338142  91.7437893
 136.0546783  72.8497175  91.8410363 136.9930648  73.5537221  90.8841200
 142.1954831  76.7444732  95.5129061 141.7417159  75.9035641  95.5694251
 141.5648798  77.3806130  95.8503841 141.1387751  67.6736718  96.7429728
 140.4010508  67.1614104  97.0739971 141.3914525  67.2337099  95.9313005
 140.6387771  78.5821228  96.4478879 140.9310745  79.1426285  95.7291245
 141.1486391  78.8749789  97.2032038 141.2399378  60.4512970  97.3371498
 141.5458255  59.5910333  97.0497413 141.9651983  61.0430590  97.1370492
 127.5323734  70.8543656  95.7253096 127.3348134  70.2613017  95.0004162
 126.9770398  70.5495866  96.4429034 135.5120458  70.7466763  97.8447689
 135.5669068  69.7940599  97.7690165 134.7011660  70.9026202  98.3288987
 136.6611652  74.6746886  89.0825972 136.2231082  73.9582745  88.6231609
 137.4022093  74.9023001  88.5211063 133.4512818  69.3643822  95.6038068
 132.6380684  69.6637993  96.0103260 133.9471812  68.9699511  96.3212550
 135.6021396  79.3601579  97.5372332 135.5597575  79.5862426  96.6080864
 136.5184095  79.1264954  97.6858134 139.0487030  69.8285647 104.4352962
 139.4036417  70.0557120 105.2947427 139.6959161  70.1604024 103.8130217
 132.9426893  66.9362178 101.2199303 133.5826272  66.7950937 100.5222266
 132.1104423  66.6496691 100.8437905 133.7187197  76.2364608  97.3334295
 134.5127795  75.7414929  97.1316870 133.0078889  75.7082472  96.9702001
 138.5382041  78.6182704 101.6846663 138.5919063  79.1873640 102.4524379
 137.6696823  78.7884589 101.3200700 130.0269960  70.3807690  93.4094048
 129.0967548  70.3192146  93.6264010 130.1227432  69.8583643  92.6130689
 129.9455509  66.9062503  95.9972289 130.2062326  67.8207836  95.8881450
 130.7672682  66.4386946  96.1468902 131.4180435  68.3200260 103.1671114
 132.0903488  68.1117622 102.5183763 130.5910221  68.1222346 102.7276346
 137.3206007  64.9462201 105.1836775 136.6733922  65.6452151 105.0901251
 138.0907022  65.3798345 105.5513023 140.7284804  75.2111053 108.2587328
 140.5770311  74.9821605 107.3417412 140.7189484  76.1681655 108.2718673
 137.4970141  72.7842966 103.2433595 138.4262201  72.9354126 103.0702562
 137.0761171  72.8726987 102.3882241 136.2958473  76.8093630 101.0132132
 136.1569558  76.4412415 101.8858070 135.5073069  77.3241270 100.8416090
 136.8906625  81.9102727  92.3557669 137.0658380  81.4390770  93.1703291
 136.2039413  82.5368493  92.5838929 137.8463688  76.1875233  98.4020970
 137.5113520  76.1476003  99.2978620 137.3467634  75.5219949  97.9291380
 131.8207932  71.5942863 103.9273551 131.6827730  70.8623102 104.5285090
 132.7312855  71.5051763 103.6457739 140.7822879  73.5331267  88.6758030
 140.1652050  72.8078096  88.5791082 140.3139368  74.2940628  88.3325104
 134.4490232  71.3062822 103.4157231 135.1589851  70.6656015 103.3743849
 134.4059541  71.5575717 104.3383412 142.4377011  78.2430176 106.3363810
 142.3789557  77.5589396 105.6694393 142.8396530  78.9849166 105.8844436
 133.1619166  68.2928040 105.2352870 132.6256523  67.8418779 105.8874467
 132.5735875  68.4273949 104.4923335 131.4567710  85.0592090  99.1297529
 131.6964308  85.6910614  99.8076547 130.6136906  84.7080130  99.4162888
 132.5721425  67.7516692  87.7979334 131.6950892  67.6305492  87.4341581
 133.0479178  66.9602770  87.5458223 142.4394418  76.2069760 104.5677790
 141.5521197  75.8695681 104.6904189 143.0092969  75.4752791 104.8046555
 124.0923566  72.5393851  97.8920841 124.7794605  72.2255581  97.3041856
 123.9371694  73.4435216  97.6188092 128.8958288  67.4284048 102.3205865
 128.8116476  66.8209718 101.5856275 128.0740994  67.9193066 102.3215361
 135.9695572  80.8671212 101.5339033 135.8965743  81.6726184 102.0458337
 135.5272965  81.0663178 100.7087054 135.7585351  80.1042982  95.0441854
 134.9752873  80.6464662  95.1380079 136.4578097  80.6216962  95.4436096
 139.0682002  65.9137612  97.6876060 139.5650701  65.1607574  97.3677130
 138.2968983  65.9501928  97.1219269 138.4294255  80.7658046 103.6897192
 139.1422228  81.4005511 103.6173093 137.9384284  80.8621912 102.8737193
 140.1511782  74.6709299  95.2614483 139.2168061  74.7910761  95.0919188
 140.3288451  73.7681766  94.9974493 135.6516970  68.0554995  97.4147744
 135.2814758  67.5026035  98.1028650 136.1476063  67.4513128  96.8622744
 133.4806169  78.5152490 104.5102762 134.1815628  79.1488973 104.6632157
 133.0101284  78.8567221 103.7498402 141.6060565  76.8570439  92.7950669
 141.8820409  76.7427034  93.7044543 140.7365063  76.4587924  92.7562842
 141.5100996  62.8807205  99.8355419 140.5964076  63.1111432 100.0037626
 141.9394098  62.9645649 100.6869451 141.2807455  71.0697097 102.3355313
 140.6278905  71.3173004 101.6807765 141.6587835  70.2561235 102.0017790
 138.2414629  81.1056790  96.4383483 138.4237023  80.2878446  96.9011235
 139.0647615  81.3224482  96.0008373 138.5756794  80.0324975  93.6998531
 139.1044561  79.5217430  93.0868694 138.8385014  79.7167506  94.5644064
 137.3295028  71.8116908 108.8221350 136.6535665  71.7111037 109.4923725
 138.1522662  71.6556122 109.2857347 129.0773887  78.0488845 101.4433865
 129.6627324  77.3032532 101.5761769 128.8798725  78.3592801 102.3270529
 131.9312542  81.0840092  96.4596307 131.2622917  81.5686220  95.9760347
 131.7925412  81.3309312  97.3739686 123.6691542  70.6194445 100.1638308
 123.7075641  70.0858035 100.9575426 123.1631834  70.0929650  99.5449285
 136.0717811  83.1183835 103.0578966 136.6236119  83.2815457 103.8228051
 136.4124004  83.7088273 102.3858991 131.0482304  65.4658985 103.6600850
 131.1123630  66.3273816 103.2478248 130.9849424  64.8532987 102.9273209
 130.5234576  67.5382118 107.3073885 131.1506615  67.1559195 107.9211409
 129.6662495  67.3196320 107.6729577 140.9228685  77.9445093 108.9127620
 141.4668589  78.5575051 108.4182575 140.3415530  78.5024671 109.4294633
 127.3000119  69.3458547  93.2392240 127.5953560  68.4369225  93.1859293
 126.3988155  69.3246286  92.9173242 139.2086198  81.0665811 100.0442648
 139.0837337  80.2655551  99.5353593 139.8665289  81.5612004  99.5556618
 130.8294366  67.4214544  99.2219788 130.1080952  68.0350511  99.0827261
 131.6187622  67.9572308  99.1436434 141.2721106  78.8674831 101.6722198
 140.3251442  78.7480182 101.6000525 141.6203879  77.9797329 101.7548459
 133.6320680  64.7568970 105.4960440 134.1555082  65.0031267 106.2586749
 133.4133013  65.5889005 105.0763577 129.0287961  67.0272645  93.3631565
 128.7000667  66.1470024  93.1806671 129.3827332  66.9720313  94.2507954
 138.2767540  78.6627547  97.8726550 138.1292502  77.7344255  98.0534120
 139.1021033  78.6847638  97.3883625 132.1429784  67.3145614  93.7307042
 132.4825856  67.8431536  93.0085651 132.5901904  67.6526021  94.5065609
 141.8801662  79.4856106  98.9591423 142.8048209  79.2798967  98.8215874
 141.7116965  79.2372507  99.8680764 134.8373225  65.6982665 103.1810110
 134.4970045  64.8990478 103.5830790 134.1312231  65.9984376 102.6086944
 135.4889697  62.7831978 101.6337433 136.3115766  62.3092456 101.5116324
 135.7327760  63.5622461 102.1336120 134.1297931  65.8120236  91.9300335
 134.8506294  66.1901489  91.4264052 133.5063235  66.5309113  92.0335313
 138.2729054  66.5165385  92.8658667 138.4892668  67.3990023  92.5647496
 137.7923121  66.1251598  92.1364309 133.0128275  69.4751098  99.4429412
 132.8672856  69.7891401 100.3353694 132.5353479  70.0935999  98.8900311
 134.8724658  66.4653646  99.4910302 134.8586227  65.5694739  99.1542600
 135.5897086  66.4724310 100.1248588 136.7250789  66.8990986 101.5363429
 136.4668567  67.8208057 101.5347759 136.1935829  66.5021421 102.2263893
 141.6696978  80.0041773  94.3153514 141.8433855  79.4388196  93.5627367
 142.1625869  80.8042668  94.1333004 127.4873938  72.0156443 102.3817073
 126.9427406  72.7916251 102.5137348 128.3653287  72.3627247 102.2236195
 134.2761554  65.3468026  94.7597872 134.3977465  64.4184673  94.9588759
 133.9863597  65.3606712  93.8476187 137.1452745  63.0322937  97.8964592
 137.1674441  63.0962270  96.9416571 137.5620804  62.1927446  98.0905098
 142.6572150  79.3208538  91.4150413 143.3523055  79.9415231  91.6337727
 142.9995300  78.4703889  91.6902791 128.2739959  71.1426339 105.2747230
 127.5321695  71.2908974 105.8611861 127.9532704  71.4034604 104.4113980
 136.2183622  80.6842317 105.0727620 136.5270748  80.4391464 105.9450320
 137.0159104  80.8888956 104.5846490 136.2404234  82.8380227  97.3032997
 135.8009224  82.3456605  97.9965853 136.9912351  82.2953194  97.0625072
 128.7196573  79.0291768  97.3057625 129.5454593  78.7295539  96.9256268
 128.3690625  78.2599390  97.7547413 133.6878106  78.3818236  99.3755298
 133.0658116  77.7188941  99.0757526 134.3582973  78.4079368  98.6928946
 126.9205178  76.9478094  98.2646558 126.0837086  76.5200268  98.0830560
 126.8928824  77.1410537  99.2017350 133.7602634  66.8600024 108.9687804
 133.8090789  67.7362147 108.5865574 134.3025148  66.3177417 108.3959448
 133.2491613  76.9322159  92.8513759 133.3979734  77.6157624  92.1980432
 134.0558057  76.9127249  93.3663215 141.6559117  70.2364541 106.8780977
 142.5568980  70.0971006 106.5864975 141.7307091  70.4018996 107.8179154
 135.9901922  67.6131396 105.7234163 135.1205232  67.9064962 105.4516752
 136.2261403  68.1971841 106.4441427 131.0044246  72.9587337  93.8574828
 130.7590288  72.0549667  94.0555038 131.1740161  72.9604487  92.9154306
 138.6940956  63.8311013 103.2399583 139.2122900  64.5672040 102.9146072
 138.3396089  64.1375006 104.0746343 130.2739894  68.6915694  91.3560989
 129.5809139  68.7660049  90.7001025 130.0291646  67.9276038  91.8782506
 138.9453550  60.2511296  98.7600480 139.2255304  59.5834485  99.3860907
 139.7304157  60.4440391  98.2475144 136.7487019  79.4270290  90.3225506
 136.1760986  80.0460477  89.8695978 137.3219812  79.9769651  90.8565428
 140.8376788  65.7584513 102.6931456 140.2426720  66.0389526 101.9977945
 140.5526485  66.2478414 103.4648197 139.9684278  79.7107440  91.4534089
 140.9014952  79.6453001  91.6566964 139.8807491  80.5463707  90.9948621
 142.5972295  79.0273310  88.4138036 142.5185927  78.6933174  89.3073794
 143.4181962  79.5195078  88.4129509 137.1333817  70.7631102  87.6641559
 138.0792922  70.6337310  87.7329977 136.7548062  70.0245764  88.1410987
 137.0172510  74.8148848 109.1242216 137.9375519  74.9927447 109.3182262
 136.9822093  73.8704894 108.9721915 135.3176734  68.6881079  87.5996444
 134.4108190  68.3914191  87.6759158 135.5952715  68.3910897  86.7330730
 126.2354675  70.0087442  98.0495490 125.9157459  69.1552750  97.7569864
 125.6888103  70.2236020  98.8053458 130.0134582  72.7249883 101.7664997
 130.2320592  73.6566991 101.7853031 130.4260356  72.3657858 102.5519801
 136.9338800  63.2317968  93.7540685 136.1239528  62.8865053  94.1295931
 137.6223217  62.9225512  94.3428297 138.8629348  62.3096015  95.3764982
 139.4160387  62.7291469  96.0355005 139.0999435  61.3831763  95.4187938
 134.8862448  68.2983089 111.1567746 134.7859174  69.2477446 111.0879837
 134.6683990  67.9701328 110.2843816 134.0875519  65.5468014  87.7408423
 134.9494683  65.8722912  88.0004241 134.2725863  64.7599510  87.2281489
 126.1042935  73.6290354 100.0188612 125.4106406  73.2144306  99.5058566
 126.8515926  73.6710890  99.4222031 142.2408155  64.4196540  94.8843646
 141.6606824  65.0781344  94.5021699 141.9744088  63.5973885  94.4731064
 140.6911722  63.8201598  97.0864967 141.1911500  63.9318133  96.2779285
 141.3347330  63.5162651  97.7265775 134.7493718  71.7280228 109.9732808
 134.2660799  72.5280588 110.1796697 134.8354657  71.7388173 109.0200252
 128.0179677  73.5608607  97.8954627 127.9950365  73.6596295  96.9436510
 128.3280314  74.4073758  98.2171793 130.6767055  75.6184762 102.0101241
 131.6310309  75.5868705 101.9431173 130.4779579  75.1575386 102.8251467
 131.2666437  74.1885878 104.5772039 132.0859326  74.6829957 104.6006876
 131.5403245  73.2717847 104.5489606 141.0233033  66.5796631  93.9399995
 140.1358888  66.8646281  93.7220189 141.4387023  66.4190394  93.0927271
 129.0317284  81.1604382  99.0271439 128.8971752  80.4004783  98.4609437
 128.6149346  81.8845282  98.5600228 140.1676247  76.3441305  88.0348014
 140.8712097  76.5491308  88.6505670 139.4438896  76.9118067  88.2997098
 140.9974057  72.0951167  94.1550285 140.9409259  72.5519718  93.3157917
 141.5502400  71.3341851  93.9773127 132.1886410  82.0573699  99.2389882
 132.0718794  83.0019131  99.1368572 131.3678856  81.7547261  99.6275681
 142.0762944  76.7823835  90.0846475 142.9108548  76.3505033  89.9023949
 141.9147287  76.6105848  91.0123369 141.7308837  73.2855948  91.4502814
 141.6757640  73.1200219  90.5091258 141.1054892  73.9931981  91.6065004
 126.5201351  68.5224012 105.2764236 127.1660215  68.0122966 105.7651461
 126.3118503  69.2592694 105.8507661 139.0454744  75.5904860 110.7756377
 139.9145903  75.7645512 110.4143012 138.5661495  76.4099277 110.6532106
 135.0404962  62.7864057  91.0288132 135.0283632  63.7305897  91.1856403
 135.9328384  62.6034202  90.7347593 133.2140924  82.7101961 102.4545810
 134.1168171  82.7425571 102.7712305 132.9878294  81.7802412 102.4692146
 134.9694526  81.4632947  99.1155889 134.0190157  81.4634809  99.0020261
 135.2727012  80.7165682  98.5991924 138.8557081  59.3806834  95.2834069
 138.0889477  58.8265320  95.4290751 139.2667786  59.4528702  96.1448221
 130.8598842  65.6691629 109.3739250 131.7230304  65.3128434 109.5842575
 130.2864253  65.3305524 110.0614655 143.3723741  89.1056390  96.1060067
 142.8088607  89.0146327  95.3376355 143.2576136  88.2856295  96.5862559
 140.9188173  90.6007582  98.9444287 141.7109465  90.2598407  98.5290587
 141.1584823  90.7102557  99.8646441 143.1266336  87.3268090  98.0515064
 142.2016833  87.1944304  98.2592755 143.3750750  88.1062309  98.5485006
 140.4875147  86.9701363  98.8858853 140.6167529  87.2235842  99.7998264
 139.8072599  87.5629071  98.5663508 139.4344573  84.4423376  98.9309895
 138.6443627  84.6980905  98.4550006 139.9255820  85.2571714  99.0361935
 141.3859318  84.8067956  95.8893372 140.5890482  84.9186650  96.4076867
 141.1584911  85.1454608  95.0234262 137.7182276  84.6953867 101.3624886
 137.9690314  85.5800877 101.6282462 138.2541824  84.5158468 100.5899978
 140.3842401  90.5156204  94.2782792 140.8966922  91.3099455  94.4288356
 141.0365114  89.8182495  94.2116393 142.1937286  93.6321961  96.3605545
 142.3703914  94.5539925  96.1726529 142.9894119  93.3180380  96.7899925
 141.4789642  85.6786592 106.2367708 141.3643157  84.7771850 106.5374807
 140.6234160  85.9250289 105.8852525 138.3491318  88.8444859  95.0542362
 139.1866540  89.2541867  94.8376070 138.5269585  87.9044301  95.0242556
 138.3717489  86.1835574  95.7253096 138.1741889  85.5904935  95.0004162
 137.8164153  85.8787784  96.4429034 140.8663715  85.7099608  93.4094048
 139.9361303  85.6484063  93.6264010 140.9621187  85.1875561  92.6130689
 140.7849264  82.2354421  95.9972289 141.0456081  83.1499754  95.8881450
 141.6066436  81.7678863  96.1468902 142.2574189  83.6492178 103.1671114
 142.9297242  83.4409540 102.5183763 141.4303976  83.4514264 102.7276346
 142.2961464 100.3884007  99.1297529 142.5358063 101.0202531  99.8076547
 141.4530661 100.0372047  99.4162888 134.9317320  87.8685769  97.8920841
 135.6188360  87.5547499  97.3041856 134.7765449  88.7727134  97.6188092
 139.7352042  82.7575966 102.3205865 139.6510231  82.1501635 101.5856275
 138.9134749  83.2484984 102.3215361 139.9167641  93.3780762 101.4433865
 140.5021078  92.6324450 101.5761769 139.7192480  93.6884719 102.3270529
 142.7706297  96.4132010  96.4596307 142.1016672  96.8978137  95.9760347
 142.6319166  96.6601230  97.3739686 134.5085296  85.9486362 100.1638308
 134.5469396  85.4149953 100.9575426 134.0025589  85.4221568  99.5449285
 141.8876058  80.7950903 103.6600850 141.9517385  81.6565734 103.2478248
 141.8243179  80.1824905 102.9273209 141.3628331  82.8674036 107.3073885
 141.9900370  82.4851113 107.9211409 140.5056250  82.6488237 107.6729577
 138.1393874  84.6750465  93.2392240 138.4347315  83.7661143  93.1859293
 137.2381909  84.6538204  92.9173242 141.6688121  82.7506461  99.2219788
 140.9474706  83.3642429  99.0827261 142.4581376  83.2864226  99.1436434
 139.8681715  82.3564562  93.3631565 139.5394421  81.4761941  93.1806671
 140.2221086  82.3012231  94.2507954 142.9823538  82.6437532  93.7307042
 143.3219611  83.1723453  93.0085651 143.4295659  82.9817938  94.5065609
 138.3267692  87.3448360 102.3817073 137.7821160  88.1208168 102.5137348
 139.2047042  87.6919165 102.2236195 139.1133714  86.4718257 105.2747230
 138.3715450  86.6200892 105.8611861 138.7926458  86.7326522 104.4113980
 139.5590328  94.3583685  97.3057625 140.3848347  94.0587457  96.9256268
 139.2084380  93.5891308  97.7547413 137.7598933  92.2770012  98.2646558
 136.9230841  91.8492186  98.0830560 137.7322578  92.4702455  99.2017350
 141.8438001  88.2879254  93.8574828 141.5984043  87.3841584  94.0555038
 142.0133915  88.2896405  92.9154306 141.1133648  84.0207612  91.3560989
 140.4202893  84.0951967  90.7001025 140.8685400  83.2567956  91.8782506
 137.0748429  85.3379360  98.0495490 136.7551214  84.4844668  97.7569864
 136.5281857  85.5527938  98.8053458 140.8528337  88.0541801 101.7664997
 141.0714347  88.9858909 101.7853031 141.2654111  87.6949775 102.5519801
 136.9436689  88.9582271 100.0188612 136.2500161  88.5436224  99.5058566
 137.6909680  89.0002808  99.4222031 138.8573432  88.8900525  97.8954627
 138.8344120  88.9888212  96.9436510 139.1674068  89.7365676  98.2171793
 141.5160810  90.9476680 102.0101241 142.4704063  90.9160622 101.9431173
 141.3173333  90.4867304 102.8251467 142.1060192  89.5177796 104.5772039
 142.9253081  90.0121875 104.6006876 142.3796999  88.6009764 104.5489606
 139.8711038  96.4896300  99.0271439 139.7365506  95.7296700  98.4609437
 139.4543101  97.2137199  98.5600228 143.0280164  97.3865617  99.2389882
 142.9112548  98.3311049  99.1368572 142.2072611  97.0839178  99.6275681
 137.3595106  83.8515930 105.2764236 138.0053970  83.3414884 105.7651461
 137.1512257  84.5884612 105.8507661 141.6992597  80.9983547 109.3739250
 142.5624059  80.6420352 109.5842575 141.1258008  80.6597442 110.0614655
  97.5613157   6.2902034  85.6689594  98.3534449   5.9492858  85.2535893
  97.8009807   6.3997009  86.5891747 105.5948283   8.4621810  78.1419838
 104.9436263   9.0475890  77.7553852 106.3892646   8.9928005  78.2014876
 101.3588953   6.8787329  91.7473872 101.0678819   7.7832960  91.6320538
 101.9945937   6.9203857  92.4617942 101.2999618  13.3293065  81.7094634
 101.2223648  14.2800890  81.7883114 100.6961262  12.9838938  82.3669560
 103.5737987   8.6875218  80.4300173 103.4383662   9.5326754  80.8585021
 104.1147799   8.8894496  79.6666107  97.0267384   6.2050656  81.0028098
  97.5391905   6.9993906  81.1533663  97.6790097   5.5076947  80.9361700
  98.8362269   9.3216412  83.0850851  99.0128897  10.2434377  82.8971835
  99.6319103   9.0074832  83.5145231 105.2006463   9.3098785  94.5600515
 104.7570317   8.5235163  94.2421420 105.8623677   9.4977935  93.8944406
  99.9593584  10.8394586  89.0861194 100.5101010  10.7111650  88.3138188
  99.1205060  11.1389475  88.7356087 107.2987701   9.5901585  92.5881917
 107.2806177  10.4110466  92.0962186 108.2207621   9.4655660  92.8132058
 106.1734147  12.7609424  76.8655896 105.4995846  13.0641121  77.4740854
 106.5599969  13.5638504  76.5161353 108.1206509   9.6007598  83.1724186
 108.4129483  10.1612655  82.4536551 108.6305129   9.8936159  83.9277345
 103.0840134  10.3787949  84.2617639 103.0416312  10.6048795  83.3326171
 104.0002833  10.1451324  84.4103440 106.0200779   9.6369073  88.4091969
 106.0737801  10.2060010  89.1769685 105.1515560   9.8070959  88.0446006
 103.7777210   7.8280000  87.7377439 103.6388296   7.4598784  88.6103377
 102.9891807   8.3427639  87.5661397 104.3725362  12.9289096  79.0802975
 104.5477118  12.4577140  79.8948598 103.6858150  13.5554863  79.3084236
  98.9386448  16.0778459  85.8542836  99.1783046  16.7096983  86.5321854
  98.0955644  15.7266499  86.1408195 103.4514310  11.8857582  88.2584340
 103.3784481  12.6912553  88.7703644 103.0091703  12.0849547  87.4332361
 103.2404089  11.1229352  81.7687161 102.4571611  11.6651032  81.8625386
 103.9396834  11.6403331  82.1681402 105.9112993  11.7844416  90.4142498
 106.6240965  12.4191880  90.3418400 105.4203022  11.8808282  89.5982500
 100.9624907   9.5338859  91.2348069 101.6634366  10.1675342  91.3877463
 100.4920022   9.8753591  90.4743708 105.7233366  12.1243160  83.1628790
 105.9055761  11.3064816  83.6256542 106.5466352  12.3410852  82.7253680
 106.0575532  11.0511345  80.4243838 106.5863298  10.5403799  79.8114000
 106.3203752  10.7353875  81.2889371  96.5592625   9.0675214  88.1679172
  97.1446062   8.3218902  88.3007076  96.3617463   9.3779171  89.0515836
  99.4131280  12.1026462  83.1841614  98.7441655  12.5872589  82.7005654
  99.2744150  12.3495682  84.0984993 103.5536549  14.1370205  89.7824272
 104.1054857  14.3001827  90.5473358 103.8942742  14.7274643  89.1104297
 106.6904936  12.0852181  86.7687955 106.5656075  11.2841920  86.2598900
 107.3484027  12.5798374  86.2801925 105.7586277   9.6813917  84.5971857
 105.6111240   8.7530624  84.7779427 106.5839771   9.7034008  84.1128932
 109.3620399  10.5042476  85.6836730 110.2866947  10.2985337  85.5461181
 109.1935703  10.2558877  86.5926071 109.1515716  11.0228143  81.0398821
 109.3252593  10.4574566  80.2872674 109.6444607  11.8229038  80.8578311
 103.7002360  11.7028687  91.7972927 104.0089486  11.4577833  92.6695626
 104.4977842  11.9075325  91.3091797 103.7222972  13.8566596  84.0278303
 103.2827962  13.3642975  84.7211160 104.4731089  13.3139564  83.7870379
  96.2015311  10.0478137  84.0302931  97.0273331   9.7481909  83.6501575
  95.8509363   9.2785760  84.4792720 101.1696844   9.4004605  86.1000605
 100.5476853   8.7375310  85.8002833 101.8401711   9.4265737  85.4174253
  94.4023916   7.9664464  84.9891865  93.5655824   7.5386638  84.8075866
  94.3747561   8.1596907  85.9262656 100.7310351   7.9508529  79.5759066
 100.8798471   8.6343993  78.9225738 101.5376794   7.9313619  80.0908521
 104.2305756  10.4456659  77.0470813 103.6579724  11.0646846  76.5941285
 104.8038550  10.9956021  77.5810735 107.4503016  10.7293809  78.1779395
 108.3833689  10.6639371  78.3812271 107.3626229  11.5650076  77.7193928
 110.0791033  10.0459680  75.1383343 110.0004664   9.7119543  76.0319101
 110.9000700  10.5381448  75.1374815  93.5861672   4.6476723  86.7433919
  92.8925144   4.2330676  86.2303873  94.3334663   4.6897260  86.1467338
  95.4998415   4.5794977  84.6199934  95.4769103   4.6782664  83.6681817
  95.8099052   5.4260128  84.9417100  98.1585793   6.6371132  88.7346548
  99.1129046   6.6055074  88.6676480  97.9598316   6.1761756  89.5496774
  96.5136022  12.1790752  85.7516746  96.3790490  11.4191152  85.1854744
  96.0968084  12.9031651  85.2845535  99.6705148  13.0760069  85.9635188
  99.5537532  14.0205501  85.8613879  98.8497594  12.7733630  86.3520988
 100.6959662  13.7288330  89.1791117 101.5986908  13.7611941  89.4957612
 100.4697032  12.7988781  89.1937453 102.4513264  12.4819317  85.8401196
 101.5008895  12.4821179  85.7265568 102.7545750  11.7352052  85.3237230
 118.1865957  18.3179855  86.9046958 118.8244367  18.1986603  86.2010298
 118.0686800  19.2660699  86.9634910 114.9955663  18.2707283  86.8408483
 114.6574175  18.1548348  85.9529017 115.8645432  17.8698449  86.8209489
 110.8542479  20.1242760  82.8305374 110.2907344  20.0332697  82.0621661
 110.7394874  19.3042664  83.3107866 115.4775446  19.4242135  92.7994688
 115.4664087  19.0294933  91.9275192 115.6396086  18.6908208  93.3928460
 108.4006911  21.6193951  85.6689594 109.1928203  21.2784776  85.2535893
 108.6403561  21.7288927  86.5891747 116.4342038  23.7913728  78.1419838
 115.7830018  24.3767808  77.7553852 117.2286401  24.3219922  78.2014876
 110.3597665  20.8802865  78.5406973 111.1328541  20.3331852  78.4019849
 110.7123064  21.7447114  78.7521434 112.1982708  22.2079247  91.7473872
 111.9072574  23.1124878  91.6320538 112.8339692  22.2495775  92.4617942
 113.1238914  19.5856096  88.3375232 113.7202487  19.3612118  87.6232195
 113.1813886  18.8440841  88.9400680 112.6963943  17.0395531  76.1725423
 112.9489464  16.5177052  75.4108886 111.7588502  16.8761676  76.2752106
 117.7407226  16.0431309  83.9800166 118.5270315  15.6250732  83.6290583
 118.0045930  16.9477401  84.1481814 117.9117303  21.4804160  78.6788823
 117.2763136  21.5538786  79.3909727 117.5814709  22.0697758  78.0007902
 123.1415653  15.9806542  84.8833144 123.8740825  15.4105759  85.1170974
 122.3855009  15.5928143  85.3239650 112.4160232  18.9423637  78.3749798
 112.2996490  18.2668540  79.0430882 112.5262491  18.4556011  77.5581951
 114.7591773  18.4033784  82.0796487 114.3949980  17.8764405  82.7909408
 115.6158888  18.0132253  81.9062972 114.3997260  13.4323684  77.0757835
 114.5671662  14.3003920  77.4428306 114.2094429  13.5950965  76.1519125
 117.1572593  21.8940662  88.7423666 116.8573316  22.7965701  88.6339473
 116.8123652  21.6272846  89.5944819 110.6085074  18.3454459  84.7760370
 109.6835571  18.2130673  84.9838062 110.8569487  19.1248679  85.2730313
 120.5569736  14.4123203  86.4221103 119.6486614  14.3438611  86.1279864
 120.5057332  14.8895148  87.2502929 114.3786480  15.8881341  78.0604502
 114.2586106  16.3338392  78.8989983 113.6839069  16.2366659  77.5018040
 107.9693885  17.9887733  85.6104159 108.0986266  18.2422212  86.5243571
 107.2891337  18.5815441  85.2908814 112.1393373  28.6584983  81.7094634
 112.0617402  29.6092808  81.7883114 111.5355016  28.3130855  82.3669560
 114.6310602  15.8312848  94.3656000 113.8543936  16.3906768  94.3558865
 115.2701165  16.3169631  94.8870871 120.0771547  16.3602814  78.8884836
 120.9889403  16.5930201  78.7132534 119.5681194  16.9439858  78.3259915
 112.8856975  18.6398302  93.9273967 113.6271659  19.1783346  93.6508791
 112.1793960  19.2664590  94.0845519 118.3612314  20.7827442  92.5246129
 118.7695670  20.3409853  91.7800761 117.6389576  20.2080070  92.7780322
 114.7143384  15.7200049  89.8979686 115.5604579  16.1439462  90.0414335
 114.6542022  15.0633673  90.5918249 118.6841129  21.3428633  86.2798418
 118.0549991  21.5074347  85.5774486 118.2966791  21.7570242  87.0509382
 122.5630361  22.2783071  83.6342782 121.8781399  22.6581972  83.0839815
 122.6474210  22.8878397  84.3674729 117.8642830  13.3804417  91.5560859
 117.6203761  14.1346478  91.0195135 118.1402760  13.7589765  92.3908107
 119.8181292  19.9243030  90.2338125 120.0298188  20.5674789  89.5572506
 119.7711041  19.0905346  89.7660055 117.4207521  12.5360850  87.1374697
 116.5592000  12.8342104  87.4291435 117.4469956  12.7531249  86.2055730
 114.2369091  21.0803041  83.5448503 114.7007436  21.3590744  82.7553125
 113.9725889  20.1786485  83.3621594 111.1293172  20.6274522  86.4828266
 111.6994529  21.0561791  85.8445751 111.7201284  20.3457107  87.1812452
 113.1737977  17.2026193  80.3538068 113.8762020  17.6547237  80.8211994
 112.8418605  16.5610012  80.9817961 111.6218338  15.7937950  94.7289277
 110.9916999  16.4754231  94.9624674 111.5154426  15.6821031  93.7842416
 106.9163311  15.4609746  85.6555202 106.1262365  15.7167274  85.1795312
 107.4074558  16.2758084  85.7607242 120.9327120  22.8014985  88.4060482
 121.7544564  22.3995172  88.1243164 120.9289523  22.6983219  89.3576598
 108.8678056  15.8254325  82.6138678 108.0709219  15.9373019  83.1322174
 108.6403648  16.1640977  81.7479569 114.6983724  22.3499028  90.5621193
 114.7628156  22.8119436  91.3979365 113.9894648  21.7196393  90.6903503
 105.2001014  15.7140236  88.0870192 105.4509052  16.5987246  88.3527768
 105.7360562  15.5344838  87.3145284 129.0233113  19.1453733  84.7545454
 128.2696822  18.5761132  84.5989458 129.1580655  19.1116398  85.7016089
 114.4131741  24.0167136  80.4300173 114.2777416  24.8618672  80.8585021
 114.9541554  24.2186413  79.6666107 107.8661139  21.5342574  81.0028098
 108.3785659  22.3285824  81.1533663 108.5183852  20.8368864  80.9361700
 109.6756024  24.6508330  83.0850851 109.8522652  25.5726295  82.8971835
 110.4712857  24.3366749  83.5145231 108.9608380  16.6972962  92.9613015
 108.8461895  15.7958219  93.2620114 108.1052898  16.9436659  92.6097831
 116.0400218  24.6390702  94.5600515 115.5964072  23.8527081  94.2421420
 116.7017431  24.8269853  93.8944406 110.7987339  26.1686504  89.0861194
 111.3494764  26.0403567  88.3138188 109.9598815  26.4681393  88.7356087
 118.1381456  24.9193502  92.5881917 118.1199931  25.7402383  92.0962186
 119.0601376  24.7947577  92.8132058 114.5954510  22.4337632  93.4305425
 115.1282847  21.6725920  93.2004733 114.0668591  22.1411284  94.1729579
 105.8310056  19.8631228  81.7787669 106.6685278  20.2728237  81.5621377
 106.0088323  18.9230670  81.7487863 117.7274488  17.5306309  77.4671502
 117.2121111  18.3010913  77.7059889 117.4551796  16.8571445  78.0904563
 115.3121599  12.3756010  82.5256740 114.4563195  11.9862860  82.3462379
 115.7248551  12.4547970  81.6656526 122.7008762  20.2838663  79.4024675
 121.9238205  19.9449823  78.9579837 123.3800243  20.2891287  78.7279640
 117.5160791  15.4033401  79.2931283 117.2110926  15.7179550  80.1441426
 118.4691233  15.4814821  79.3358616 115.9607223  21.5623624  80.9424237
 115.4328584  20.8276384  80.6297474 115.4594725  22.3398301  80.6964205
 120.9400069  19.7572645  86.0591283 120.2823743  20.4471906  86.1471412
 121.7440468  20.1469077  86.4025270 110.6925950  12.2243290  83.3030848
 111.2669702  12.0018472  82.5704041 111.2796933  12.2931985  84.0559450
 119.7505528  18.1117017  84.1095225 120.2637409  18.7447009  84.6116935
 120.4006751  17.5118213  83.7438585 111.0195537  14.2547752  77.3226734
 110.1832850  14.5922438  77.6436008 110.8800307  14.1196731  76.3853871
 114.1059823  19.3803834  73.9459210 113.1986885  19.1493088  74.1450359
 114.6030855  18.5841454  74.1333192 117.0127902  28.0901342  76.8655896
 116.3389601  28.3933038  77.4740854 117.3993724  28.8930422  76.5161353
 116.2286358  15.5866473  86.3553566 115.3108920  15.8081420  86.1975254
 116.6446502  15.6612783  85.4965273 117.0121406  16.9857889  81.4856246
 117.7593225  17.4979286  81.1763368 117.2812996  16.6641941  82.3460639
 115.2848056  19.4816429  78.4683200 114.3759276  19.1975462  78.5655670
 115.3143140  19.9015508  77.6086507 120.5167324  23.0923019  82.2374368
 120.0629651  22.2513929  82.2939558 119.8861290  23.7284417  82.5749148
 119.4600243  14.0215005  83.4675035 118.7223000  13.5092391  83.7985278
 119.7127017  13.5815386  82.6558312 118.9600263  24.9299516  83.1724186
 119.2523237  25.4904573  82.4536551 119.4698884  25.2228077  83.9277345
 105.8536227  17.2021943  82.4498402 105.6560627  16.6091304  81.7249469
 105.2982891  16.8974154  83.1674341 113.8332950  17.0945050  84.5692995
 113.8881560  16.1418886  84.4935472 113.0224152  17.2504489  85.0534294
 114.9824144  21.0225173  75.8071279 114.5443574  20.3061032  75.3476916
 115.7234585  21.2501288  75.2456370 111.7725310  15.7122110  82.3283374
 110.9593176  16.0116280  82.7348566 112.2684304  15.3177798  83.0457857
 113.9233888  25.7079867  84.2617639 113.8810067  25.9340713  83.3326171
 114.8396587  25.4743241  84.4103440 117.3699522  16.1763934  91.1598268
 117.7248910  16.4035407  92.0192734 118.0171653  16.5082311  90.5375524
 123.0997259  19.2982370  81.8647597 122.9615158  19.4883966  80.9368786
 122.7433478  20.0601753  82.3215648 111.2639385  13.2840465  87.9444609
 111.9038764  13.1429224  87.2467573 110.4316916  12.9974979  87.5683211
 123.1266639  21.3658897  86.8758869 123.5603145  21.2734186  87.7241923
 123.8398219  21.3416398  86.2378885 112.0399689  22.5842896  84.0579602
 112.8340287  22.0893216  83.8562177 111.3291381  22.0560759  83.6947307
 116.8594533  24.9660991  88.4091969 116.9131556  25.5351927  89.1769685
 115.9909315  25.1362876  88.0446006 108.3482452  16.7285977  80.1339354
 107.4180041  16.6670433  80.3509317 108.4439924  16.2061930  79.3375996
 108.2668001  13.2540790  82.7217596 108.5274819  14.1686123  82.6126757
 109.0885174  12.7865233  82.8714209 109.7392927  14.6678547  89.8916421
 110.4115980  14.4595909  89.2429070 108.9122713  14.4700633  89.4521653
 123.9882188  21.4082598  89.4091754 124.1818078  22.3128408  89.6551029
 123.8882806  20.9490017  90.2430339 119.0497297  21.5589340  94.9832635
 118.8982803  21.3299892  94.0662718 119.0401976  22.5159942  94.9963980
 115.8182633  19.1321253  89.9678901 116.7474693  19.2832413  89.7947869
 115.3973663  19.2205274  89.1127548 114.6170965  23.1571918  87.7377439
 114.4782051  22.7890702  88.6103377 113.8285561  23.6719557  87.5661397
 115.2119117  28.2581014  79.0802975 115.3870873  27.7869057  79.8948598
 114.5251905  28.8846780  79.3084236 116.1676180  22.5353520  85.1266277
 115.8326013  22.4954290  86.0223926 115.6680126  21.8698236  84.6536687
 110.1420424  17.9421150  90.6518858 110.0040222  17.2101389  91.2530397
 111.0525348  17.8530050  90.3703046 119.1035372  19.8809555  75.4003336
 118.4864542  19.1556383  75.3036389 118.6351860  20.6418915  75.0570411
 112.7702725  17.6541110  90.1402537 113.4802343  17.0134302  90.0989156
 112.7272033  17.9054005  91.0628718 120.7589503  24.5908463  93.0609117
 120.7002050  23.9067683  92.3939700 121.1609022  25.3327453  92.6089743
 111.4831659  14.6406328  91.9598177 110.9469016  14.1897066  92.6119773
 110.8948367  14.7752236  91.2168641 109.7780202  31.4070377  85.8542836
 110.0176800  32.0388901  86.5321854 108.9349399  31.0558417  86.1408195
 110.8933918  14.0994979  74.5224641 110.0163384  13.9783780  74.1586887
 111.3691671  13.3081057  74.2703529 120.7606911  22.5548047  91.2923096
 119.8733689  22.2173969  91.4149495 121.3305462  21.8231078  91.5291862
 102.4136058  18.8872139  84.6166148 103.1007098  18.5733869  84.0287163
 102.2584186  19.7913503  84.3433399 107.2170780  13.7762335  89.0451171
 107.1328969  13.1688005  88.3101581 106.3953486  14.2671354  89.0460668
 114.2908064  27.2149499  88.2584340 114.2178236  28.0204471  88.7703644
 113.8485457  27.4141465  87.4332361 114.0797844  26.4521269  81.7687161
 113.2965366  26.9942950  81.8625386 114.7790589  26.9695249  82.1681402
 125.2424251  17.9656264  86.0539658 125.2314127  18.8480980  85.6833591
 124.3741631  17.6127815  85.8594195 116.7506748  27.1136333  90.4142498
 117.4634720  27.7483798  90.3418400 116.2596776  27.2100199  89.5982500
 118.4724275  21.0187586  81.9859790 117.5380553  21.1389048  81.8164494
 118.6500943  20.1160053  81.7219800 113.9729463  14.4033282  84.1393051
 113.6027250  13.8504322  84.8273957 114.4688555  13.7991415  83.5868051
 121.8596826  16.8604905  82.5209824 122.3257278  17.6932897  82.4470127
 122.3104326  16.3949887  83.2255082 111.8018661  24.8630777  91.2348069
 112.5028121  25.4967260  91.3877463 111.3313776  25.2045508  90.4743708
 119.9273057  23.2048727  79.5195976 120.2032901  23.0905321  80.4289850
 119.0577556  22.8066211  79.4808149 119.6019947  17.4175384  89.0600619
 118.9491397  17.6651292  88.4053072 119.9800327  16.6039522  88.7263097
 116.5627121  27.4535077  83.1628790 116.7449516  26.6356733  83.6256542
 117.3860107  27.6702770  82.7253680 116.8969286  26.3803263  80.4243838
 117.4257053  25.8695717  79.8114000 117.1597506  26.0645793  81.2889371
 115.6507520  18.1595195  95.5466656 114.9748157  18.0589325  96.2169032
 116.4735154  18.0034409  96.0102654 107.3986379  24.3967132  88.1679172
 107.9839816  23.6510820  88.3007076 107.2011218  24.7071089  89.0515836
 110.2525034  27.4318379  83.1841614 109.5835410  27.9164507  82.7005654
 110.1137904  27.6787600  84.0984993 101.9904034  16.9672732  86.8883615
 102.0288133  16.4336323  87.6820733 101.4844327  16.4407938  86.2694592
 114.3930303  29.4662123  89.7824272 114.9448611  29.6293744  90.5473358
 114.7336496  30.0566561  89.1104297 109.3694796  11.8137273  90.3846157
 109.4336123  12.6752103  89.9723555 109.3061916  11.2011274  89.6518516
 108.8447069  13.8860405  94.0319191 109.4719108  13.5037482  94.6456716
 107.9874988  13.6674607  94.3974884 119.2441177  24.2923380  95.6372927
 119.7881081  24.9053339  95.1427882 118.6628022  24.8502959  96.1539940
 105.6212612  15.6936834  79.9637546 105.9166053  14.7847513  79.9104600
 104.7200647  15.6724574  79.6418549 117.5298690  27.4144098  86.7687955
 117.4049830  26.6133838  86.2598900 118.1877781  27.9090292  86.2801925
 109.1506859  13.7692831  85.9465095 108.4293444  14.3828798  85.8072568
 109.9400114  14.3050596  85.8681741 119.5933599  25.2153118  88.3967505
 118.6463934  25.0958470  88.3245831 119.9416372  24.3275616  88.4793766
 111.9533172  11.1047257  92.2205747 112.4767574  11.3509554  92.9832056
 111.7345505  11.9367292  91.8008884 107.3500453  13.3750932  80.0876871
 107.0213159  12.4948311  79.9051977 107.7039824  13.3198601  80.9753261
 116.5980032  25.0105835  84.5971857 116.4504994  24.0822542  84.7779427
 117.4233525  25.0325925  84.1128932 110.4642276  13.6623902  80.4552349
 110.8038349  14.1909823  79.7330957 110.9114397  14.0004308  81.2310916
 120.2014154  25.8334393  85.6836730 121.1260701  25.6277255  85.5461181
 120.0329457  25.5850794  86.5926071 113.1585717  12.0460952  89.9055417
 112.8182537  11.2468765  90.3076097 112.4524723  12.3462663  89.3332250
 112.4510423  12.1598523  78.6545642 113.1718786  12.5379776  78.1509359
 111.8275728  12.8787400  78.7580620 116.5941546  12.8643672  79.5903974
 116.8105161  13.7468310  79.2892802 116.1135613  12.4729886  78.8609616
 111.3340768  15.8229385  86.1674719 111.1885348  16.1369689  87.0599000
 110.8565971  16.4414286  85.6145617 113.1937151  12.8131933  86.2155608
 113.1798719  11.9173027  85.8787906 113.9109579  12.8202597  86.8493894
 115.0463281  13.2469274  88.2608736 114.7881059  14.1686344  88.2593066
 114.5148322  12.8499708  88.9509200 119.9909470  26.3520061  81.0398821
 120.1646348  25.7866483  80.2872674 120.4838361  27.1520956  80.8578311
 105.8086430  18.3634730  89.1062380 105.2639898  19.1394538  89.2382654
 106.6865780  18.7105534  88.9481501 112.5974046  11.6946314  81.4843178
 112.7189958  10.7662960  81.6834066 112.3076089  11.7085000  80.5721494
 125.8448861  19.1156484  82.6589121 126.2880007  18.3663809  82.2608244
 124.9675371  19.1066620  82.2762853 120.9784643  25.6686825  78.1395719
 121.6735547  26.2893518  78.3583034 121.3207793  24.8182176  78.4148097
 106.5952452  17.4904626  91.9992537 105.8534188  17.6387261  92.5857167
 106.2745196  17.7512892  91.1359286 122.8776066  23.1186531  79.6683050
 123.4027390  23.4573803  78.9432370 122.7898418  22.1833546  79.4846185
 114.5396114  27.0320604  91.7972927 114.8483241  26.7869751  92.6695626
 115.3371596  27.2367243  91.3091797 114.5616726  29.1858514  84.0278303
 114.1221717  28.6934893  84.7211160 115.3124843  28.6431482  83.7870379
 107.0409065  25.3770055  84.0302931 107.8667085  25.0773827  83.6501575
 106.6903117  24.6077677  84.4792720 112.0090599  24.7296523  86.1000605
 111.3870608  24.0667228  85.8002833 112.6795465  24.7557655  85.4174253
 105.2417670  23.2956381  84.9891865 104.4049579  22.8678556  84.8075866
 105.2141316  23.4888825  85.9262656 112.0815126  13.2078311  95.6933111
 112.1303281  14.0840434  95.3110881 112.6237640  12.6655704  95.1204754
 122.5669972  23.7519434  94.9734248 121.7765515  23.7343573  94.4338748
 122.3303326  24.2907728  95.7283285 122.6867847  20.6011901  92.2866977
 122.7365852  20.4361908  93.2282499 122.5781770  19.7339160  91.8964857
 111.5704105  23.2800446  79.5759066 111.7192226  23.9635911  78.9225738
 112.3770549  23.2605536  80.0908521 119.9771609  16.5842829  93.6026283
 120.8781472  16.4449294  93.3110281 120.0519584  16.7497284  94.5424461
 114.3114414  13.9609683  92.4479470 113.4417724  14.2543250  92.1762058
 114.5473895  14.5450128  93.1686733 124.1886044  23.0208842  92.5308998
 123.8970852  23.3838823  93.3672459 123.5758175  22.3075850  92.3522330
 125.3881726  20.5861722  85.0511568 126.2228617  21.0251526  85.2149129
 125.5240855  20.1100375  84.2319814 122.4373232  18.1441457  90.9989056
 122.9127353  18.3369103  90.1907908 121.5138797  18.2000643  90.7532440
 109.3256738  19.3065624  80.5820134 109.0802780  18.4027954  80.7800345
 109.4952653  19.3082774  79.6399612 108.5952386  15.0393982  78.0806296
 107.9021631  15.1138337  77.4246332 108.3504138  14.2754325  78.6027813
 115.0699511  25.7748577  77.0470813 114.4973478  26.3938764  76.5941285
 115.6432305  26.3247939  77.5810735 121.1374901  15.0207217  89.2317362
 122.0892324  15.1205315  89.2529586 120.9678351  14.2285485  89.7415446
 118.2896771  26.0585727  78.1779395 119.2227444  25.9931289  78.3812271
 118.2019984  26.8941994  77.7193928 120.9184787  25.3751597  75.1383343
 120.8398419  25.0411461  76.0319101 121.7394454  25.8673365  75.1374815
 123.6162979  18.2413337  88.3459661 123.5839299  17.3029337  88.5319345
 124.2263602  18.3197373  87.6125486 115.4546309  17.1109390  74.3886865
 116.4005414  16.9815598  74.4575283 115.0760554  16.3724051  74.8656294
 129.4339528  19.3029343  87.4865698 130.1642917  19.0414632  88.0473402
 128.8246474  18.5658065  87.5267766 127.5154826  17.4437206  88.0840149
 126.7887989  17.3093171  87.4756641 127.1002112  17.7514035  88.8896867
 115.3385002  21.1627136  95.8487522 116.2588011  21.3405735  96.0427569
 115.3034585  20.2183181  95.6967222 113.6389227  15.0359366  74.3241751
 112.7320682  14.7392479  74.4004464 113.9165208  14.7389184  73.4576037
 104.5567167  16.3565729  84.7740797 104.2369951  15.5031038  84.4815171
 104.0100595  16.5714308  85.5298764 108.3347075  19.0728170  88.4910304
 108.5533084  20.0045278  88.5098337 108.7472848  18.7136145  89.2765107
 113.2074940  14.6461376  97.8813053 113.1071667  15.5955733  97.8125144
 112.9896482  14.3179615  97.0089123 112.4088011  11.8946301  74.4653730
 113.2707175  12.2201200  74.7249547 112.5938355  11.1077797  73.9526796
 104.4255427  19.9768641  86.7433919 103.7318898  19.5622594  86.2303873
 105.1728418  20.0189177  86.1467338 113.0706210  18.0758515  96.6978114
 112.5873292  18.8758875  96.9042003 113.1567149  18.0866460  95.7445558
 106.3392170  19.9086895  84.6199934 106.3162858  20.0074582  83.6681817
 106.6492806  20.7552045  84.9417100 108.9979547  21.9663050  88.7346548
 109.9522801  21.9346992  88.6676480 108.7992071  21.5053673  89.5496774
 109.5878930  20.5364166  91.3017346 110.4071819  21.0308244  91.3252183
 109.8615737  19.6196134  91.2734913 107.3529776  27.5082669  85.7516746
 107.2184244  26.7483070  85.1854744 106.9361838  28.2323569  85.2845535
 118.4888739  22.6919593  74.7593321 119.1924589  22.8969595  75.3750977
 117.7651388  23.2596355  75.0242405 119.3186549  18.4429454  80.8795591
 119.2621751  18.8998005  80.0403224 119.8714892  17.6820139  80.7018434
 127.4403693  16.9715259  84.2117002 126.8803251  17.0408448  84.9848564
 126.8347197  16.7956244  83.4916498 110.5098902  28.4051986  85.9635188
 110.3931286  29.3497419  85.8613879 109.6891348  28.1025548  86.3520988
 120.3975437  23.1302122  76.8091781 121.2321041  22.6983320  76.6269256
 120.2359780  22.9584136  77.7368676 120.0521329  19.6334235  78.1748120
 119.9970133  19.4678507  77.2336565 119.4267384  20.3410268  78.3310310
 104.8413844  14.8702300  92.0009543 105.4872707  14.3601254  92.4896768
 104.6330995  15.6070981  92.5752968 117.3667236  21.9383147  97.5001683
 118.2358396  22.1123799  97.1388318 116.8873987  22.7577564  97.3777413
 111.5353416  29.0580248  89.1791117 112.4380663  29.0903858  89.4957612
 111.3090786  28.1280699  89.1937453 113.2907018  27.8111235  85.8401196
 112.3402649  27.8113096  85.7265568 113.5939504  27.0643969  85.3237230
 109.1811335  12.0169917  96.0984557 110.0442796  11.6606722  96.3087882
 108.6076745  11.6783811  96.7859961 129.0259712  33.6471773  86.9046958
 129.6638122  33.5278520  86.2010298 128.9080555  34.5952617  86.9634910
 125.8349418  33.5999201  86.8408483 125.4967929  33.4840266  85.9529017
 126.7039186  33.1990366  86.8209489 121.6936234  35.4534678  82.8305374
 121.1301099  35.3624614  82.0621661 121.5788629  34.6334582  83.3107866
 126.3169201  34.7534053  92.7994688 126.3057842  34.3586851  91.9275192
 126.4789840  34.0200125  93.3928460 119.2400666  36.9485869  85.6689594
 120.0321958  36.6076694  85.2535893 119.4797316  37.0580844  86.5891747
 127.2735792  39.1205645  78.1419838 126.6223772  39.7059726  77.7553852
 128.0680155  39.6511840  78.2014876 121.1991420  36.2094782  78.5406973
 121.9722296  35.6623769  78.4019849 121.5516818  37.0739032  78.7521434
 123.0376462  37.5371165  91.7473872 122.7466328  38.4416796  91.6320538
 123.6733446  37.5787692  92.4617942 123.9632669  34.9148013  88.3375232
 124.5596241  34.6904036  87.6232195 124.0207640  34.1732759  88.9400680
 123.5357697  32.3687449  76.1725423 123.7883218  31.8468970  75.4108886
 122.5982256  32.2053594  76.2752106 128.5800980  31.3723227  83.9800166
 129.3664069  30.9542650  83.6290583 128.8439685  32.2769319  84.1481814
 128.7511058  36.8096077  78.6788823 128.1156891  36.8830704  79.3909727
 128.4208464  37.3989676  78.0007902 133.9809407  31.3098460  84.8833144
 134.7134579  30.7397677  85.1170974 133.2248763  30.9220061  85.3239650
 123.2553986  34.2715554  78.3749798 123.1390244  33.5960458  79.0430882
 123.3656246  33.7847928  77.5581951 125.5985527  33.7325702  82.0796487
 125.2343734  33.2056323  82.7909408 126.4552643  33.3424171  81.9062972
 131.5034828  25.0220034  89.3427753 131.1718152  25.8915445  89.1188968
 130.9080441  24.7056318  90.0221783 125.2391014  28.7615601  77.0757835
 125.4065416  29.6295838  77.4428306 125.0488183  28.9242883  76.1519125
 127.9966347  37.2232580  88.7423666 127.6967070  38.1257619  88.6339473
 127.6517407  36.9564763  89.5944819 121.4478829  33.6746377  84.7760370
 120.5229325  33.5422591  84.9838062 121.6963242  34.4540596  85.2730313
 131.3963491  29.7415120  86.4221103 130.4880368  29.6730529  86.1279864
 131.3451087  30.2187065  87.2502929 125.2180235  31.2173259  78.0604502
 125.0979860  31.6630310  78.8989983 124.5232823  31.5658576  77.5018040
 118.8087640  33.3179651  85.6104159 118.9380021  33.5714129  86.5243571
 118.1285091  33.9107359  85.2908814 122.9787127  43.9876901  81.7094634
 122.9011157  44.9384726  81.7883114 122.3748771  43.6422773  82.3669560
 125.4704357  31.1604766  94.3656000 124.6937691  31.7198686  94.3558865
 126.1094920  31.6461549  94.8870871 133.2625137  27.9431559  88.1998977
 132.6199518  28.2364092  87.5538772 132.7580066  27.8284479  89.0052174
 130.9165301  31.6894732  78.8884836 131.8283157  31.9222119  78.7132534
 130.4074948  32.2731776  78.3259915 123.7250729  33.9690219  93.9273967
 124.4665413  34.5075263  93.6508791 123.0187715  34.5956508  94.0845519
 129.2006069  36.1119360  92.5246129 129.6089425  35.6701770  91.7800761
 128.4783330  35.5371987  92.7780322 125.5537139  31.0491967  89.8979686
 126.3998334  31.4731380  90.0414335 125.4935776  30.3925591  90.5918249
 129.5234883  36.6720550  86.2798418 128.8943746  36.8366265  85.5774486
 129.1360545  37.0862160  87.0509382 133.4024115  37.6074988  83.6342782
 132.7175153  37.9873890  83.0839815 133.4867965  38.2170315  84.3674729
 128.7036584  28.7096335  91.5560859 128.4597516  29.4638395  91.0195135
 128.9796515  29.0881683  92.3908107 130.6575047  35.2534947  90.2338125
 130.8691942  35.8966707  89.5572506 130.6104795  34.4197264  89.7660055
 128.2601276  27.8652768  87.1374697 127.3985755  28.1634021  87.4291435
 128.2863710  28.0823167  86.2055730 125.0762845  36.4094958  83.5448503
 125.5401191  36.6882661  82.7553125 124.8119643  35.5078403  83.3621594
 121.9686926  35.9566440  86.4828266 122.5388283  36.3853708  85.8445751
 122.5595038  35.6749025  87.1812452 124.0131731  32.5318111  80.3538068
 124.7155775  32.9839155  80.8211994 123.6812360  31.8901930  80.9817961
 122.4612093  31.1229867  94.7289277 121.8310753  31.8046148  94.9624674
 122.3548181  31.0112949  93.7842416 117.7557065  30.7901664  85.6555202
 116.9656119  31.0459192  85.1795312 118.2468313  31.6050001  85.7607242
 131.7720875  38.1306903  88.4060482 132.5938319  37.7287090  88.1243164
 131.7683278  38.0275137  89.3576598 119.7071811  31.1546243  82.6138678
 118.9102974  31.2664937  83.1322174 119.4797403  31.4932895  81.7479569
 125.5377478  37.6790946  90.5621193 125.6021911  38.1411353  91.3979365
 124.8288402  37.0488311  90.6903503 116.0394768  31.0432154  88.0870192
 116.2902807  31.9279164  88.3527768 116.5754317  30.8636755  87.3145284
 139.8626868  34.4745651  84.7545454 139.1090576  33.9053049  84.5989458
 139.9974409  34.4408316  85.7016089 125.2525496  39.3459053  80.4300173
 125.1171171  40.1910589  80.8585021 125.7935308  39.5478331  79.6666107
 121.7392836  25.4250633  97.0914528 121.3459781  24.8716832  97.7662173
 122.5558976  25.7361212  97.4821046 118.7054893  36.8634492  81.0028098
 119.2179414  37.6577742  81.1533663 119.3577606  36.1660782  80.9361700
 120.5149778  39.9800248  83.0850851 120.6916406  40.9018212  82.8971835
 121.3106612  39.6658667  83.5145231 124.6560797  26.8408512  94.6834785
 125.3970510  27.4415666  94.6039247 124.8878719  26.0986150  94.1252828
 119.8002135  32.0264880  92.9613015 119.6855650  31.1250137  93.2620114
 118.9446652  32.2728576  92.6097831 126.8793972  39.9682620  94.5600515
 126.4357826  39.1818999  94.2421420 127.5411186  40.1561770  93.8944406
 121.6381093  41.4978422  89.0861194 122.1888519  41.3695485  88.3138188
 120.7992569  41.7973311  88.7356087 128.9775210  40.2485420  92.5881917
 128.9593686  41.0694301  92.0962186 129.8995130  40.1239495  92.8132058
 125.4348265  37.7629549  93.4305425 125.9676601  37.0017838  93.2004733
 124.9062346  37.4703201  94.1729579 128.6017959  22.8689615  88.9599067
 128.2582229  23.7591257  88.8838177 128.9696922  22.6791273  88.0968652
 116.6703810  35.1923146  81.7787669 117.5079032  35.6020154  81.5621377
 116.8482078  34.2522588  81.7487863 128.5668242  32.8598226  77.4671502
 128.0514866  33.6302831  77.7059889 128.2945551  32.1863363  78.0904563
 126.1515353  27.7047927  82.5256740 125.2956950  27.3154778  82.3462379
 126.5642305  27.7839888  81.6656526 127.6814500  25.2394271  86.9248300
 127.1779295  25.2024406  86.1116105 127.9745107  26.1487013  86.9844957
 123.9257386  25.3233000  85.9314482 124.7910383  25.1275809  85.5720371
 123.9934895  25.0943352  86.8583838 133.5402516  35.6130581  79.4024675
 132.7631959  35.2741741  78.9579837 134.2193997  35.6183204  78.7279640
 128.3554545  30.7325319  79.2931283 128.0504681  31.0471468  80.1441426
 129.3084987  30.8106738  79.3358616 126.8000977  36.8915542  80.9424237
 126.2722339  36.1568301  80.6297474 126.2988480  37.6690218  80.6964205
 131.7793823  35.0864562  86.0591283 131.1217498  35.7763824  86.1471412
 132.5834222  35.4760994  86.4025270 121.5319705  27.5535208  83.3030848
 122.1063457  27.3310390  82.5704041 122.1190687  27.6223903  84.0559450
 130.5899282  33.4408935  84.1095225 131.1031164  34.0738927  84.6116935
 131.2400506  32.8410131  83.7438585 121.8589292  29.5839669  77.3226734
 121.0226604  29.9214356  77.6436008 121.7194062  29.4488649  76.3853871
 123.8342373  24.4276457  82.0305918 123.1806785  24.1125474  81.4062533
 123.7922847  23.8052198  82.7565741 124.9453577  34.7095752  73.9459210
 124.0380639  34.4785006  74.1450359 125.4424609  33.9133371  74.1333192
 127.8521656  43.4193259  76.8655896 127.1783355  43.7224956  77.4740854
 128.2387478  44.2222340  76.5161353 127.0680113  30.9158391  86.3553566
 126.1502674  31.1373338  86.1975254 127.4840257  30.9904701  85.4965273
 127.8515161  32.3149806  81.4856246 128.5986980  32.8271204  81.1763368
 128.1206750  31.9933859  82.3460639 126.1241811  34.8108347  78.4683200
 125.2153030  34.5267380  78.5655670 126.1536895  35.2307426  77.6086507
 131.3561078  38.4214937  82.2374368 130.9023405  37.5805846  82.2939558
 130.7255045  39.0576335  82.5749148 130.2993998  29.3506923  83.4675035
 129.5616755  28.8384309  83.7985278 130.5520771  28.9107304  82.6558312
 129.7994017  40.2591433  83.1724186 130.0916992  40.8196490  82.4536551
 130.3092638  40.5519994  83.9277345 130.4005625  22.1283175  84.0616804
 130.7064502  21.2680538  83.7742719 131.1258230  22.7200795  83.8615798
 116.6929981  32.5313861  82.4498402 116.4954381  31.9383222  81.7249469
 116.1376645  32.2266071  83.1674341 124.6726705  32.4236968  84.5692995
 124.7275315  31.4710804  84.4935472 123.8617907  32.5796407  85.0534294
 125.8217899  36.3517091  75.8071279 125.3837329  35.6352950  75.3476916
 126.5628339  36.5793205  75.2456370 122.6119065  31.0414027  82.3283374
 121.7986930  31.3408198  82.7348566 123.1078059  30.6469716  83.0457857
 124.7627643  41.0371784  84.2617639 124.7203821  41.2632631  83.3326171
 125.6790342  40.8035159  84.4103440 128.2093276  31.5055852  91.1598268
 128.5642664  31.7327325  92.0192734 128.8565408  31.8374229  90.5375524
 133.9391013  34.6274288  81.8647597 133.8008912  34.8175884  80.9368786
 133.5827232  35.3893671  82.3215648 122.1033140  28.6132383  87.9444609
 122.7432519  28.4721142  87.2467573 121.2710670  28.3266896  87.5683211
 133.9660393  36.6950815  86.8758869 134.3996900  36.6026104  87.7241923
 134.6791974  36.6708315  86.2378885 122.8793443  37.9134813  84.0579602
 123.6734042  37.4185133  83.8562177 122.1685136  37.3852676  83.6947307
 127.6988288  40.2952909  88.4091969 127.7525310  40.8643845  89.1769685
 126.8303069  40.4654794  88.0446006 119.1876207  32.0577895  80.1339354
 118.2573795  31.9962351  80.3509317 119.2833679  31.5353848  79.3375996
 119.1061756  28.5832708  82.7217596 119.3668573  29.4978041  82.6126757
 119.9278928  28.1157150  82.8714209 120.5786681  29.9970465  89.8916421
 121.2509735  29.7887827  89.2429070 119.7516468  29.7992551  89.4521653
 134.8275943  36.7374515  89.4091754 135.0211833  37.6420326  89.6551029
 134.7276561  36.2781934  90.2430339 126.4812253  26.6232406  91.9082081
 125.8340168  27.3222356  91.8146558 127.2513269  27.0568550  92.2758330
 129.8891051  36.8881258  94.9832635 129.7376558  36.6591810  94.0662718
 129.8795731  37.8451860  94.9963980 126.6576388  34.4613171  89.9678901
 127.5868448  34.6124330  89.7947869 126.2367418  34.5497192  89.1127548
 125.4564719  38.4863835  87.7377439 125.3175805  38.1182620  88.6103377
 124.6679316  39.0011475  87.5661397 126.0512871  43.5872932  79.0802975
 126.2264627  43.1160975  79.8948598 125.3645659  44.2138698  79.3084236
 127.0069935  37.8645438  85.1266277 126.6719767  37.8246208  86.0223926
 126.5073880  37.1990154  84.6536687 120.9814179  33.2713068  90.6518858
 120.8433976  32.5393307  91.2530397 121.8919102  33.1821968  90.3703046
 129.9429126  35.2101472  75.4003336 129.3258297  34.4848300  75.3036389
 129.4745615  35.9710833  75.0570411 123.6096479  32.9833027  90.1402537
 124.3196098  32.3426220  90.0989156 123.5665787  33.2345922  91.0628718
 131.5983258  39.9200381  93.0609117 131.5395804  39.2359601  92.3939700
 132.0002776  40.6619371  92.6089743 122.3225413  29.9698245  91.9598177
 121.7862770  29.5188984  92.6119773 121.7342122  30.1044154  91.2168641
 120.6173957  46.7362295  85.8542836 120.8570555  47.3680819  86.5321854
 119.7743153  46.3850335  86.1408195 121.7327672  29.4286897  74.5224641
 120.8557138  29.3075697  74.1586887 122.2085425  28.6372975  74.2703529
 131.6000665  37.8839965  91.2923096 130.7127444  37.5465886  91.4149495
 132.1699216  37.1522996  91.5291862 113.2529812  34.2164056  84.6166148
 113.9400852  33.9025786  84.0287163 113.0977941  35.1205421  84.3433399
 118.0564534  29.1054253  89.0451171 117.9722723  28.4979922  88.3101581
 117.2347241  29.5963271  89.0460668 125.1301819  42.5441417  88.2584340
 125.0571990  43.3496388  88.7703644 124.6879212  42.7433383  87.4332361
 124.9191598  41.7813187  81.7687161 124.1359120  42.3234867  81.8625386
 125.6184343  42.2987167  82.1681402 128.2288248  27.5907816  84.4121366
 128.7256948  26.8377779  84.0922437 127.4575230  27.6272133  83.8464576
 136.0818006  33.2948182  86.0539658 136.0707882  34.1772897  85.6833591
 135.2135385  32.9419733  85.8594195 127.5900502  42.4428251  90.4142498
 128.3028474  43.0775716  90.3418400 127.0990531  42.5392117  89.5982500
 129.3118029  36.3479504  81.9859790 128.3774308  36.4680966  81.8164494
 129.4894697  35.4451970  81.7219800 124.8123217  29.7325199  84.1393051
 124.4421005  29.1796240  84.8273957 125.3082310  29.1283333  83.5868051
 132.6990580  32.1896823  82.5209824 133.1651033  33.0224815  82.4470127
 133.1498081  31.7241805  83.2255082 122.6412416  40.1922694  91.2348069
 123.3421875  40.8259177  91.3877463 122.1707531  40.5337426  90.4743708
 130.7666811  38.5340644  79.5195976 131.0426655  38.4197239  80.4289850
 129.8971310  38.1358129  79.4808149 130.6707243  24.5577410  86.5600725
 129.7570323  24.7881637  86.7282932 131.1000345  24.6415854  87.4114758
 130.4413702  32.7467302  89.0600619 129.7885152  32.9943209  88.4053072
 130.8194081  31.9331440  88.7263097 127.4020875  42.7826995  83.1628790
 127.5843270  41.9648651  83.6256542 128.2253861  42.9994687  82.7253680
 127.7363041  41.7095180  80.4243838 128.2650807  41.1987635  79.8114000
 127.9991261  41.3937710  81.2889371 126.4901275  33.4887113  95.5466656
 125.8141912  33.3881242  96.2169032 127.3128908  33.3326327  96.0102654
 118.2380134  39.7259049  88.1679172 118.8233570  38.9802737  88.3007076
 118.0404972  40.0363006  89.0515836 121.0918789  42.7610297  83.1841614
 120.4229164  43.2456425  82.7005654 120.9531659  43.0079517  84.0984993
 112.8297788  32.2964650  86.8883615 112.8681888  31.7628240  87.6820733
 112.3238081  31.7699855  86.2694592 125.2324057  44.7954040  89.7824272
 125.7842366  44.9585662  90.5473358 125.5730251  45.3858478  89.1104297
 120.2088551  27.1429190  90.3846157 120.2729877  28.0044021  89.9723555
 120.1455671  26.5303192  89.6518516 119.6840823  29.2152323  94.0319191
 120.3112862  28.8329400  94.6456716 118.8268742  28.9966525  94.3974884
 130.0834932  39.6215298  95.6372927 130.6274836  40.2345256  95.1427882
 129.5021777  40.1794876  96.1539940 116.4606366  31.0228752  79.9637546
 116.7559807  30.1139430  79.9104600 115.5594402  31.0016491  79.6418549
 128.3692445  42.7436016  86.7687955 128.2443584  41.9425756  86.2598900
 129.0271536  43.2382209  86.2801925 119.9900613  29.0984748  85.9465095
 119.2687199  29.7120716  85.8072568 120.7793869  29.6342513  85.8681741
 130.4327353  40.5445036  88.3967505 129.4857689  40.4250387  88.3245831
 130.7810126  39.6567534  88.4793766 122.7926927  26.4339175  92.2205747
 123.3161328  26.6801471  92.9832056 122.5739260  27.2659210  91.8008884
 118.1894208  28.7042850  80.0876871 117.8606914  27.8240228  79.9051977
 118.5433578  28.6490518  80.9753261 127.4373786  40.3397752  84.5971857
 127.2898749  39.4114460  84.7779427 128.2627280  40.3617843  84.1128932
 121.3036031  28.9915819  80.4552349 121.6432103  29.5201741  79.7330957
 121.7508151  29.3296225  81.2310916 131.0407908  41.1626311  85.6836730
 131.9654456  40.9569172  85.5461181 130.8723212  40.9142712  86.5926071
 123.9979472  27.3752870  89.9055417 123.6576292  26.5760683  90.3076097
 123.2918478  27.6754581  89.3332250 124.6495943  24.4602182  88.3582740
 125.4722013  23.9862661  88.2361630 124.8934007  25.2392666  88.8581426
 123.2904178  27.4890441  78.6545642 124.0112540  27.8671694  78.1509359
 122.6669482  28.2079318  78.7580620 127.4335301  28.1935590  79.5903974
 127.6498915  29.0760228  79.2892802 126.9529368  27.8021803  78.8609616
 122.1734522  31.1521303  86.1674719 122.0279103  31.4661606  87.0599000
 121.6959726  31.7706203  85.6145617 124.0330905  28.1423851  86.2155608
 124.0192474  27.2464944  85.8787906 124.7503333  28.1494515  86.8493894
 125.8857036  28.5761191  88.2608736 125.6274814  29.4978262  88.2593066
 125.3542076  28.1791626  88.9509200 130.8303225  41.6811978  81.0398821
 131.0040102  41.1158401  80.2872674 131.3232116  42.4812873  80.8578311
 116.6480184  33.6926648  89.1062380 116.1033652  34.4686455  89.2382654
 117.5259534  34.0397452  88.9481501 123.4367801  27.0238231  81.4843178
 123.5583712  26.0954878  81.6834066 123.1469843  27.0376917  80.5721494
 126.3058991  24.7093142  84.6209898 126.3280688  24.7732475  83.6661878
 126.7227050  23.8697650  84.8150404 136.6842616  34.4448401  82.6589121
 137.1273762  33.6955727  82.2608244 135.8069126  34.4358538  82.2762853
 131.8178397  40.9978743  78.1395719 132.5129302  41.6185436  78.3583034
 132.1601547  40.1474094  78.4148097 117.4346206  32.8196544  91.9992537
 116.6927942  32.9679179  92.5857167 117.1138950  33.0804809  91.1359286
 133.7169820  38.4478448  79.6683050 134.2421144  38.7865721  78.9432370
 133.6292173  37.5125464  79.4846185 125.3789869  42.3612522  91.7972927
 125.6876995  42.1161669  92.6695626 126.1765351  42.5659160  91.3091797
 125.4010481  44.5150432  84.0278303 124.9615471  44.0226810  84.7211160
 126.1518598  43.9723399  83.7870379 117.8802820  40.7061972  84.0302931
 118.7060840  40.4065744  83.6501575 117.5296872  39.9369595  84.4792720
 122.8484353  40.0588441  86.1000605 122.2264362  39.3959146  85.8002833
 123.5189220  40.0849573  85.4174253 116.0811425  38.6248299  84.9891865
 115.2443333  38.1970473  84.8075866 116.0535070  38.8180742  85.9262656
 122.9208881  28.5370229  95.6933111 122.9697036  29.4132352  95.3110881
 123.4631395  27.9947622  95.1204754 133.4063726  39.0811352  94.9734248
 132.6159270  39.0635491  94.4338748 133.1697081  39.6199646  95.7283285
 133.5261601  35.9303818  92.2866977 133.5759606  35.7653826  93.2282499
 133.4175525  35.0631077  91.8964857 122.4097860  38.6092364  79.5759066
 122.5585980  39.2927828  78.9225738 123.2164303  38.5897454  80.0908521
 130.8165364  31.9134746  93.6026283 131.7175226  31.7741211  93.3110281
 130.8913338  32.0789201  94.5424461 125.1508169  29.2901601  92.4479470
 124.2811478  29.5835167  92.1762058 125.3867649  29.8742046  93.1686733
 135.0279798  38.3500760  92.5308998 134.7364606  38.7130740  93.3672459
 134.4151929  37.6367768  92.3522330 136.2275480  35.9153640  85.0511568
 137.0622372  36.3543444  85.2149129 136.3634609  35.4392293  84.2319814
 133.2766986  33.4733375  90.9989056 133.7521108  33.6661021  90.1907908
 132.3532552  33.5292560  90.7532440 120.1650493  34.6357542  80.5820134
 119.9196535  33.7319872  80.7800345 120.3346407  34.6374692  79.6399612
 127.8547203  25.5081218  89.9644890 128.3729147  26.2442245  89.6391379
 127.5002336  25.8145211  90.7991649 119.4346140  30.3685899  78.0806296
 118.7415385  30.4430254  77.4246332 119.1897892  29.6046243  78.6027813
 128.1059797  21.9281501  85.4845787 128.3861551  21.2604690  86.1106213
 128.8910404  22.1210596  84.9720450 125.9093265  41.1040495  77.0470813
 125.3367233  41.7230682  76.5941285 126.4826059  41.6539856  77.5810735
 131.9768655  30.3499135  89.2317362 132.9286078  30.4497232  89.2529586
 131.8072106  29.5577403  89.7415446 129.9983035  27.4354718  89.4176763
 129.4032967  27.7159731  88.7223251 129.7132731  27.9248619  90.1893504
 129.1290525  41.3877645  78.1779395 130.0621198  41.3223206  78.3812271
 129.0413738  42.2233911  77.7193928 131.7578542  40.7043515  75.1383343
 131.6792173  40.3703379  76.0319101 132.5788209  41.1965283  75.1374815
 134.4556733  33.5705254  88.3459661 134.4233053  32.6321255  88.5319345
 135.0657357  33.6489291  87.6125486 126.2940064  32.4401307  74.3886865
 127.2399169  32.3107515  74.4575283 125.9154309  31.7015969  74.8656294
 134.6051222  30.3616298  88.3917945 134.0890270  29.5774754  88.2047873
 135.4891170  30.0335014  88.5564464 132.2661948  24.1057313  84.3513757
 132.0686770  23.7972401  85.2357089 132.8761654  24.8318952  84.4811687
 140.2733283  34.6321261  87.4865698 141.0036671  34.3706549  88.0473402
 139.6640228  33.8949983  87.5267766 138.3548580  32.7729124  88.0840149
 137.6281744  32.6385089  87.4756641 137.9395867  33.0805952  88.8896867
 126.1778756  36.4919053  95.8487522 127.0981766  36.6697652  96.0427569
 126.1428340  35.5475099  95.6967222 124.4782981  30.3651284  74.3241751
 123.5714436  30.0684396  74.4004464 124.7558962  30.0681102  73.4576037
 115.3960921  31.6857647  84.7740797 115.0763706  30.8322955  84.4815171
 114.8494350  31.9006225  85.5298764 119.1740829  34.4020088  88.4910304
 119.3926839  35.3337196  88.5098337 119.5866603  34.0428062  89.2765107
 126.0945047  24.9088173  80.4785992 125.2845775  24.5635258  80.8541238
 126.7829464  24.5995717  81.0673604 128.0235595  23.9866220  82.1010289
 128.5766634  24.4061674  82.7600312 128.2605681  23.0601968  82.1433245
 124.0468694  29.9753294  97.8813053 123.9465421  30.9247651  97.8125144
 123.8290236  29.6471533  97.0089123 123.2481766  27.2238219  74.4653730
 124.1100930  27.5493117  74.7249547 123.4332110  26.4369715  73.9526796
 115.2649181  35.3060559  86.7433919 114.5712653  34.8914511  86.2303873
 116.0122172  35.3481095  86.1467338 131.4014402  26.0966745  81.6088953
 130.8213071  26.7551549  81.2267005 131.1350335  25.2744090  81.1976370
 129.8517969  25.4971803  83.8110273 130.3517747  25.6088338  83.0024592
 130.4953576  25.1932856  84.4511082 123.9099964  33.4050433  96.6978114
 123.4267046  34.2050793  96.9042003 123.9960903  33.4158378  95.7445558
 117.1785924  35.2378812  84.6199934 117.1556612  35.3366500  83.6681817
 117.4886560  36.0843963  84.9417100 119.8373302  37.2954967  88.7346548
 120.7916555  37.2638910  88.6676480 119.6385825  36.8345591  89.5496774
 120.4272684  35.8656083  91.3017346 121.2465573  36.3600162  91.3252183
 120.7009492  34.9488052  91.2734913 130.1839280  28.2566836  80.6645301
 129.2965135  28.5416486  80.4465496 130.5993269  28.0960599  79.8172578
 133.5353816  28.2813357  84.3799640 134.3114206  28.7709809  84.6524257
 132.8101951  28.7071411  84.8371510 135.9726375  28.9940976  85.4373581
 136.5670866  28.7536712  84.7266889 136.0452959  28.2748106  86.0647117
 118.1923531  42.8374587  85.7516746 118.0577999  42.0774988  85.1854744
 117.7755593  43.5615487  85.2845535 129.3282494  38.0211510  74.7593321
 130.0318344  38.2261513  75.3750977 128.6045142  38.5888272  75.0242405
 130.1580304  33.7721372  80.8795591 130.1015505  34.2289923  80.0403224
 130.7108646  33.0112056  80.7018434 133.9685110  29.5611104  81.7045711
 133.7122044  29.1607739  82.5353918 133.3437978  30.2754897  81.5795850
 138.2797448  32.3007177  84.2117002 137.7197006  32.3700366  84.9848564
 137.6740951  32.1248161  83.4916498 121.3492657  43.7343904  85.9635188
 121.2325041  44.6789336  85.8613879 120.5285103  43.4317465  86.3520988
 131.2369191  38.4594040  76.8091781 132.0714795  38.0275238  76.6269256
 131.0753534  38.2876053  77.7368676 130.8915083  34.9626153  78.1748120
 130.8363887  34.7970424  77.2336565 130.2661139  35.6702186  78.3310310
 115.6807598  30.1994217  92.0009543 116.3266462  29.6893171  92.4896768
 115.4724749  30.9362899  92.5752968 128.2060990  37.2675065  97.5001683
 129.0752150  37.4415717  97.1388318 127.7267742  38.0869482  97.3777413
 124.2011209  24.4634262  77.7533439 124.1889879  25.4076102  77.9101710
 125.0934631  24.2804407  77.4592900 122.3747171  44.3872166  89.1791117
 123.2774417  44.4195776  89.4957612 122.1484541  43.4572617  89.1937453
 124.1300773  43.1403152  85.8401196 123.1796404  43.1405014  85.7265568
 124.4333259  42.3935887  85.3237230 128.0163328  21.0577039  82.0079376
 127.2495724  20.5035525  82.1536058 128.4274033  21.1298907  82.8693527
 120.0205089  27.3461834  96.0984557 120.8836551  26.9898639  96.3087882
 119.4470500  27.0075729  96.7859961 139.8653466  48.9763691  86.9046958
 140.5031876  48.8570438  86.2010298 139.7474309  49.9244535  86.9634910
 136.6743172  48.9291119  86.8408483 136.3361684  48.8132184  85.9529017
 137.5432941  48.5282284  86.8209489 132.5329988  50.7826595  82.8305374
 131.9694853  50.6916532  82.0621661 132.4182383  49.9626500  83.3107866
 137.1562955  50.0825971  92.7994688 137.1451596  49.6878769  91.9275192
 137.3183595  49.3492043  93.3928460 130.0794420  52.2777787  85.6689594
 130.8715712  51.9368611  85.2535893 130.3191070  52.3872762  86.5891747
 138.1129547  54.4497563  78.1419838 137.4617527  55.0351643  77.7553852
 138.9073910  54.9803758  78.2014876 132.0385174  51.5386700  78.5406973
 132.8116050  50.9915687  78.4019849 132.3910573  52.4030949  78.7521434
 133.8770217  52.8663082  91.7473872 133.5860083  53.7708713  91.6320538
 134.5127201  52.9079610  92.4617942 134.8026423  50.2439931  88.3375232
 135.3989996  50.0195953  87.6232195 134.8601395  49.5024676  88.9400680
 134.3751452  47.6979366  76.1725423 134.6276973  47.1760887  75.4108886
 133.4376011  47.5345512  76.2752106 139.4194735  46.7015145  83.9800166
 140.2057824  46.2834568  83.6290583 139.6833439  47.6061237  84.1481814
 139.5904812  52.1387995  78.6788823 138.9550645  52.2122621  79.3909727
 139.2602218  52.7281594  78.0007902 134.0947741  49.6007472  78.3749798
 133.9783999  48.9252376  79.0430882 134.2050000  49.1139846  77.5581951
 136.4379282  49.0617619  82.0796487 136.0737489  48.5348240  82.7909408
 137.2946397  48.6716088  81.9062972 142.3428582  40.3511952  89.3427753
 142.0111907  41.2207363  89.1188968 141.7474196  40.0348236  90.0221783
 136.0784768  44.0907519  77.0757835 136.2459171  44.9587755  77.4428306
 135.8881938  44.2534801  76.1519125 138.8360102  52.5524498  88.7423666
 138.5360825  53.4549537  88.6339473 138.4911161  52.2856681  89.5944819
 132.2872583  49.0038295  84.7760370 131.3623080  48.8714509  84.9838062
 132.5356996  49.7832514  85.2730313 142.2357245  45.0707038  86.4221103
 141.3274123  45.0022446  86.1279864 142.1844841  45.5478983  87.2502929
 136.0573989  46.5465176  78.0604502 135.9373615  46.9922227  78.8989983
 135.3626578  46.8950494  77.5018040 129.6481394  48.6471568  85.6104159
 129.7773775  48.9006047  86.5243571 128.9678846  49.2399276  85.2908814
 133.8180881  59.3168818  81.7094634 133.7404911  60.2676643  81.7883114
 133.2142525  58.9714691  82.3669560 136.3098111  46.4896684  94.3656000
 135.5331445  47.0490604  94.3558865 136.9488674  46.9753467  94.8870871
 141.7559056  47.0186650  78.8884836 142.6676912  47.2514036  78.7132534
 141.2468703  47.6023694  78.3259915 134.5644484  49.2982137  93.9273967
 135.3059168  49.8367181  93.6508791 133.8581469  49.9248426  94.0845519
 140.0399823  51.4411277  92.5246129 140.4483179  50.9993688  91.7800761
 139.3177085  50.8663905  92.7780322 136.3930893  46.3783884  89.8979686
 137.2392088  46.8023298  90.0414335 136.3329531  45.7217509  90.5918249
 140.3628638  52.0012468  86.2798418 139.7337500  52.1658182  85.5774486
 139.9754300  52.4154078  87.0509382 139.5430339  44.0388253  91.5560859
 139.2991270  44.7930313  91.0195135 139.8190269  44.4173600  92.3908107
 141.4968801  50.5826865  90.2338125 141.7085697  51.2258625  89.5572506
 141.4498550  49.7489182  89.7660055 139.0995030  43.1944686  87.1374697
 138.2379509  43.4925939  87.4291435 139.1257465  43.4115084  86.2055730
 135.9156600  51.7386876  83.5448503 136.3794945  52.0174579  82.7553125
 135.6513398  50.8370321  83.3621594 132.8080681  51.2858358  86.4828266
 133.3782038  51.7145626  85.8445751 133.3988793  51.0040942  87.1812452
 134.8525486  47.8610029  80.3538068 135.5549529  48.3131072  80.8211994
 134.5206114  47.2193847  80.9817961 133.3005847  46.4521785  94.7289277
 132.6704508  47.1338066  94.9624674 133.1941935  46.3404867  93.7842416
 128.5950820  46.1193581  85.6555202 127.8049874  46.3751110  85.1795312
 129.0862067  46.9341919  85.7607242 142.6114629  53.4598820  88.4060482
 143.4332073  53.0579008  88.1243164 142.6077032  53.3567055  89.3576598
 130.5465565  46.4838160  82.6138678 129.7496728  46.5956855  83.1322174
 130.3191157  46.8224813  81.7479569 136.3771233  53.0082864  90.5621193
 136.4415665  53.4703271  91.3979365 135.6682157  52.3780229  90.6903503
 126.8788523  46.3724072  88.0870192 127.1296561  47.2571082  88.3527768
 127.4148071  46.1928673  87.3145284 136.0919250  54.6750971  80.4300173
 135.9564925  55.5202507  80.8585021 136.6329063  54.8770249  79.6666107
 132.5786590  40.7542551  97.0914528 132.1853536  40.2008750  97.7662173
 133.3952730  41.0653129  97.4821046 129.5448648  52.1926409  81.0028098
 130.0573168  52.9869659  81.1533663 130.1971361  51.4952700  80.9361700
 131.3543532  55.3092165  83.0850851 131.5310161  56.2310130  82.8971835
 132.1500366  54.9950585  83.5145231 135.4954551  42.1700430  94.6834785
 136.2364264  42.7707583  94.6039247 135.7272474  41.4278068  94.1252828
 130.6395889  47.3556797  92.9613015 130.5249404  46.4542055  93.2620114
 129.7840407  47.6020494  92.6097831 137.7187727  55.2974538  94.5600515
 137.2751581  54.5110916  94.2421420 138.3804940  55.4853688  93.8944406
 132.4774848  56.8270339  89.0861194 133.0282273  56.6987403  88.3138188
 131.6386324  57.1265228  88.7356087 139.8168965  55.5777338  92.5881917
 139.7987440  56.3986219  92.0962186 140.7388885  55.4531413  92.8132058
 136.2742019  53.0921467  93.4305425 136.8070356  52.3309755  93.2004733
 135.7456100  52.7995119  94.1729579 139.4411714  38.1981533  88.9599067
 139.0975983  39.0883175  88.8838177 139.8090677  38.0083191  88.0968652
 127.5097565  50.5215063  81.7787669 128.3472787  50.9312072  81.5621377
 127.6875832  49.5814506  81.7487863 139.4061997  48.1890144  77.4671502
 138.8908620  48.9594749  77.7059889 139.1339305  47.5155280  78.0904563
 136.9909108  43.0339845  82.5256740 136.1350704  42.6446695  82.3462379
 137.4036059  43.1131806  81.6656526 138.5208254  40.5686188  86.9248300
 138.0173050  40.5316323  86.1116105 138.8138861  41.4778931  86.9844957
 134.7651140  40.6524918  85.9314482 135.6304137  40.4567727  85.5720371
 134.8328649  40.4235270  86.8583838 139.1948300  46.0617236  79.2931283
 138.8898435  46.3763385  80.1441426 140.1478742  46.1398656  79.3358616
 137.6394732  52.2207460  80.9424237 137.1116093  51.4860219  80.6297474
 137.1382234  52.9982136  80.6964205 142.6187578  50.4156480  86.0591283
 141.9611252  51.1055741  86.1471412 143.4227977  50.8052912  86.4025270
 132.3713459  42.8827126  83.3030848 132.9457211  42.6602307  82.5704041
 132.9584442  42.9515820  84.0559450 141.4293037  48.7700853  84.1095225
 141.9424918  49.4030845  84.6116935 142.0794260  48.1702048  83.7438585
 132.6983046  44.9131587  77.3226734 131.8620359  45.2506273  77.6436008
 132.5587816  44.7780567  76.3853871 134.6736127  39.7568375  82.0305918
 134.0200539  39.4417392  81.4062533 134.6316601  39.1344115  82.7565741
 135.7847332  50.0387670  73.9459210 134.8774394  49.8076923  74.1450359
 136.2818364  49.2425289  74.1333192 138.6915411  58.7485177  76.8655896
 138.0177110  59.0516874  77.4740854 139.0781233  59.5514257  76.5161353
 137.9073867  46.2450308  86.3553566 136.9896429  46.4665255  86.1975254
 138.3234011  46.3196619  85.4965273 138.6908915  47.6441724  81.4856246
 139.4380734  48.1563121  81.1763368 138.9600505  47.3225777  82.3460639
 136.9635565  50.1400265  78.4683200 136.0546785  49.8559298  78.5655670
 136.9930649  50.5599343  77.6086507 142.1954833  53.7506854  82.2374368
 141.7417160  52.9097764  82.2939558 141.5648799  54.3868253  82.5749148
 141.1387752  44.6798840  83.4675035 140.4010509  44.1676226  83.7985278
 141.3914526  44.2399222  82.6558312 140.6387772  55.5883351  83.1724186
 140.9310746  56.1488408  82.4536551 141.1486393  55.8811912  83.9277345
 141.2399380  37.4575092  84.0616804 141.5458256  36.5972456  83.7742719
 141.9651984  38.0492712  83.8615798 127.5323736  47.8605779  82.4498402
 127.3348136  47.2675140  81.7249469 126.9770400  47.5557989  83.1674341
 135.5120459  47.7528885  84.5692995 135.5669069  46.8002722  84.4935472
 134.7011661  47.9088324  85.0534294 136.6611653  51.6809008  75.8071279
 136.2231083  50.9644867  75.3476916 137.4022094  51.9085123  75.2456370
 133.4512819  46.3705945  82.3283374 132.6380685  46.6700116  82.7348566
 133.9471813  45.9761634  83.0457857 135.6021397  56.3663702  84.2617639
 135.5597576  56.5924548  83.3326171 136.5184096  56.1327077  84.4103440
 139.0487031  46.8347770  91.1598268 139.4036419  47.0619243  92.0192734
 139.6959162  47.1666146  90.5375524 132.9426894  43.9424301  87.9444609
 133.5826273  43.8013060  87.2467573 132.1104425  43.6558814  87.5683211
 133.7187198  53.2426731  84.0579602 134.5127796  52.7477051  83.8562177
 133.0078890  52.7144594  83.6947307 138.5382042  55.6244827  88.4091969
 138.5919065  56.1935763  89.1769685 137.6696824  55.7946712  88.0446006
 130.0269961  47.3869813  80.1339354 129.0967550  47.3254268  80.3509317
 130.1227433  46.8645765  79.3375996 129.9455510  43.9124626  82.7217596
 130.2062328  44.8269959  82.6126757 130.7672683  43.4449068  82.8714209
 131.4180436  45.3262383  89.8916421 132.0903489  45.1179745  89.2429070
 130.5910222  45.1284469  89.4521653 137.3206008  41.9524324  91.9082081
 136.6733923  42.6514273  91.8146558 138.0907023  42.3860468  92.2758330
 140.7284806  52.2173176  94.9832635 140.5770312  51.9883727  94.0662718
 140.7189485  53.1743777  94.9963980 137.4970142  49.7905089  89.9678901
 138.4262202  49.9416248  89.7947869 137.0761172  49.8789109  89.1127548
 136.2958474  53.8155753  87.7377439 136.1569560  53.4474537  88.6103377
 135.5073070  54.3303392  87.5661397 136.8906626  58.9164849  79.0802975
 137.0658382  58.4452893  79.8948598 136.2039414  59.5430616  79.3084236
 137.8463689  53.1937356  85.1266277 137.5113522  53.1538126  86.0223926
 137.3467635  52.5282072  84.6536687 131.8207933  48.6004986  90.6518858
 131.6827731  47.8685225  91.2530397 132.7312857  48.5113886  90.3703046
 140.7822881  50.5393390  75.4003336 140.1652051  49.8140218  75.3036389
 140.3139369  51.3002750  75.0570411 134.4490234  48.3124945  90.1402537
 135.1589852  47.6718137  90.0989156 134.4059542  48.5637840  91.0628718
 142.4377012  55.2492298  93.0609117 142.3789559  54.5651518  92.3939700
 142.8396531  55.9911288  92.6089743 133.1619168  45.2990163  91.9598177
 132.6256525  44.8480901  92.6119773 132.5735876  45.4336072  91.2168641
 131.4567711  62.0654212  85.8542836 131.6964309  62.6972736  86.5321854
 130.6136908  61.7142252  86.1408195 132.5721427  44.7578814  74.5224641
 131.6950893  44.6367615  74.1586887 133.0479180  43.9664893  74.2703529
 142.4394420  53.2131882  91.2923096 141.5521198  52.8757804  91.4149495
 143.0092971  52.4814914  91.5291862 124.0923567  49.5455974  84.6166148
 124.7794607  49.2317704  84.0287163 123.9371695  50.4497339  84.3433399
 128.8958289  44.4346171  89.0451171 128.8116478  43.8271840  88.3101581
 128.0740995  44.9255189  89.0460668 135.9695573  57.8733335  88.2584340
 135.8965745  58.6788306  88.7703644 135.5272966  58.0725300  87.4332361
 135.7585353  57.1105105  81.7687161 134.9752875  57.6526785  81.8625386
 136.4578098  57.6279084  82.1681402 139.0682003  42.9199734  84.4121366
 139.5650702  42.1669696  84.0922437 138.2968984  42.9564051  83.8464576
 138.4294257  57.7720169  90.4142498 139.1422229  58.4067633  90.3418400
 137.9384285  57.8684035  89.5982500 140.1511783  51.6771421  81.9859790
 139.2168062  51.7972884  81.8164494 140.3288452  50.7743888  81.7219800
 135.6516972  45.0617117  84.1393051 135.2814759  44.5088157  84.8273957
 136.1476064  44.4575251  83.5868051 133.4806170  55.5214612  91.2348069
 134.1815630  56.1551095  91.3877463 133.0101285  55.8629344  90.4743708
 141.6060566  53.8632562  79.5195976 141.8820410  53.7489156  80.4289850
 140.7365065  53.4650047  79.4808149 141.5100998  39.8869328  86.5600725
 140.5964077  40.1173554  86.7282932 141.9394099  39.9707772  87.4114758
 141.2807456  48.0759220  89.0600619 140.6278906  48.3235127  88.4053072
 141.6587836  47.2623358  88.7263097 138.2414630  58.1118913  83.1628790
 138.4237024  57.2940569  83.6256542 139.0647616  58.3286605  82.7253680
 138.5756795  57.0387098  80.4243838 139.1044562  56.5279552  79.8114000
 138.8385015  56.7229628  81.2889371 137.3295029  48.8179031  95.5466656
 136.6535666  48.7173160  96.2169032 138.1522663  48.6618244  96.0102654
 129.0773888  55.0550967  88.1679172 129.6627325  54.3094655  88.3007076
 128.8798727  55.3654924  89.0515836 131.9312543  58.0902215  83.1841614
 131.2622919  58.5748342  82.7005654 131.7925413  58.3371435  84.0984993
 123.6691543  47.6256567  86.8883615 123.7075642  47.0920158  87.6820733
 123.1631836  47.0991773  86.2694592 136.0717812  60.1245958  89.7824272
 136.6236120  60.2877580  90.5473358 136.4124005  60.7150396  89.1104297
 131.0482305  42.4721108  90.3846157 131.1123632  43.3335939  89.9723555
 130.9849425  41.8595110  89.6518516 130.5234578  44.5444240  94.0319191
 131.1506617  44.1621318  94.6456716 129.6662497  44.3258442  94.3974884
 140.9228686  54.9507216  95.6372927 141.4668590  55.5637174  95.1427882
 140.3415531  55.5086794  96.1539940 127.3000120  46.3520670  79.9637546
 127.5953562  45.4431348  79.9104600 126.3988156  46.3308409  79.6418549
 139.2086199  58.0727934  86.7687955 139.0837339  57.2717673  86.2598900
 139.8665290  58.5674127  86.2801925 130.8294367  44.4276666  85.9465095
 130.1080953  45.0412634  85.8072568 131.6187623  44.9634431  85.8681741
 141.2721108  55.8736954  88.3967505 140.3251443  55.7542305  88.3245831
 141.6203881  54.9859452  88.4793766 133.6320681  41.7631093  92.2205747
 134.1555083  42.0093389  92.9832056 133.4133014  42.5951127  91.8008884
 129.0287962  44.0334767  80.0876871 128.7000668  43.1532146  79.9051977
 129.3827333  43.9782436  80.9753261 138.2767541  55.6689670  84.5971857
 138.1292503  54.7406377  84.7779427 139.1021034  55.6909761  84.1128932
 132.1429785  44.3207737  80.4552349 132.4825858  44.8493658  79.7330957
 132.5901906  44.6588143  81.2310916 141.8801663  56.4918229  85.6836730
 142.8048210  56.2861090  85.5461181 141.7116966  56.2434630  86.5926071
 134.8373226  42.7044788  89.9055417 134.4970046  41.9052601  90.3076097
 134.1312232  43.0046499  89.3332250 135.4889698  39.7894100  88.3582740
 136.3115767  39.3154578  88.2361630 135.7327761  40.5684584  88.8581426
 134.1297932  42.8182359  78.6545642 134.8506295  43.1963611  78.1509359
 133.5063236  43.5371235  78.7580620 138.2729055  43.5227508  79.5903974
 138.4892670  44.4052145  79.2892802 137.7923122  43.1313721  78.8609616
 133.0128277  46.4813221  86.1674719 132.8672857  46.7953524  87.0599000
 132.5353480  47.0998121  85.6145617 134.8724660  43.4715769  86.2155608
 134.8586228  42.5756862  85.8787906 135.5897088  43.4786433  86.8493894
 136.7250790  43.9053109  88.2608736 136.4668568  44.8270180  88.2593066
 136.1935831  43.5083544  88.9509200 141.6696979  57.0103896  81.0398821
 141.8433857  56.4450319  80.2872674 142.1625870  57.8104791  80.8578311
 127.4873939  49.0218565  89.1062380 126.9427407  49.7978373  89.2382654
 128.3653289  49.3689370  88.9481501 134.2761555  42.3530149  81.4843178
 134.3977467  41.4246795  81.6834066 133.9863598  42.3668835  80.5721494
 137.1452746  40.0385059  84.6209898 137.1674443  40.1024393  83.6661878
 137.5620805  39.1989568  84.8150404 142.6572151  56.3270661  78.1395719
 143.3523056  56.9477353  78.3583034 142.9995302  55.4766012  78.4148097
 128.2739961  48.1488461  91.9992537 127.5321697  48.2971097  92.5857167
 127.9532705  48.4096727  91.1359286 136.2183623  57.6904440  91.7972927
 136.5270750  57.4453586  92.6695626 137.0159105  57.8951078  91.3091797
 136.2404235  59.8442349  84.0278303 135.8009226  59.3518728  84.7211160
 136.9912352  59.3015317  83.7870379 128.7196574  56.0353890  84.0302931
 129.5454594  55.7357662  83.6501575 128.3690626  55.2661513  84.4792720
 133.6878108  55.3880358  86.1000605 133.0658117  54.7251063  85.8002833
 134.3582974  55.4141490  85.4174253 126.9205179  53.9540217  84.9891865
 126.0837088  53.5262391  84.8075866 126.8928825  54.1472660  85.9262656
 133.7602635  43.8662146  95.6933111 133.8090790  44.7424269  95.3110881
 134.3025149  43.3239539  95.1204754 133.2491614  53.9384282  79.5759066
 133.3979735  54.6219746  78.9225738 134.0558058  53.9189372  80.0908521
 141.6559118  47.2426664  93.6026283 142.5568981  47.1033129  93.3110281
 141.7307093  47.4081119  94.5424461 135.9901923  44.6193519  92.4479470
 135.1205233  44.9127085  92.1762058 136.2261404  45.2033964  93.1686733
 131.0044247  49.9649459  80.5820134 130.7590289  49.0611789  80.7800345
 131.1740162  49.9666610  79.6399612 138.6940957  40.8373136  89.9644890
 139.2122901  41.5734163  89.6391379 138.3396090  41.1437129  90.7991649
 130.2739895  45.6977817  78.0806296 129.5809140  45.7722172  77.4246332
 130.0291647  44.9338161  78.6027813 138.9453551  37.2573418  85.4845787
 139.2255305  36.5896607  86.1106213 139.7304158  37.4502514  84.9720450
 136.7487020  56.4332412  77.0470813 136.1760987  57.0522599  76.5941285
 137.3219814  56.9831774  77.5810735 140.8376789  42.7646635  89.4176763
 140.2426721  43.0451648  88.7223251 140.5526486  43.2540536  90.1893504
 139.9684280  56.7169562  78.1779395 140.9014953  56.6515124  78.3812271
 139.8807493  57.5525829  77.7193928 142.5972296  56.0335433  75.1383343
 142.5185928  55.6995296  76.0319101 143.4181963  56.5257201  75.1374815
 137.1333818  47.7693225  74.3886865 138.0792923  47.6399433  74.4575283
 136.7548063  47.0307887  74.8656294 137.0172511  51.8210971  95.8487522
 137.9375520  51.9989570  96.0427569 136.9822094  50.8767016  95.6967222
 135.3176736  45.6943201  74.3241751 134.4108191  45.3976314  74.4004464
 135.5952717  45.3973019  73.4576037 126.2354676  47.0149565  84.7740797
 125.9157460  46.1614873  84.4815171 125.6888104  47.2298143  85.5298764
 130.0134584  49.7312006  88.4910304 130.2320593  50.6629114  88.5098337
 130.4260357  49.3719980  89.2765107 136.9338801  40.2380091  80.4785992
 136.1239530  39.8927176  80.8541238 137.6223218  39.9287635  81.0673604
 138.8629350  39.3158138  82.1010289 139.4160388  39.7353591  82.7600312
 139.0999436  38.3893886  82.1433245 134.8862449  45.3045211  97.8813053
 134.7859176  46.2539568  97.8125144 134.6683991  44.9763450  97.0089123
 134.0875520  42.5530137  74.4653730 134.9494684  42.8785035  74.7249547
 134.2725864  41.7661632  73.9526796 126.1042936  50.6352476  86.7433919
 125.4106407  50.2206429  86.2303873 126.8515927  50.6773013  86.1467338
 142.2408157  41.4258663  81.6088953 141.6606826  42.0843467  81.2267005
 141.9744089  40.6036008  81.1976370 140.6911723  40.8263721  83.8110273
 141.1911501  40.9380255  83.0024592 141.3347331  40.5224774  84.4511082
 134.7493719  48.7342350  96.6978114 134.2660801  49.5342710  96.9042003
 134.8354658  48.7450295  95.7445558 128.0179678  50.5670730  84.6199934
 127.9950367  50.6658417  83.6681817 128.3280315  51.4135881  84.9417100
 130.6767056  52.6246885  88.7346548 131.6310310  52.5930827  88.6676480
 130.4779580  52.1637509  89.5496774 131.2666438  51.1948001  91.3017346
 132.0859327  51.6892080  91.3252183 131.5403246  50.2779969  91.2734913
 141.0233035  43.5858753  80.6645301 140.1358890  43.8708404  80.4465496
 141.4387024  43.4252517  79.8172578 129.0317285  58.1666505  85.7516746
 128.8971753  57.4066905  85.1854744 128.6149347  58.8907404  85.2845535
 140.1676248  53.3503428  74.7593321 140.8712098  53.5553431  75.3750977
 139.4438897  53.9180190  75.0242405 140.9974058  49.1013289  80.8795591
 140.9409260  49.5581841  80.0403224 141.5502401  48.3403974  80.7018434
 132.1886411  59.0635822  85.9635188 132.0718795  60.0081254  85.8613879
 131.3678857  58.7609383  86.3520988 142.0762946  53.7885957  76.8091781
 142.9108550  53.3567156  76.6269256 141.9147288  53.6167971  77.7368676
 141.7308838  50.2918071  78.1748120 141.6757642  50.1262342  77.2336565
 141.1054893  50.9994103  78.3310310 126.5201353  45.5286135  92.0009543
 127.1660216  45.0185089  92.4896768 126.3118504  46.2654817  92.5752968
 139.0454745  52.5966982  97.5001683 139.9145905  52.7707635  97.1388318
 138.5661496  53.4161399  97.3777413 135.0404963  39.7926180  77.7533439
 135.0283633  40.7368019  77.9101710 135.9328385  39.6096325  77.4592900
 133.2140925  59.7164083  89.1791117 134.1168172  59.7487694  89.4957612
 132.9878295  58.7864534  89.1937453 134.9694527  58.4695070  85.8401196
 134.0190158  58.4696932  85.7265568 135.2727013  57.7227805  85.3237230
 138.8557083  36.3868956  82.0079376 138.0889478  35.8327443  82.1536058
 139.2667788  36.4590825  82.8693527 130.8598844  42.6753752  96.0984557
 131.7230305  42.3190557  96.3087882 130.2864254  42.3367647  96.7859961
 143.3723743  66.1118513  82.8305374 142.8088608  66.0208450  82.0621661
 143.2576138  65.2918417  83.3107866 140.9188175  67.6069704  85.6689594
 141.7109466  67.2660529  85.2535893 141.1584825  67.7164680  86.5891747
 143.1266338  64.3330212  84.7760370 142.2016834  64.2006426  84.9838062
 143.3750751  65.1124432  85.2730313 140.4875149  63.9763486  85.6104159
 140.6167530  64.2297965  86.5243571 139.8072600  64.5691194  85.2908814
 139.4344574  61.4485499  85.6555202 138.6443628  61.7043027  85.1795312
 139.9255822  62.2633837  85.7607242 141.3859320  61.8130078  82.6138678
 140.5890483  61.9248772  83.1322174 141.1584912  62.1516730  81.7479569
 137.7182277  61.7015989  88.0870192 137.9690316  62.5862999  88.3527768
 138.2541826  61.5220591  87.3145284 140.3842402  67.5218327  81.0028098
 140.8966923  68.3161577  81.1533663 141.0365115  66.8244617  80.9361700
 142.1937287  70.6384083  83.0850851 142.3703915  71.5602048  82.8971835
 142.9894120  70.3242502  83.5145231 141.4789644  62.6848715  92.9613015
 141.3643159  61.7833972  93.2620114 140.6234161  62.9312412  92.6097831
 138.3491319  65.8506981  81.7787669 139.1866541  66.2603990  81.5621377
 138.5269587  64.9106423  81.7487863 138.3717490  63.1897696  82.4498402
 138.1741890  62.5967057  81.7249469 137.8164154  62.8849907  83.1674341
 140.8663716  62.7161730  80.1339354 139.9361304  62.6546186  80.3509317
 140.9621188  62.1937683  79.3375996 140.7849265  59.2416543  82.7217596
 141.0456082  60.1561876  82.6126757 141.6066437  58.7740986  82.8714209
 142.2574190  60.6554300  89.8916421 142.9297244  60.4471663  89.2429070
 141.4303977  60.4576386  89.4521653 142.2961466  77.3946130  85.8542836
 142.5358064  78.0264654  86.5321854 141.4530662  77.0434170  86.1408195
 134.9317321  64.8747892  84.6166148 135.6188361  64.5609622  84.0287163
 134.7765450  65.7789256  84.3433399 139.7352043  59.7638088  89.0451171
 139.6510232  59.1563758  88.3101581 138.9134750  60.2547107  89.0460668
 139.9167643  70.3842885  88.1679172 140.5021079  69.6386573  88.3007076
 139.7192481  70.6946842  89.0515836 142.7706298  73.4194132  83.1841614
 142.1016673  73.9040260  82.7005654 142.6319168  73.6663353  84.0984993
 134.5085297  62.9548485  86.8883615 134.5469397  62.4212076  87.6820733
 134.0025590  62.4283691  86.2694592 141.8876060  57.8013026  90.3846157
 141.9517386  58.6627856  89.9723555 141.8243180  57.1887027  89.6518516
 141.3628332  59.8736158  94.0319191 141.9900371  59.4913235  94.6456716
 140.5056251  59.6550360  94.3974884 138.1393875  61.6812587  79.9637546
 138.4347316  60.7723266  79.9104600 137.2381911  61.6600327  79.6418549
 141.6688122  59.7568584  85.9465095 140.9474708  60.3704552  85.8072568
 142.4581378  60.2926349  85.8681741 139.8681717  59.3626685  80.0876871
 139.5394423  58.4824064  79.9051977 140.2221087  59.3074354  80.9753261
 142.9823540  59.6499655  80.4552349 143.3219612  60.1785576  79.7330957
 143.4295660  59.9880061  81.2310916 138.3267693  64.3510483  89.1062380
 137.7821161  65.1270291  89.2382654 139.2047043  64.6981287  88.9481501
 139.1133715  63.4780379  91.9992537 138.3715451  63.6263014  92.5857167
 138.7926459  63.7388645  91.1359286 139.5590329  71.3645808  84.0302931
 140.3848349  71.0649580  83.6501575 139.2084381  70.5953430  84.4792720
 137.7598934  69.2832134  84.9891865 136.9230842  68.8554309  84.8075866
 137.7322579  69.4764578  85.9262656 141.8438002  65.2941377  80.5820134
 141.5984044  64.3903707  80.7800345 142.0133916  65.2958527  79.6399612
 141.1133649  61.0269735  78.0806296 140.4202894  61.1014090  77.4246332
 140.8685401  60.2630078  78.6027813 137.0748430  62.3441482  84.7740797
 136.7551215  61.4906791  84.4815171 136.5281859  62.5590061  85.5298764
 140.8528338  65.0603923  88.4910304 141.0714348  65.9921031  88.5098337
 141.2654112  64.7011898  89.2765107 136.9436690  65.9644394  86.7433919
 136.2500162  65.5498347  86.2303873 137.6909681  66.0064930  86.1467338
 138.8573433  65.8962648  84.6199934 138.8344121  65.9950335  83.6681817
 139.1674069  66.7427798  84.9417100 141.5160811  67.9538803  88.7346548
 142.4704064  67.9222745  88.6676480 141.3173334  67.4929426  89.5496774
 142.1060193  66.5239919  91.3017346 142.9253082  67.0183997  91.3252183
 142.3797001  65.6071887  91.2734913 139.8711040  73.4958422  85.7516746
 139.7365508  72.7358823  85.1854744 139.4543102  74.2199322  85.2845535
 143.0280166  74.3927739  85.9635188 142.9112550  75.3373172  85.8613879
 142.2072612  74.0901301  86.3520988 137.3595107  60.8578053  92.0009543
 138.0053971  60.3477007  92.4896768 137.1512258  61.5946734  92.5752968
 141.6992598  58.0045670  96.0984557 142.5624060  57.6482475  96.3087882
 141.1258009  57.6659565  96.7859961 119.2400667  13.9547992  72.3934901
 120.0321959  13.6138816  71.9781200 119.4797317  14.0642967  73.3137054
 127.2735794  16.1267768  64.8665145 126.6223773  16.7121848  64.4799159
 128.0680156  16.6573963  64.9260183 123.0376463  14.5433287  78.4719179
 122.7466329  15.4478918  78.3565845 123.6733448  14.5849815  79.1863248
 122.9787128  20.9939023  68.4339940 122.9011158  21.9446848  68.5128421
 122.3748772  20.6484896  69.0914866 125.2525497  16.3521176  67.1545480
 125.1171172  17.1972712  67.5830328 125.7935310  16.5540454  66.3911414
 118.7054895  13.8696614  67.7273405 119.2179415  14.6639864  67.8778970
 119.3577607  13.1722905  67.6607006 120.5149779  16.9862370  69.8096158
 120.6916408  17.9080335  69.6217142 121.3106613  16.6720790  70.2390538
 126.8793974  16.9744743  81.2845822 126.4357828  16.1881121  80.9666726
 127.5411187  17.1623893  80.6189713 121.6381095  18.5040544  75.8106500
 122.1888520  18.3757608  75.0383494 120.7992571  18.8035433  75.4601393
 128.9775212  17.2547543  79.3127223 128.9593687  18.0756424  78.8207492
 129.8995132  17.1301618  79.5377364 127.8521658  20.4255382  63.5901203
 127.1783356  20.7287079  64.1986161 128.2387479  21.2284462  63.2406660
 129.7994019  17.2653556  69.8969492 130.0916993  17.8258613  69.1781858
 130.3092639  17.5582117  70.6522652 124.7627644  18.0433907  70.9862946
 124.7203823  18.2694753  70.0571478 125.6790343  17.8097281  71.1348747
 127.6988289  17.3015031  75.1337276 127.7525311  17.8705968  75.9014992
 126.8303071  17.4716916  74.7691313 125.4564721  15.4925958  74.4622745
 125.3175806  15.1244742  75.3348684 124.6679317  16.0073597  74.2906703
 126.0512873  20.5935054  65.8048282 126.2264628  20.1223098  66.6193905
 125.3645661  21.2200821  66.0329543 120.6173958  23.7424417  72.5788142
 120.8570556  24.3742941  73.2567161 119.7743154  23.3912457  72.8653501
 125.1301820  19.5503540  74.9829646 125.0571991  20.3558511  75.4948951
 124.6879213  19.7495505  74.1577668 124.9191599  18.7875310  68.4932468
 124.1359121  19.3296990  68.5870692 125.6184345  19.3049289  68.8926709
 127.5900503  19.4490374  77.1387805 128.3028476  20.0837838  77.0663706
 127.0990532  19.5454240  76.3227807 122.6412417  17.1984817  77.9593376
 123.3421876  17.8321300  78.1122770 122.1707532  17.5399549  77.1989015
 127.4020877  19.7889118  69.8874096 127.5843271  18.9710774  70.3501849
 128.2253863  20.0056810  69.4498986 127.7363042  18.7157303  67.1489145
 128.2650809  18.2049757  66.5359307 127.9991262  18.3999833  68.0134678
 118.2380135  16.7321172  74.8924478 118.8233572  15.9864860  75.0252383
 118.0404973  17.0425129  75.7761142 121.0918790  19.7672419  69.9086921
 120.4229165  20.2518547  69.4250961 120.9531660  20.0141640  70.8230299
 125.2324059  21.8016163  76.5069579 125.7842367  21.9647785  77.2718664
 125.5730252  22.3920601  75.8349604 128.3692446  19.7498139  73.4933261
 128.2443585  18.9487878  72.9844207 129.0271537  20.2444332  73.0047231
 127.4373788  17.3459875  71.3217164 127.2898750  16.4176582  71.5024734
 128.2627281  17.3679966  70.8374239 131.0407910  18.1688434  72.4082036
 131.9654457  17.9631295  72.2706487 130.8723213  17.9204835  73.3171378
 130.8303226  18.6874101  67.7644128 131.0040103  18.1220524  67.0117980
 131.3232117  19.4874996  67.5823618 125.3789870  19.3674645  78.5218233
 125.6876997  19.1223791  79.3940933 126.1765352  19.5721283  78.0337104
 125.4010482  21.5212554  70.7523610 124.9615472  21.0288933  71.4456467
 126.1518599  20.9785522  70.5115685 117.8802821  17.7124095  70.7548238
 118.7060841  17.4127867  70.3746882 117.5296873  16.9431718  71.2038027
 122.8484354  17.0650563  72.8245912 122.2264364  16.4021268  72.5248139
 123.5189221  17.0911695  72.1419559 116.0811426  15.6310422  71.7137172
 115.2443334  15.2032596  71.5321173 116.0535072  15.8242865  72.6507963
 122.4097861  15.6154487  66.3004372 122.5585982  16.2989951  65.6471045
 123.2164305  15.5959577  66.8153828 125.9093267  18.1102617  63.7716120
 125.3367234  18.7292804  63.3186591 126.4826060  18.6601979  64.3056042
 129.1290526  18.3939767  64.9024702 130.0621200  18.3285329  65.1057577
 129.0413739  19.2296034  64.4439235 131.7578543  17.7105638  61.8628649
 131.6792175  17.3765501  62.7564407 132.5788210  18.2027405  61.8620122
 115.2649183  12.3122681  73.4679225 114.5712654  11.8976634  72.9549180
 116.0122174  12.3543218  72.8712644 117.1785925  12.2440935  71.3445240
 117.1556613  12.3428622  70.3927123 117.4886562  13.0906086  71.6662406
 119.8373303  14.3017090  75.4591855 120.7916557  14.2701032  75.3921786
 119.6385827  13.8407714  76.2742081 118.1923532  19.8436709  72.4762052
 118.0578000  19.0837110  71.9100051 117.7755594  20.5677609  72.0090841
 121.3492658  20.7406026  72.6880495 121.2325042  21.6851459  72.5859185
 120.5285104  20.4379588  73.0766294 122.3747172  21.3934288  75.9036424
 123.2774419  21.4257899  76.2202919 122.1484542  20.4634739  75.9182759
 124.1300774  20.1465275  72.5646502 123.1796405  20.1467137  72.4510874
 124.4333260  19.3998009  72.0482537 139.8653467  25.9825813  73.6292265
 140.5031877  25.8632561  72.9255605 139.7474310  26.9306657  73.6880217
 136.6743174  25.9353241  73.5653789 136.3361685  25.8194306  72.6774324
 137.5432942  25.5344406  73.5454795 132.5329989  27.7888718  69.5550680
 131.9694855  27.6978655  68.7866968 132.4182384  26.9688622  70.0353173
 137.1562957  27.0888093  79.5239995 137.1451597  26.6940891  78.6520498
 137.3183596  26.3554166  80.1173766 130.0794421  29.2839909  72.3934901
 130.8715713  28.9430734  71.9781200 130.3191072  29.3934884  73.3137054
 138.1129548  31.4559686  64.8665145 137.4617528  32.0413766  64.4799159
 138.9073911  31.9865880  64.9260183 132.0385175  28.5448823  65.2652279
 132.8116051  27.9977810  65.1265155 132.3910574  29.4093072  65.4766741
 133.8770218  29.8725205  78.4719179 133.5860084  30.7770836  78.3565845
 134.5127202  29.9141733  79.1863248 134.8026425  27.2502053  75.0620538
 135.3989997  27.0258076  74.3477501 134.8601396  26.5086799  75.6645986
 134.3751453  24.7041489  62.8970729 134.6276974  24.1823010  62.1354192
 133.4376012  24.5407634  62.9997413 139.4194736  23.7077267  70.7045473
 140.2057825  23.2896690  70.3535890 139.6833440  24.6123359  70.8727121
 139.5904813  29.1450117  65.4034129 138.9550646  29.2184744  66.1155034
 139.2602220  29.7343716  64.7253209 134.0947742  26.6069595  65.0995104
 133.9784000  25.9314498  65.7676189 134.2050002  26.1201969  64.2827257
 136.4379283  26.0679742  68.8041794 136.0737490  25.5410363  69.5154715
 137.2946399  25.6778211  68.6308279 136.0784770  21.0969642  63.8003142
 136.2459172  21.9649878  64.1673613 135.8881939  21.2596923  62.8764431
 138.8360103  29.5586620  75.4668972 138.5360826  30.4611659  75.3584780
 138.4911162  29.2918804  76.3190125 132.2872584  26.0100417  71.5005677
 131.3623081  25.8776631  71.7083369 132.5356998  26.7894637  71.9975619
 142.2357247  22.0769161  73.1466410 141.3274124  22.0084569  72.8525171
 142.1844843  22.5541106  73.9748235 136.0573991  23.5527299  64.7849809
 135.9373616  23.9984350  65.6235289 135.3626579  23.9012617  64.2263347
 129.6481395  25.6533691  72.3349466 129.7773777  25.9068170  73.2488878
 128.9678847  26.2461399  72.0154121 133.8180883  36.3230941  68.4339940
 133.7404912  37.2738766  68.5128421 133.2142526  35.9776813  69.0914866
 136.3098112  23.4958806  81.0901307 135.5331447  24.0552726  81.0804172
 136.9488676  23.9815589  81.6116177 141.7559057  24.0248772  65.6130143
 142.6676913  24.2576159  65.4377841 141.2468704  24.6085816  65.0505222
 134.5644485  26.3044260  80.6519274 135.3059169  26.8429304  80.3754098
 133.8581470  26.9310548  80.8090826 140.0399824  28.4473400  79.2491436
 140.4483180  28.0055811  78.5046068 139.3177086  27.8726028  79.5025628
 136.3930894  23.3846007  76.6224992 137.2392090  23.8085420  76.7659641
 136.3329532  22.7279631  77.3163556 140.3628639  29.0074591  73.0043724
 139.7337502  29.1720305  72.3019792 139.9754301  29.4216200  73.7754688
 139.5430340  21.0450375  78.2806166 139.2991272  21.7992436  77.7440442
 139.8190270  21.4235723  79.1153413 141.4968803  27.5888988  76.9583432
 141.7085698  28.2320747  76.2817813 141.4498551  26.7551304  76.4905362
 139.0995032  20.2006808  73.8620004 138.2379511  20.4988062  74.1536741
 139.1257466  20.4177207  72.9301036 135.9156601  28.7448999  70.2693810
 136.3794947  29.0236702  69.4798432 135.6513399  27.8432443  70.0866900
 132.8080682  28.2920480  73.2073573 133.3782039  28.7207749  72.5691057
 133.3988794  28.0103065  73.9057758 134.8525487  24.8672151  67.0783375
 135.5549530  25.3193195  67.5457301 134.5206116  24.2255970  67.7063268
 133.3005849  23.4583908  81.4534584 132.6704509  24.1400189  81.6869981
 133.1941936  23.3466989  80.5087722 128.5950821  23.1255704  72.3800508
 127.8049875  23.3813232  71.9040619 129.0862068  23.9404042  72.4852549
 142.6114631  30.4660943  75.1305789 143.4332074  30.0641130  74.8488471
 142.6077033  30.3629177  76.0821905 130.5465566  23.4900283  69.3383985
 129.7496730  23.6018977  69.8567481 130.3191159  23.8286935  68.4724875
 136.3771234  30.0144986  77.2866500 136.4415667  30.4765393  78.1224671
 135.6682158  29.3842351  77.4148809 126.8788524  23.3786194  74.8115499
 127.1296562  24.2633204  75.0773075 127.4148072  23.1990796  74.0390591
 136.0919252  31.6813094  67.1545480 135.9564926  32.5264629  67.5830328
 136.6329064  31.8832371  66.3911414 129.5448649  29.1988532  67.7273405
 130.0573170  29.9931782  67.8778970 130.1971362  28.5014822  67.6607006
 131.3543534  32.3154288  69.8096158 131.5310162  33.2372253  69.6217142
 132.1500367  32.0012707  70.2390538 130.6395890  24.3618920  79.6858321
 130.5249405  23.4604177  79.9865420 129.7840408  24.6082617  79.3343138
 137.7187728  32.3036660  81.2845822 137.2751582  31.5173039  80.9666726
 138.3804942  32.4915811  80.6189713 132.4774849  33.8332462  75.8106500
 133.0282274  33.7049525  75.0383494 131.6386325  34.1327351  75.4601393
 139.8168966  32.5839460  79.3127223 139.7987441  33.4048341  78.8207492
 140.7388886  32.4593535  79.5377364 136.2742020  30.0983590  80.1550732
 136.8070357  29.3371878  79.9250040 135.7456101  29.8057241  80.8974886
 127.5097566  27.5277186  68.5032975 128.3472788  27.9374194  68.2866683
 127.6875834  26.5876628  68.4733169 139.4061998  25.1952267  64.1916808
 138.8908621  25.9656871  64.4305196 139.1339306  24.5217403  64.8149870
 136.9909109  20.0401968  69.2502047 136.1350705  19.6508818  69.0707686
 137.4036061  20.1193928  68.3901832 139.1948301  23.0679359  66.0176590
 138.8898437  23.3825508  66.8686733 140.1478743  23.1460779  66.0603923
 137.6394733  29.2269582  67.6669544 137.1116095  28.4922342  67.3542781
 137.1382236  30.0044258  67.4209512 142.6187579  27.4218603  72.7836590
 141.9611253  28.1117864  72.8716719 143.4227978  27.8115035  73.1270576
 132.3713461  19.8889248  70.0276155 132.9457212  19.6664430  69.2949348
 132.9584443  19.9577943  70.7804756 141.4293038  25.7762975  70.8340532
 141.9424920  26.4092967  71.3362241 142.0794262  25.1764171  70.4683892
 132.6983048  21.9193709  64.0472040 131.8620360  22.2568396  64.3681315
 132.5587817  21.7842689  63.1099177 135.7847333  27.0449792  60.6704517
 134.8774395  26.8139046  60.8695666 136.2818365  26.2487412  60.8578498
 138.6915412  35.7547300  63.5901203 138.0177111  36.0578996  64.1986161
 139.0781234  36.5576380  63.2406660 137.9073869  23.2512431  73.0798872
 136.9896430  23.4727378  72.9220560 138.3234012  23.3258741  72.2210580
 138.6908916  24.6503847  68.2101552 139.4380735  25.1625244  67.9008674
 138.9600506  24.3287899  69.0705946 136.9635567  27.1462387  65.1928507
 136.0546786  26.8621420  65.2900976 136.9930650  27.5661466  64.3331814
 142.1954834  30.7568977  68.9619674 141.7417161  29.9159887  69.0184865
 141.5648801  31.3930375  69.2994454 141.1387754  21.6860963  70.1920342
 140.4010510  21.1738349  70.5230584 141.3914527  21.2461344  69.3803619
 140.6387773  32.5945473  69.8969492 140.9310748  33.1550531  69.1781858
 141.1486394  32.8874034  70.6522652 127.5323737  24.8667901  69.1743709
 127.3348137  24.2737262  68.4494776 126.9770401  24.5620112  69.8919648
 135.5120461  24.7591008  71.2938302 135.5669070  23.8064844  71.2180779
 134.7011663  24.9150447  71.7779601 136.6611654  28.6871131  62.5316585
 136.2231084  27.9706990  62.0722223 137.4022095  28.9147246  61.9701677
 133.4512821  23.3768068  69.0528681 132.6380686  23.6762238  69.4593873
 133.9471815  22.9823756  69.7703163 135.6021398  33.3725825  70.9862946
 135.5597577  33.5986671  70.0571478 136.5184097  33.1389199  71.1348747
 139.0487032  23.8409892  77.8843575 139.4036420  24.0681365  78.7438041
 139.6959163  24.1728269  77.2620830 132.9426895  20.9486423  74.6689916
 133.5826275  20.8075182  73.9712879 132.1104426  20.6620937  74.2928518
 133.7187199  30.2488854  70.7824908 134.5127798  29.7539174  70.5807483
 133.0078892  29.7206717  70.4192614 138.5382044  32.6306949  75.1337276
 138.5919066  33.1997885  75.9014992 137.6696825  32.8008834  74.7691313
 130.0269963  24.3931935  66.8584661 129.0967551  24.3316391  67.0754623
 130.1227435  23.8707888  66.0621302 129.9455512  20.9186748  69.4462903
 130.2062329  21.8332081  69.3372063 130.7672684  20.4511191  69.5959516
 131.4180437  22.3324505  76.6161727 132.0903490  22.1241867  75.9674376
 130.5910224  22.1346591  76.1766960 140.7284807  29.2235298  81.7077941
 140.5770313  28.9945850  80.7908025 140.7189486  30.1805900  81.7209286
 137.4970143  26.7967211  76.6924208 138.4262203  26.9478371  76.5193175
 137.0761173  26.8851232  75.8372854 136.2958475  30.8217876  74.4622745
 136.1569561  30.4536660  75.3348684 135.5073071  31.3365515  74.2906703
 136.8906627  35.9226972  65.8048282 137.0658383  35.4515015  66.6193905
 136.2039415  36.5492738  66.0329543 137.8463690  30.1999478  71.8511583
 137.5113523  30.1600248  72.7469233 137.3467636  29.5344194  71.3781993
 131.8207934  25.6067108  77.3764164 131.6827732  24.8747347  77.9775703
 132.7312858  25.5176008  77.0948352 140.7822882  27.5455513  62.1248643
 140.1652053  26.8202341  62.0281696 140.3139370  28.3064873  61.7815717
 134.4490235  25.3187068  76.8647844 135.1589853  24.6780260  76.8234462
 134.4059543  25.5699962  77.7874025 142.4377014  32.2554421  79.7854423
 142.3789560  31.5713641  79.1185006 142.8396532  32.9973411  79.3335049
 133.1619169  22.3052285  78.6843484 132.6256526  21.8543024  79.3365080
 132.5735877  22.4398194  77.9413948 131.4567712  39.0716335  72.5788142
 131.6964311  39.7034859  73.2567161 130.6136909  38.7204375  72.8653501
 132.5721428  21.7640937  61.2469947 131.6950894  21.6429738  60.8832194
 133.0479181  20.9727015  60.9948836 142.4394421  30.2194005  78.0168403
 141.5521200  29.8819927  78.1394802 143.0092972  29.4877036  78.2537168
 124.0923568  26.5518097  71.3411454 124.7794608  26.2379827  70.7532470
 123.9371697  27.4559461  71.0678706 128.8958290  21.4408293  75.7696478
 128.8116479  20.8333963  75.0346888 128.0740997  21.9317312  75.7705974
 135.9695574  34.8795457  74.9829646 135.8965746  35.6850429  75.4948951
 135.5272967  35.0787423  74.1577668 135.7585354  34.1167227  68.4932468
 134.9752876  34.6588907  68.5870692 136.4578099  34.6341207  68.8926709
 138.4294258  34.7782291  77.1387805 139.1422230  35.4129756  77.0663706
 137.9384286  34.8746157  76.3227807 140.1511785  28.6833544  68.7105096
 139.2168063  28.8035006  68.5409801 140.3288453  27.7806011  68.4465106
 135.6516973  22.0679240  70.8638358 135.2814760  21.5150280  71.5519263
 136.1476065  21.4637373  70.3113358 133.4806171  32.5276735  77.9593376
 134.1815631  33.1613218  78.1122770 133.0101286  32.8691466  77.1989015
 141.6060567  30.8694685  66.2441283 141.8820411  30.7551279  67.1535157
 140.7365066  30.4712169  66.2053456 141.2807457  25.0821342  75.7845926
 140.6278908  25.3297250  75.1298379 141.6587837  24.2685480  75.4508403
 138.2414631  35.1181035  69.8874096 138.4237026  34.3002691  70.3501849
 139.0647617  35.3348728  69.4498986 138.5756797  34.0449220  67.1489145
 139.1044563  33.5341675  66.5359307 138.8385016  33.7291751  68.0134678
 137.3295030  25.8241153  82.2711963 136.6535667  25.7235283  82.9414338
 138.1522664  25.6680367  82.7347960 129.0773889  32.0613090  74.8924478
 129.6627326  31.3156778  75.0252383 128.8798728  32.3717046  75.7761142
 131.9312545  35.0964337  69.9086921 131.2622920  35.5810465  69.4250961
 131.7925414  35.3433558  70.8230299 123.6691544  24.6318690  73.6128921
 123.7075644  24.0982281  74.4066040 123.1631837  24.1053895  72.9939899
 136.0717813  37.1308081  76.5069579 136.6236121  37.2939702  77.2718664
 136.4124007  37.7212519  75.8349604 131.0482306  19.4783230  77.1091464
 131.1123633  20.3398061  76.6968861 130.9849427  18.8657232  76.3763822
 130.5234579  21.5506363  80.7564498 131.1506618  21.1683440  81.3702022
 129.6662498  21.3320565  81.1220191 140.9228688  31.9569338  82.3618233
 141.4668592  32.5699296  81.8673188 140.3415532  32.5148917  82.8785246
 127.3000122  23.3582792  66.6882853 127.5953563  22.4493471  66.6349907
 126.3988158  23.3370532  66.3663855 139.2086201  35.0790056  73.4933261
 139.0837340  34.2779796  72.9844207 139.8665292  35.5736250  73.0047231
 130.8294369  21.4338789  72.6710401 130.1080954  22.0474756  72.5317875
 131.6187625  21.9696554  72.5927047 141.2721109  32.8799076  75.1212811
 140.3251444  32.7604427  75.0491138 141.6203882  31.9921574  75.2039073
 133.6320682  18.7693215  78.9451053 134.1555084  19.0155512  79.7077363
 133.4133016  19.6013250  78.5254191 129.0287963  21.0396890  66.8122178
 128.7000669  20.1594269  66.6297284 129.3827334  20.9844558  67.6998567
 138.2767542  32.6751793  71.3217164 138.1292505  31.7468500  71.5024734
 139.1021036  32.6971883  70.8374239 132.1429786  21.3269860  67.1797656
 132.4825859  21.8555781  66.4576264 132.5901907  21.6650266  67.9556222
 141.8801664  33.4980351  72.4082036 142.8048212  33.2923213  72.2706487
 141.7116967  33.2496752  73.3171378 134.8373227  19.7106910  76.6300724
 134.4970048  18.9114723  77.0321404 134.1312234  20.0108621  76.0577557
 134.1297934  19.8244481  65.3790948 134.8506296  20.2025734  64.8754665
 133.5063238  20.5433358  65.4825926 138.2729057  20.5289630  66.3149281
 138.4892671  21.4114268  66.0138109 137.7923124  20.1375844  65.5854923
 133.0128278  23.4875343  72.8920025 132.8672859  23.8015646  73.7844307
 132.5353482  24.1060244  72.3390924 134.8724661  20.4777891  72.9400915
 134.8586230  19.5818985  72.6033213 135.5897089  20.4848555  73.5739201
 136.7250791  20.9115232  74.9854042 136.4668569  21.8332302  74.9838373
 136.1935832  20.5145666  75.6754506 141.6696980  34.0166019  67.7644128
 141.8433858  33.4512441  67.0117980 142.1625871  34.8166914  67.5823618
 127.4873940  26.0280688  75.8307687 126.9427408  26.8040496  75.9627961
 128.3653290  26.3751492  75.6726808 134.2761557  19.3592272  68.2088485
 134.3977468  18.4308918  68.4079373 133.9863599  19.3730958  67.2966800
 142.6572153  33.3332783  64.8641026 143.3523057  33.9539476  65.0828341
 142.9995303  32.4828134  65.1393404 128.2739962  25.1550584  78.7237843
 127.5321698  25.3033219  79.3102474 127.9532706  25.4158850  77.8604593
 136.2183625  34.6966562  78.5218233 136.5270751  34.4515709  79.3940933
 137.0159107  34.9013201  78.0337104 136.2404237  36.8504472  70.7523610
 135.8009227  36.3580851  71.4456467 136.9912354  36.3077440  70.5115685
 128.7196576  33.0416013  70.7548238 129.5454596  32.7419785  70.3746882
 128.3690628  32.2723635  71.2038027 133.6878109  32.3942481  72.8245912
 133.0658118  31.7313186  72.5248139 134.3582976  32.4203613  72.1419559
 126.9205181  30.9602339  71.7137172 126.0837089  30.5324514  71.5321173
 126.8928826  31.1534783  72.6507963 133.7602636  20.8724269  82.4178418
 133.8090792  21.7486392  82.0356187 134.3025150  20.3301662  81.8450061
 133.2491616  30.9446404  66.3004372 133.3979736  31.6281869  65.6471045
 134.0558059  30.9251494  66.8153828 141.6559119  24.2488787  80.3271590
 142.5568982  24.1095252  80.0355588 141.7307094  24.4143242  81.2669767
 135.9901925  21.6255641  79.1724776 135.1205234  21.9189207  78.9007365
 136.2261405  22.2096086  79.8932040 131.0044249  26.9711582  67.3065441
 130.7590291  26.0673912  67.5045651 131.1740163  26.9728732  66.3644919
 130.2739896  22.7039940  64.8051603 129.5809141  22.7784295  64.1491639
 130.0291648  21.9400283  65.3273119 136.7487021  33.4394535  63.7716120
 136.1760988  34.0584722  63.3186591 137.3219815  33.9893896  64.3056042
 139.9684281  33.7231685  64.9024702 140.9014954  33.6577247  65.1057577
 139.8807494  34.5587952  64.4439235 142.5972298  33.0397555  61.8628649
 142.5185929  32.7057419  62.7564407 143.4181964  33.5319323  61.8620122
 137.1333820  24.7755348  61.1132172 138.0792924  24.6461556  61.1820590
 136.7548065  24.0370009  61.5901600 137.0172512  28.8273094  82.5732829
 137.9375522  29.0051693  82.7672876 136.9822095  27.8829139  82.4212528
 135.3176737  22.7005324  61.0487057 134.4108192  22.4038437  61.1249771
 135.5952718  22.4035142  60.1821344 126.2354677  24.0211687  71.4986104
 125.9157462  23.1676996  71.2060478 125.6888105  24.2360265  72.2544071
 130.0134585  26.7374128  75.2155610 130.2320595  27.6691236  75.2343644
 130.4260359  26.3782103  76.0010414 134.8862450  22.3107334  84.6058359
 134.7859177  23.2601691  84.5370450 134.6683992  21.9825573  83.7334429
 134.0875521  19.5592259  61.1899037 134.9494685  19.8847157  61.4494854
 134.2725866  18.7723755  60.6772102 126.1042937  27.6414599  73.4679225
 125.4106409  27.2268552  72.9549180 126.8515928  27.6835135  72.8712644
 134.7493720  25.7404473  83.4223421 134.2660802  26.5404833  83.6287310
 134.8354659  25.7512418  82.4690865 128.0179680  27.5732853  71.3445240
 127.9950368  27.6720540  70.3927123 128.3280316  28.4198003  71.6662406
 130.6767058  29.6309008  75.4591855 131.6310311  29.5992950  75.3921786
 130.4779581  29.1699631  76.2742081 131.2666440  28.2010124  78.0262652
 132.0859329  28.6954202  78.0497490 131.5403247  27.2842092  77.9980220
 129.0317286  35.1728627  72.4762052 128.8971754  34.4129028  71.9100051
 128.6149349  35.8969527  72.0090841 140.1676249  30.3565551  61.4838628
 140.8712100  30.5615553  62.0996283 139.4438898  30.9242313  61.7487711
 140.9974060  26.1075412  67.6040898 140.9409261  26.5643963  66.7648530
 141.5502402  25.3466097  67.4263741 132.1886412  36.0697944  72.6880495
 132.0718796  37.0143377  72.5859185 131.3678859  35.7671506  73.0766294
 142.0762947  30.7948080  63.5337088 142.9108551  30.3629278  63.3514563
 141.9147290  30.6230094  64.4613982 141.7308839  27.2980193  64.8993427
 141.6757643  27.1324465  63.9581871 141.1054894  28.0056226  65.0555617
 126.5201354  22.5348258  78.7254849 127.1660218  22.0247212  79.2142075
 126.3118505  23.2716939  79.2998275 139.0454746  29.6029105  84.2246990
 139.9145906  29.7769757  83.8633625 138.5661498  30.4223522  84.1022719
 133.2140926  36.7226206  75.9036424 134.1168173  36.7549816  76.2202919
 132.9878296  35.7926657  75.9182759 134.9694528  35.4757193  72.5646502
 134.0190159  35.4759054  72.4510874 135.2727015  34.7289927  72.0482537
 130.8598845  19.6815875  82.8229864 131.7230307  19.3252679  83.0333188
 130.2864256  19.3429769  83.5105268 143.3723744  43.1180635  69.5550680
 142.8088609  43.0270572  68.7866968 143.2576139  42.2980540  70.0353173
 140.9188176  44.6131827  72.3934901 141.7109468  44.2722652  71.9781200
 141.1584826  44.7226802  73.3137054 143.1266339  41.3392335  71.5005677
 142.2016835  41.2068549  71.7083369 143.3750752  42.1186554  71.9975619
 140.4875150  40.9825609  72.3349466 140.6167531  41.2360087  73.2488878
 139.8072601  41.5753317  72.0154121 139.4344575  38.4547621  72.3800508
 138.6443629  38.7105150  71.9040619 139.9255823  39.2695959  72.4852549
 141.3859321  38.8192201  69.3383985 140.5890484  38.9310895  69.8567481
 141.1584913  39.1578853  68.4724875 137.7182278  38.7078112  74.8115499
 137.9690317  39.5925122  75.0773075 138.2541827  38.5282713  74.0390591
 140.3842404  44.5280449  67.7273405 140.8966924  45.3223700  67.8778970
 141.0365116  43.8306740  67.6607006 142.1937288  47.6446206  69.8096158
 142.3703917  48.5664170  69.6217142 142.9894122  47.3304625  70.2390538
 141.4789645  39.6910838  79.6858321 141.3643160  38.7896095  79.9865420
 140.6234163  39.9374534  79.3343138 138.3491320  42.8569104  68.5032975
 139.1866542  43.2666112  68.2866683 138.5269588  41.9168546  68.4733169
 138.3717491  40.1959819  69.1743709 138.1741891  39.6029180  68.4494776
 137.8164155  39.8912029  69.8919648 140.8663717  39.7223853  66.8584661
 139.9361305  39.6608308  67.0754623 140.9621189  39.1999806  66.0621302
 140.7849266  36.2478666  69.4462903 141.0456084  37.1623999  69.3372063
 141.6066439  35.7803108  69.5959516 142.2574192  37.6616423  76.6161727
 142.9297245  37.4533785  75.9674376 141.4303978  37.4638509  76.1766960
 142.2961467  54.4008252  72.5788142 142.5358065  55.0326777  73.2567161
 141.4530663  54.0496292  72.8653501 134.9317323  41.8810014  71.3411454
 135.6188362  41.5671744  70.7532470 134.7765451  42.7851379  71.0678706
 139.7352045  36.7700211  75.7696478 139.6510233  36.1625880  75.0346888
 138.9134751  37.2609229  75.7705974 139.9167644  47.3905007  74.8924478
 140.5021081  46.6448695  75.0252383 139.7192482  47.7008964  75.7761142
 142.7706299  50.4256255  69.9086921 142.1016674  50.9102382  69.4250961
 142.6319169  50.6725475  70.8230299 134.5085299  39.9610608  73.6128921
 134.5469398  39.4274198  74.4066040 134.0025591  39.4345813  72.9939899
 141.8876061  34.8075148  77.1091464 141.9517387  35.6689979  76.6968861
 141.8243181  34.1949150  76.3763822 141.3628333  36.8798281  80.7564498
 141.9900372  36.4975358  81.3702022 140.5056252  36.6612483  81.1220191
 138.1393876  38.6874710  66.6882853 138.4347317  37.7785388  66.6349907
 137.2381912  38.6662449  66.3663855 141.6688123  36.7630706  72.6710401
 140.9474709  37.3766674  72.5317875 142.4581379  37.2988471  72.5927047
 139.8681718  36.3688807  66.8122178 139.5394424  35.4886186  66.6297284
 140.2221089  36.3136476  67.6998567 142.9823541  36.6561777  67.1797656
 143.3219613  37.1847699  66.4576264 143.4295661  36.9942183  67.9556222
 138.3267695  41.3572605  75.8307687 137.7821163  42.1332413  75.9627961
 139.2047044  41.7043410  75.6726808 139.1133716  40.4842502  78.7237843
 138.3715452  40.6325137  79.3102474 138.7926461  40.7450767  77.8604593
 139.5590330  48.3707930  70.7548238 140.3848350  48.0711702  70.3746882
 139.2084382  47.6015553  71.2038027 137.7598935  46.2894257  71.7137172
 136.9230843  45.8616431  71.5321173 137.7322581  46.4826700  72.6507963
 141.8438003  42.3003500  67.3065441 141.5984045  41.3965830  67.5045651
 142.0133918  42.3020650  66.3644919 141.1133651  38.0331857  64.8051603
 140.4202896  38.1076212  64.1491639 140.8685403  37.2692201  65.3273119
 137.0748432  39.3503605  71.4986104 136.7551216  38.4968913  71.2060478
 136.5281860  39.5652183  72.2544071 140.8528339  42.0666046  75.2155610
 141.0714349  42.9983154  75.2343644 141.2654113  41.7074020  76.0010414
 136.9436692  42.9706516  73.4679225 136.2500163  42.5560469  72.9549180
 137.6909683  43.0127053  72.8712644 138.8573434  42.9024770  71.3445240
 138.8344122  43.0012458  70.3927123 139.1674071  43.7489921  71.6662406
 141.5160812  44.9600925  75.4591855 142.4704066  44.9284868  75.3921786
 141.3173336  44.4991549  76.2742081 142.1060194  43.5302041  78.0262652
 142.9253083  44.0246120  78.0497490 142.3797002  42.6134009  77.9980220
 139.8711041  50.5020545  72.4762052 139.7365509  49.7420946  71.9100051
 139.4543103  51.2261445  72.0090841 143.0280167  51.3989862  72.6880495
 142.9112551  52.3435294  72.5859185 142.2072613  51.0963423  73.0766294
 137.3595108  37.8640175  78.7254849 138.0053972  37.3539129  79.2142075
 137.1512260  38.6008857  79.2998275 141.6992599  35.0107792  82.8229864
 142.5624061  34.6544597  83.0333188 141.1258010  34.6721687  83.5105268
 140.9188177  21.6193950  59.1180207 141.7109469  21.2784774  58.7026507
 141.1584827  21.7288925  60.0382361 140.3842405  21.5342572  54.4518712
 140.8966925  22.3285822  54.6024276 141.0365118  20.8368863  54.3852313
 142.1937289  24.6508328  56.5341465 142.3703918  25.5726293  56.3462449
 142.9894123  24.3366748  56.9635845 142.2961468  31.4070375  59.3033449
 142.5358066  32.0388899  59.9812467 141.4530665  31.0558415  59.5898808
 139.9167645  24.3967130  61.6169785 140.5021082  23.6510818  61.7497689
 139.7192484  24.7071087  62.5006449 142.7706300  27.4318377  56.6332227
 142.1016676  27.9164505  56.1496267 142.6319170  27.6787598  57.5475606
 139.5590331  25.3770053  57.4793545 140.3848351  25.0773825  57.0992188
 139.2084383  24.6077675  57.9283333 137.7598936  23.2956379  58.4382478
 136.9230845  22.8678554  58.2566480 137.7322582  23.4888823  59.3753269
 136.9436693  19.9768639  60.1924532 136.2500164  19.5622592  59.6794486
 137.6909684  20.0189176  59.5957951 138.8573435  19.9086893  58.0690547
 138.8344124  20.0074580  57.1172430 139.1674072  20.7552044  58.3907713
 141.5160813  21.9663048  62.1837161 142.4704067  21.9346990  62.1167093
 141.3173337  21.5053672  62.9987387 139.8711042  27.5082667  59.2007359
 139.7365510  26.7483068  58.6345357 139.4543104  28.2323567  58.7336148
 143.0280168  28.4051984  59.4125802 142.9112552  29.3497417  59.3104492
 142.2072614  28.1025546  59.8011601  40.5585750  77.4435444 144.5193302
  39.9073730  78.0289524 144.1327316  41.3530113  77.9741639 144.5788340
  34.4841377  74.5324581 144.9180437  35.2572253  73.9853568 144.7793312
  34.8366776  75.3968830 145.1294898  36.8207655  70.6917247 142.5498886
  37.0733176  70.1698768 141.7882349  35.8832214  70.5283393 142.6525570
  42.0361015  75.1325876 145.0562287  41.4006848  75.2060502 145.7683191
  41.7058422  75.7219475 144.3781366  36.2637085  82.3106699 148.0868097
  36.1861114  83.2614524 148.1656578  35.6598728  81.9652572 148.7443024
  44.2015259  70.0124531 145.2658300  45.1133115  70.2451917 145.0905998
  43.6924906  70.5961575 144.7033379  46.6874073  75.9304787 150.0116245
  46.0025111  76.3103688 149.4613279  46.7717922  76.5400114 150.7448193
  53.1476826  72.7975450 151.1318918  52.3940534  72.2282848 150.9762922
  53.2824367  72.7638114 152.0789552  38.5375454  77.6688852 146.8073637
  38.4021128  78.5140388 147.2358485  39.0785266  77.8708130 146.0439571
  41.8518200  71.1828025 143.8444966  41.3364823  71.9532630 144.0833353
  41.5795508  70.5093161 144.4678027  46.8252474  73.9360380 145.7798139
  46.0481917  73.5971539 145.3353301  47.5043955  73.9413003 145.1053104
  40.0850935  75.2145341 147.3197701  39.5572297  74.4798100 147.0070938
  39.5838438  75.9920017 147.0737669  38.2303535  73.0325551 140.3232674
  37.3230597  72.8014804 140.5223823  38.7274567  72.2363170 140.5106655
  41.1371614  81.7423058 143.2429360  40.4633313  82.0454755 143.8514318
  41.5237436  82.5452138 142.8934817  39.4091769  73.1338146 144.8456664
  38.5002988  72.8497178 144.9429134  39.4386852  73.5537224 143.9859971
  44.6411036  76.7444735 148.6147831  44.1873363  75.9035645 148.6713022
  44.0105003  77.3806134 148.9522612  43.0843975  78.5821232 149.5497650
  43.3766950  79.1426289 148.8310015  43.5942596  78.8749793 150.3050809
  39.1067856  74.6746889 142.1844742  38.6687286  73.9582748 141.7250380
  39.8478297  74.9023004 141.6229834  47.2240971  72.9504086 148.2421061
  47.0858870  73.1405682 147.3142250  46.8677190  73.7123469 148.6989112
  39.3362829  81.9102730 145.4576439  39.5114585  81.4390774 146.2722062
  38.6495617  82.5368497 145.6857700  43.2279084  73.5331271 141.7776800
  42.6108255  72.8078099 141.6809853  42.7595572  74.2940631 141.4343874
  35.0177630  67.7516695 140.8998104  34.1407096  67.6305496 140.5360351
  35.4935383  66.9602774 140.6476993  38.2041556  80.1042986 148.1460625
  37.4209078  80.6464666 148.2398849  38.9034301  80.6216965 148.5454866
  42.5967987  74.6709302 148.3633254  41.6624266  74.7910765 148.1937958
  42.7744655  73.7681769 148.0993263  44.0516769  76.8570443 145.8969440
  44.3276613  76.7427037 146.8063314  43.1821268  76.4587928 145.8581613
  40.6870833  81.1056794 149.5402253  40.8693228  80.2878450 150.0030006
  41.5103819  81.3224486 149.1027143  41.0212999  80.0324979 146.8017302
  41.5500765  79.5217433 146.1887464  41.2841218  79.7167509 147.6662835
  44.1153182  80.0041777 147.4172285  44.2890060  79.4388200 146.6646137
  44.6082074  80.8042672 147.2351775  49.9692573  72.7678200 149.0362585
  50.4123719  72.0185525 148.6381708  49.0919084  72.7588336 148.6536317
  45.1028355  79.3208541 144.5169183  45.7979259  79.9415234 144.7356498
  45.4451505  78.4703893 144.7921561  47.0019778  76.7708247 146.0456514
  47.5271102  77.1095520 145.3205834  46.9142130  75.8355262 145.8619648
  38.6860439  82.8380230 150.4051767  38.2465429  82.3456609 151.0984624
  39.4368556  82.2953198 150.1643842  35.6947818  76.9322163 145.9532529
  35.8435938  77.6157627 145.2999202  36.5014261  76.9127253 146.4681985
  49.5125438  74.2383438 151.4285032  50.3472330  74.6773242 151.5922592
  49.6484567  73.7622092 150.6093278  39.1943223  79.4270293 143.4244277
  38.6217190  80.0460480 142.9714749  39.7676017  79.9769655 143.9584199
  42.4140483  79.7107443 144.5552859  43.3471156  79.6453005 144.7585734
  42.3263696  80.5463710 144.0967392  45.0428500  79.0273314 141.5156807
  44.9642131  78.6933177 142.4092564  45.8638166  79.5195082 141.5148279
  39.5790022  70.7631106 140.7660329  40.5249126  70.6337314 140.8348747
  39.2004267  70.0245768 141.2429757  37.7632939  68.6881082 140.7015214
  36.8564394  68.3914195 140.7777928  38.0408920  68.3910900 139.8349501
  36.5331724  65.5468018 140.8427194  37.3950888  65.8722916 141.1023011
  36.7182068  64.7599513 140.3300259  42.6132451  76.3441309 141.1366785
  43.3168302  76.5491312 141.7524440  41.8895100  76.9118071 141.4015868
  43.4430262  72.0951170 147.2569055  43.3865463  72.5519722 146.4176687
  43.9958604  71.3341855 147.0791898  44.5219149  76.7823838 143.1865245
  45.3564753  76.3505037 143.0042720  44.3603492  76.6105852 144.1142139
  44.1765041  73.2855952 144.5521584  44.1213845  73.1200223 143.6110028
  43.5511096  73.9931984 144.7083774  53.1503424  87.2993489 153.2820422
  53.7881834  87.1800237 152.5783762  53.0324267  88.2474333 153.3408374
  49.9593130  87.2520917 153.2181946  49.6211642  87.1361982 152.3302481
  50.8282898  86.8512083 153.1982952  45.8179946  89.1056394 149.2078837
  45.2544811  89.0146331 148.4395125  45.7032341  88.2856298 149.6881330
  43.3644378  90.6007585 152.0463058  44.1565670  90.2598410 151.6309357
  43.6041028  90.7102561 152.9665211  51.3979505  92.7727362 144.5193302
  50.7467484  93.3581442 144.1327316  52.1923867  93.3033556 144.5788340
  45.3235132  89.8616499 144.9180437  46.0966008  89.3145486 144.7793312
  45.6760531  90.7260748 145.1294898  48.0876381  88.5669729 154.7148696
  48.6839953  88.3425752 154.0005658  48.1451353  87.8254475 155.3174143
  47.6601410  86.0209165 142.5498886  47.9126930  85.4990686 141.7882349
  46.7225969  85.8575310 142.6525570  52.7044692  85.0244943 150.3573630
  53.4907782  84.6064366 150.0064047  52.9683397  85.9291035 150.5255278
  52.8754770  90.4617793 145.0562287  52.2400603  90.5352420 145.7683191
  52.5452176  91.0511392 144.3781366  58.1053120  84.9620176 151.2606608
  58.8378292  84.3919393 151.4944438  57.3492475  84.5741777 151.7013114
  47.3797698  87.9237271 144.7523261  47.2633956  87.2482174 145.4204346
  47.4899958  87.4369645 143.9355414  49.7229239  87.3847418 148.4569951
  49.3587447  86.8578039 149.1682872  50.5796355  86.9945887 148.2836436
  55.6278540  78.6741750 155.7201217  55.2961865  79.5437161 155.4962432
  55.0324153  78.3578034 156.3995247  49.3634726  82.4137318 143.4531299
  49.5309129  83.2817554 143.8201770  49.1731895  82.5764599 142.5292588
  52.1210059  90.8754296 155.1197130  51.8210783  91.7779335 155.0112937
  51.7761119  90.6086480 155.9718282  45.5722541  87.3268093 151.1533834
  44.6473037  87.1944307 151.3611526  45.8206954  88.1062313 151.6503776
  55.5207203  83.3936837 152.7994567  54.6124081  83.3252245 152.5053328
  55.4694799  83.8708782 153.6276392  49.3423947  84.8694975 144.4377966
  49.2223572  85.3152026 145.2763446  48.6476536  85.2180293 143.8791504
  42.9331352  86.9701367 151.9877623  43.0623733  87.2235846 152.9017035
  42.2528803  87.5629075 151.6682278  47.1030839  97.6398617 148.0868097
  47.0254869  98.5906442 148.1656578  46.4992483  97.2944489 148.7443024
  57.3868850  81.5953275 154.5772441  56.7443230  81.8885808 153.9312235
  56.8823778  81.4806195 155.3825637  55.0409013  85.3416448 145.2658300
  55.9526869  85.5743835 145.0905998  54.5318660  85.9253492 144.7033379
  49.6780851  84.7013683 156.2753150  50.5242046  85.1253096 156.4187799
  49.6179489  84.0447307 156.9691713  53.6478596  90.3242267 152.6571882
  53.0187458  90.4887981 151.9547949  53.2604258  90.7383876 153.4282846
  57.5267828  91.2596705 150.0116245  56.8418866  91.6395606 149.4613279
  57.6111677  91.8692031 150.7448193  54.7818759  88.9056664 156.6111589
  54.9935654  89.5488423 155.9345970  54.7348507  88.0718980 156.1433519
  52.3844988  81.5174484 153.5148161  51.5229467  81.8155738 153.8064899
  52.4107423  81.7344883 152.5829194  49.2006558  90.0616675 149.9221967
  49.6644903  90.3404378 149.1326589  48.9363356  89.1600119 149.7395057
  46.0930639  89.6088156 152.8601730  46.6631996  90.0375425 152.2219214
  46.6838750  89.3270741 153.5585916  48.1375444  86.1839827 146.7311532
  48.8399487  86.6360871 147.1985458  47.8056072  85.5423646 147.3591425
  41.8800778  84.4423380 152.0328665  41.0899832  84.6980908 151.5568776
  42.3712025  85.2571718 152.1380706  43.8315523  84.8067959 148.9912142
  43.0346686  84.9186653 149.5095638  43.6041115  85.1454611 148.1253033
  63.9870580  88.1267367 151.1318918  63.2334289  87.5574766 150.9762922
  64.1218121  88.0930032 152.0789552  49.3769208  92.9980770 146.8073637
  49.2414883  93.8432306 147.2358485  49.9179021  93.2000047 146.0439571
  42.8298606  90.5156208 147.3801562  43.3423126  91.3099458 147.5307127
  43.4821318  89.8182498 147.3135164  44.6393490  93.6321964 149.4624315
  44.8160119  94.5539929 149.2745299  45.4350324  93.3180383 149.8918695
  40.7947522  88.8444862 148.1561133  41.6322744  89.2541870 147.9394840
  40.9725790  87.9044304 148.1261326  52.6911954  86.5119943 143.8444966
  52.1758578  87.2824547 144.0833353  52.4189263  85.8385079 144.4678027
  50.2759066  81.3569644 148.9030204  49.4200662  80.9676494 148.7235843
  50.6886017  81.4361604 148.0429989  51.8058212  78.8915987 153.3021764
  51.3023008  78.8546122 152.4889569  52.0988819  79.8008730 153.3618420
  48.0501098  78.9754717 152.3087945  48.9154095  78.7797525 151.9493835
  48.1178607  78.7465068 153.2357302  57.6646229  89.2652297 145.7798139
  56.8875671  88.9263457 145.3353301  58.3437710  89.2704921 145.1053104
  52.4798258  84.3847035 145.6704747  52.1748393  84.6993184 146.5214890
  53.4328700  84.4628455 145.7132080  50.9244689  90.5437258 147.3197701
  50.3966051  89.8090018 147.0070938  50.4232192  91.3211935 147.0737669
  55.9037536  88.7386279 152.4364747  55.2461210  89.4285540 152.5244876
  56.7077935  89.1282711 152.7798733  45.6563417  81.2056924 149.6804312
  46.2307169  80.9832106 148.9477505  46.2434400  81.2745619 150.4332914
  54.7142994  87.0930651 150.4868689  55.2274876  87.7260643 150.9890398
  55.3644218  86.4931847 150.1212049  45.9833004  83.2361386 143.7000197
  45.1470316  83.5736072 144.0209472  45.8437774  83.1010365 142.7627334
  47.9586085  78.0798173 148.4079382  47.3050497  77.7647191 147.7835996
  47.9166559  77.4573914 149.1339205  49.0697290  88.3617468 140.3232674
  48.1624351  88.1306722 140.5223823  49.5668322  87.5655088 140.5106655
  51.9765369  97.0714976 143.2429360  51.3027067  97.3746672 143.8514318
  52.3631191  97.8744056 142.8934817  51.1923825  84.5680107 152.7327029
  50.2746387  84.7895054 152.5748717  51.6083969  84.6426417 151.8738737
  51.9758873  85.9671523 147.8629710  52.7230692  86.4792920 147.5536832
  52.2450462  85.6455575 148.7234103  50.2485523  88.4630063 144.8456664
  49.3396742  88.1789096 144.9429134  50.2780607  88.8829142 143.9859971
  55.4804791  92.0736653 148.6147831  55.0267118  91.2327563 148.6713022
  54.8498757  92.7098051 148.9522612  54.4237710  83.0028639 149.8448499
  53.6860467  82.4906025 150.1758741  54.6764484  82.5629020 149.0331776
  53.9237730  93.9113150 149.5497650  54.2160704  94.4718207 148.8310015
  54.4336350  94.2041711 150.3050809  54.5249337  75.7804891 150.4390268
  54.8308214  74.9202254 150.1516183  55.2501942  76.3722511 150.2389262
  40.8173693  86.1835577 148.8271866  40.6198093  85.5904938 148.1022933
  40.2620357  85.8787788 149.5447805  48.7970417  86.0758684 150.9466459
  48.8519027  85.1232520 150.8708936  47.9861619  86.2318123 151.4307758
  49.9461611  90.0038807 142.1844742  49.5081041  89.2874666 141.7250380
  50.6872052  90.2314922 141.6229834  46.7362777  84.6935744 148.7056838
  45.9230643  84.9929914 149.1122030  47.2321771  84.2991432 149.4231320
  48.8871355  94.6893501 150.6391103  48.8447534  94.9154347 149.7099635
  49.8034054  94.4556875 150.7876904  52.3336989  85.1577568 157.5371732
  52.6886376  85.3849041 158.3966198  52.9809120  85.4895945 156.9148987
  58.0634726  88.2796004 148.2421061  57.9252624  88.4697600 147.3142250
  57.7070945  89.0415387 148.6989112  46.2276852  82.2654099 154.3218073
  46.8676231  82.1242858 153.6241036  45.3954382  81.9788613 153.9456675
  58.0904105  90.3472531 153.2532332  58.5240612  90.2547820 154.1015387
  58.8035686  90.3230032 152.6152348  47.0037156  91.5656530 150.4353065
  47.7977754  91.0706850 150.2335640  46.2928848  91.0374393 150.0720771
  43.3119919  85.7099611 146.5112818  42.3817507  85.6484067 146.7282780
  43.4077391  85.1875564 145.7149459  43.2305468  82.2354424 149.0991060
  43.4912286  83.1499757 148.9900220  44.0522641  81.7678867 149.2487673
  50.7820100  88.1134887 156.3452365  51.7112160  88.2646047 156.1721332
  50.3611130  88.2018908 155.4901011  49.5808432  92.1385552 154.1150903
  49.4419517  91.7704336 154.9876841  48.7923028  92.6533191 153.9434860
  50.1756584  97.2394648 145.4576439  50.3508339  96.7682691 146.2722062
  49.4889372  97.8660414 145.6857700  51.1313647  91.5167154 151.5039740
  50.7963479  91.4767924 152.3997390  50.6317593  90.8511870 151.0310151
  54.0672839  88.8623189 141.7776800  53.4502009  88.1370017 141.6809853
  53.5989327  89.6232549 141.4343874  47.7340191  86.6354744 156.5176001
  48.4439810  85.9947936 156.4762620  47.6909500  86.8867638 157.4402182
  45.8571384  83.0808613 140.8998104  44.9800851  82.9597414 140.5360351
  46.3329137  82.2894691 140.6476993  37.3773525  87.8685773 150.9939611
  38.0644564  87.5547503 150.4060627  37.2221653  88.7727137 150.7206863
  49.0435310  95.4334903 148.1460625  48.2602832  95.9756583 148.2398849
  49.7428056  95.9508883 148.5454866  52.3531961  81.2429533 150.7894830
  52.8500660  80.4899495 150.4695900  51.5818942  81.2793849 150.2238039
  60.2061718  86.9469898 152.4313122  60.1951594  87.8294614 152.0607055
  59.3379097  86.5941449 152.2367659  53.4361741  90.0001220 148.3633254
  52.5018020  90.1202682 148.1937958  53.6138410  89.0973687 148.0993263
  48.9366929  83.3846916 150.5166515  48.5664717  82.8317956 151.2047420
  49.4326022  82.7805049 149.9641515  56.8234293  85.8418539 148.8983288
  57.2894745  86.6746531 148.8243590  57.2741793  85.3763521 149.6028546
  54.8910524  92.1862361 145.8969440  55.1670368  92.0718955 146.8063314
  54.0215022  91.7879845 145.8581613  54.7950955  78.2099126 152.9374189
  53.8814035  78.4403353 153.1056396  55.2244057  78.2937570 153.7888221
  54.5657414  86.3989018 155.4374083  53.9128864  86.6464926 154.7826536
  54.9437794  85.5853156 155.1036560  51.5264588  96.4348711 149.5402253
  51.7086982  95.6170367 150.0030006  52.3497574  96.6516404 149.1027143
  51.8606753  95.3616897 146.8017302  52.3894520  94.8509351 146.1887464
  52.1234973  95.0459427 147.6662835  45.2162501  96.4132013 149.5615078
  44.5472876  96.8978141 149.0779118  45.0775371  96.6601234 150.4758456
  40.5850078  84.6750468 146.3411010  40.8803519  83.7661147 146.2878064
  39.6838114  84.6538208 146.0192012  52.4936157  96.3957732 153.1461418
  52.3687296  95.5947472 152.6372364  53.1515248  96.8903926 152.6575388
  44.1144325  82.7506465 152.3238559  43.3930911  83.3642432 152.1846032
  44.9037581  83.2864230 152.2455204  42.3137920  82.3564566 146.4650335
  41.9850626  81.4761945 146.2825441  42.6677291  82.3012235 147.3526724
  51.5617499  93.9919469 150.9745321  51.4142461  93.0636176 151.1552891
  52.3870992  94.0139559 150.4902396  45.4279743  82.6437536 146.8325813
  45.7675816  83.1723457 146.1104421  45.8751863  82.9817942 147.6084379
  55.1651621  94.8148027 152.0610193  56.0898168  94.6090889 151.9234645
  54.9966924  94.5664428 152.9699535  47.4147890  81.1412157 145.0319106
  48.1356253  81.5193410 144.5282822  46.7913194  81.8601034 145.1354083
  51.5579013  81.8457306 145.9677438  51.7742627  82.7281944 145.6666266
  51.0773080  81.4543520 145.2383080  46.2978234  84.8043019 152.5448182
  46.1522815  85.1183322 153.4372464  45.8203438  85.4227920 151.9919081
  48.1574617  81.7945567 152.5929072  48.1436186  80.8986661 152.2561370
  48.8747045  81.8016231 153.2267358  50.0100748  82.2282908 154.6382199
  49.7518526  83.1499978 154.6366530  49.4785788  81.8313342 155.3282664
  54.9546937  95.3333695 147.4172285  55.1283814  94.7680117 146.6646137
  55.4475828  96.1334590 147.2351775  47.5611513  80.6759948 147.8616642
  47.6827424  79.7476594 148.0607530  47.2713556  80.6898634 146.9494958
  50.4302704  78.3614858 150.9983362  50.4524400  78.4254191 150.0435342
  50.8470763  77.5219367 151.1923868  60.8086328  88.0970118 149.0362585
  61.2517474  87.3477443 148.6381708  59.9312838  88.0880254 148.6536317
  55.9422109  94.6500459 144.5169183  56.6373014  95.2707152 144.7356498
  56.2845259  93.7995810 144.7921561  57.8413532  92.1000165 146.0456514
  58.3664856  92.4387437 145.3205834  57.7535885  91.1647180 145.8619648
  49.5254193  98.1672148 150.4051767  49.0859183  97.6748527 151.0984624
  50.2762310  97.6245116 150.1643842  42.0046532  94.3583689 150.4076395
  42.8304552  94.0587461 150.0275039  41.6540584  93.5891311 150.8566184
  46.9728065  93.7110157 152.4774069  46.3508075  93.0480862 152.1776297
  47.6432932  93.7371289 151.7947716  46.5341572  92.2614080 145.9532529
  46.6829693  92.9449545 145.2999202  47.3408016  92.2419170 146.4681985
  60.3519193  89.5675356 151.4285032  61.1866084  90.0065160 151.5922592
  60.4878321  89.0914009 150.6093278  44.2894205  88.2879258 146.9593598
  44.0440247  87.3841588 147.1573808  44.4590120  88.2896408 146.0173076
  43.5589853  84.0207616 144.4579760  42.8659098  84.0951971 143.8019796
  43.3141605  83.2567959 144.9801277  52.2303509  75.5803217 151.8619250
  52.5105263  74.9126406 152.4879677  53.0154116  75.7732313 151.3493914
  50.0336978  94.7562211 143.4244277  49.4610945  95.3752398 142.9714749
  50.6069771  95.3061573 143.9584199  56.1012368  84.0020851 155.6090825
  57.0529790  84.1018949 155.6303050  55.9315818  83.2099119 156.1188910
  54.1226747  81.0876434 155.7950226  53.5276679  81.3681447 155.0996715
  53.8376444  81.5770335 156.5666968  53.2534238  95.0399361 144.5552859
  54.1864911  94.9744923 144.7585734  53.1657450  95.8755628 144.0967392
  55.8822254  94.3565231 141.5156807  55.8035886  94.0225095 142.4092564
  56.7031921  94.8486999 141.5148279  58.5800445  87.2226971 154.7233125
  58.5476765  86.2842971 154.9092809  59.1901069  87.3011007 153.9898950
  50.4183776  86.0923024 140.7660329  51.3642881  85.9629232 140.8348747
  50.0398021  85.3537685 141.2429757  58.7294934  84.0138014 154.7691408
  58.2133982  83.2296471 154.5821337  59.6134882  83.6856731 154.9337928
  56.3905661  77.7579030 150.7287221  56.1930482  77.4494118 151.6130553
  57.0005366  78.4840669 150.8585151  62.4792292  86.4250840 154.4613613
  61.7525456  86.2906805 153.8530105  62.0639579  86.7327669 155.2670331
  48.6026693  84.0173000 140.7015214  47.6958149  83.7206113 140.7777928
  48.8802674  83.7202818 139.8349501  39.5204634  85.3379363 151.1514261
  39.2007418  84.4844672 150.8588635  38.9738062  85.5527942 151.9072228
  43.2984541  88.0541804 154.8683767  43.5170551  88.9858912 154.8871801
  43.7110315  87.6949779 155.6538571  50.2188759  78.5609890 146.8559456
  49.4089487  78.2156975 147.2314702  50.9073176  78.2517433 147.4447067
  52.1479307  77.6387936 148.4783752  52.7010346  78.0583390 149.1373775
  52.3849394  76.7123685 148.5206708  47.3725478  80.8759935 140.8427194
  48.2344642  81.2014834 141.1023011  47.5575822  80.0891431 140.3300259
  55.5258114  79.7488462 147.9862417  54.9456784  80.4073266 147.6040469
  55.2594047  78.9265806 147.5749834  53.9761681  79.1493519 150.1883737
  54.4761459  79.2610054 149.3798056  54.6197289  78.8454572 150.8284545
  41.3029636  88.8900529 150.9973397  41.2800324  88.9888216 150.0455280
  41.6130273  89.7365679 151.3190563  54.3082992  81.9088552 147.0418765
  53.4208848  82.1938203 146.8238960  54.7236982  81.7482315 146.1946042
  57.6597529  81.9335073 150.7573104  58.4357919  82.4231525 151.0297721
  56.9345663  82.3593127 151.2144974  60.0970087  82.6462692 151.8147045
  60.6914578  82.4058428 151.1040353  60.1696671  81.9269823 152.4420581
  53.4526206  91.6733227 141.1366785  54.1562056  91.8783229 141.7524440
  52.7288855  92.2409989 141.4015868  54.2824016  87.4243088 147.2569055
  54.2259218  87.8811639 146.4176687  54.8352359  86.6633773 147.0791898
  58.0928822  83.2132820 148.0819175  57.8365756  82.8129455 148.9127382
  57.4681690  83.9276614 147.9569314  62.4041160  85.9528893 150.5890466
  61.8440718  86.0222082 151.3622028  61.7984663  85.7769878 149.8689962
  55.3612903  92.1115756 143.1865245  56.1958507  91.6796954 143.0042720
  55.1997246  91.9397770 144.1142139  55.0158796  88.6147869 144.5521584
  54.9607599  88.4492141 143.6110028  54.3904851  89.3223902 144.7083774
  48.3254921  78.1155978 144.1306903  48.3133591  79.0597818 144.2875173
  49.2178343  77.9326124 143.8366364  48.2544485  96.7924869 152.2174659
  47.3040116  96.7926730 152.1039032  48.5576971  96.0457603 151.7010694
  52.1407040  74.7098755 148.3852839  51.3739436  74.1557242 148.5309522
  52.5517745  74.7820624 149.2466991  56.1628886 105.1908416 144.9180437
  56.9359762 104.6437403 144.7793312  56.5154285 106.0552666 145.1294898
  58.4995164 101.3501083 142.5498886  58.7520685 100.8282604 141.7882349
  57.5619723 101.1867228 142.6525570  58.2191453 103.2529188 144.7523261
  58.1027711 102.5774092 145.4204346  58.3293713 102.7661562 143.9355414
  60.2028481  97.7429235 143.4531299  60.3702883  98.6109472 143.8201770
  60.0125650  97.9056517 142.5292588  60.1817702 100.1986893 144.4377966
  60.0617327 100.6443944 145.2763446  59.4870290 100.5472210 143.8791504
  65.8802768 100.6708366 145.2658300  66.7920624 100.9035753 145.0905998
  65.3712415 101.2545410 144.7033379  58.9769198 101.5131745 146.7311532
  59.6793241 101.9652789 147.1985458  58.6449827 100.8715564 147.3591425
  54.6709277 100.1359877 148.9912142  53.8740441 100.2478571 149.5095638
  54.4434870 100.4746529 148.1253033  51.6341277 104.1736780 148.1561133
  52.4716499 104.5833788 147.9394840  51.8119545 103.2336222 148.1261326
  63.5305709 101.8411860 143.8444966  63.0152332 102.6116465 144.0833353
  63.2583017 101.1676997 144.4678027  61.1152820  96.6861561 148.9030204
  60.2594416  96.2968412 148.7235843  61.5279772  96.7653522 148.0429989
  63.3192012  99.7138953 145.6704747  63.0142148 100.0285102 146.5214890
  64.2722454  99.7920372 145.7132080  56.4957172  96.5348842 149.6804312
  57.0700923  96.3124024 148.9477505  57.0828154  96.6037537 150.4332914
  56.8226759  98.5653303 143.7000197  55.9864071  98.9027990 144.0209472
  56.6831528  98.4302283 142.7627334  58.7979839  93.4090091 148.4079382
  58.1444252  93.0939108 147.7835996  58.7560313  92.7865832 149.1339205
  59.9091044 103.6909386 140.3232674  59.0018106 103.4598640 140.5223823
  60.4062076 102.8947005 140.5106655  61.0879278 103.7921981 144.8456664
  60.1790497 103.5081014 144.9429134  61.1174361 104.2121060 143.9859971
  65.3643092  91.1096809 150.4390268  65.6701969  90.2494172 150.1516183
  66.0895697  91.7014429 150.2389262  51.6567448 101.5127495 148.8271866
  51.4591848 100.9196856 148.1022933  51.1014112 101.2079705 149.5447805
  60.7855365 105.3330725 142.1844742  60.3474795 104.6166584 141.7250380
  61.5265806 105.5606839 141.6229834  57.5756532 100.0227661 148.7056838
  56.7624397 100.3221832 149.1122030  58.0715526  99.6283350 149.4231320
  54.1513674 101.0391529 146.5112818  53.2211262 100.9775985 146.7282780
  54.2471146 100.5167482 145.7149459  54.0699223  97.5646342 149.0991060
  54.3306040  98.4791675 148.9900220  54.8916395  97.0970784 149.2487673
  64.9066593 104.1915106 141.7776800  64.2895764 103.4661934 141.6809853
  64.4383081 104.9524467 141.4343874  56.6965139  98.4100531 140.8998104
  55.8194605  98.2889331 140.5360351  57.1722892  97.6186609 140.6476993
  48.2167279 103.1977690 150.9939611  48.9038319 102.8839420 150.4060627
  48.0615408 104.1019055 150.7206863  51.4243833 100.0042386 146.3411010
  51.7197274  99.0953064 146.2878064  50.5231869  99.9830125 146.0192012
  53.1531674  97.6856484 146.4650335  52.8244381  96.8053862 146.2825441
  53.5071045  97.6304152 147.3526724  56.2673498  97.9729453 146.8325813
  56.6069570  98.5015375 146.1104421  56.7145618  98.3109859 147.6084379
  58.2541645  96.4704075 145.0319106  58.9750007  96.8485328 144.5282822
  57.6306949  97.1892952 145.1354083  62.3972768  97.1749224 145.9677438
  62.6136382  98.0573862 145.6666266  61.9166835  96.7835437 145.2383080
  58.4005268  96.0051865 147.8616642  58.5221179  95.0768512 148.0607530
  58.1107310  96.0190551 146.9494958  61.2696458  93.6906776 150.9983362
  61.2918155  93.7546109 150.0435342  61.6864517  92.8511284 151.1923868
  55.1287960 103.6171176 146.9593598  54.8834002 102.7133506 147.1573808
  55.2983874 103.6188326 146.0173076  54.3983607  99.3499533 144.4579760
  53.7052852  99.4243888 143.8019796  54.1535359  98.5859877 144.9801277
  63.0697264  90.9095135 151.8619250  63.3499017  90.2418324 152.4879677
  63.8547871  91.1024230 151.3493914  61.2577531 101.4214941 140.7660329
  62.2036635 101.2921149 140.8348747  60.8791776 100.6829603 141.2429757
  59.4420448  99.3464918 140.7015214  58.5351903  99.0498030 140.7777928
  59.7196429  99.0494736 139.8349501  50.3598388 100.6671281 151.1514261
  50.0401173  99.8136589 150.8588635  49.8131816 100.8819859 151.9072228
  61.0582514  93.8901807 146.8559456  60.2483242  93.5448892 147.2314702
  61.7466931  93.5809351 147.4447067  62.9873062  92.9679854 148.4783752
  63.5404100  93.3875308 149.1373775  63.2243148  92.0415602 148.5206708
  58.2119232  96.2051853 140.8427194  59.0738396  96.5306751 141.1023011
  58.3969577  95.4183349 140.3300259  66.3651869  95.0780379 147.9862417
  65.7850538  95.7365183 147.6040469  66.0987802  94.2557724 147.5749834
  65.1476747  97.2380470 147.0418765  64.2602602  97.5230120 146.8238960
  65.5630736  97.0774233 146.1946042  64.2919960 107.0025144 141.1366785
  64.9955811 107.2075147 141.7524440  63.5682609 107.5701906 141.4015868
  59.1648676  93.4447896 144.1306903  59.1527345  94.3889736 144.2875173
  60.0572097  93.2618041 143.8366364  62.9800795  90.0390673 148.3852839
  62.2133191  89.4849159 148.5309522  63.3911500  90.1112541 149.2466991
  40.5585751  54.4497566 131.2438609  39.9073731  55.0351647 130.8572623
  41.3530114  54.9803761 131.3033646  34.4841379  51.5386704 131.6425743
  35.2572255  50.9915691 131.5038619  34.8366777  52.4030953 131.8540205
  36.8207656  47.6979370 129.2744193  37.0733177  47.1760891 128.5127656
  35.8832215  47.5345515 129.3770877  42.0361017  52.1387998 131.7807593
  41.4006850  52.2122625 132.4928498  41.7058423  52.7281597 131.1026672
  36.2637086  59.3168822 134.8113404  36.1861116  60.2676647 134.8901884
  35.6598730  58.9714694 135.4688330  44.2015260  47.0186653 131.9903607
  45.1133116  47.2514040 131.8151304  43.6924907  47.6023697 131.4278685
  46.6874074  52.9366909 136.7361552  46.0025112  53.3165811 136.1858585
  46.7717924  53.5462236 137.4693500  53.1476827  49.8037572 137.8564224
  52.3940535  49.2344970 137.7008229  53.2824368  49.7700237 138.8034859
  38.5375455  54.6750975 133.5318944  38.4021130  55.5202510 133.9603791
  39.0785267  54.8770252 132.7684877  41.8518201  48.1890148 130.5690272
  41.3364825  48.9594752 130.8078660  41.5795510  47.5155284 131.1923334
  46.8252475  50.9422502 132.5043446  46.0481918  50.6033662 132.0598608
  47.5043956  50.9475126 131.8298411  40.0850936  52.2207463 134.0443007
  39.5572298  51.4860223 133.7316245  39.5838439  52.9982139 133.7982976
  38.2303536  50.0387673 127.0477980  37.3230598  49.8076927 127.2469129
  38.7274568  49.2425293 127.2351962  41.1371615  58.7485181 129.9674667
  40.4633314  59.0516877 130.5759624  41.5237437  59.5514261 129.6180124
  39.4091770  50.1400268 131.5701970  38.5002989  49.8559301 131.6674440
  39.4386854  50.5599347 130.7105277  44.6411037  53.7506858 135.3393138
  44.1873364  52.9097768 135.3958328  44.0105004  54.3868256 135.6767918
  43.0843977  55.5883354 136.2742956  43.3766951  56.1488412 135.5555322
  43.5942597  55.8811915 137.0296115  39.1067858  51.6809012 128.9090049
  38.6687288  50.9644871 128.4495686  39.8478299  51.9085127 128.3475140
  47.2240972  49.9566209 134.9666368  47.0858871  50.1467805 134.0387557
  46.8677191  50.7185592 135.4234419  39.3362830  58.9164853 132.1821746
  39.5114586  58.4452896 132.9967368  38.6495618  59.5430619 132.4103006
  43.2279085  50.5393394 128.5022107  42.6108256  49.8140222 128.4055159
  42.7595574  51.3002754 128.1589181  35.0177631  44.7578818 127.6243411
  34.1407098  44.6367619 127.2605658  35.4935384  43.9664896 127.3722300
  38.2041557  57.1105108 134.8705931  37.4209079  57.6526788 134.9644156
  38.9034302  57.6279088 135.2700173  42.5967988  51.6771425 135.0878560
  41.6624267  51.7972887 134.9183265  42.7744657  50.7743892 134.8238570
  44.0516770  53.8632565 132.6214746  44.3276614  53.7489160 133.5308620
  43.1821269  53.4650050 132.5826919  40.6870835  58.1118916 136.2647560
  40.8693229  57.2940572 136.7275312  41.5103821  58.3286609 135.8272450
  41.0213000  57.0387101 133.5262608  41.5500766  56.5279556 132.9132771
  41.2841220  56.7229632 134.3908142  44.1153184  57.0103900 134.1417591
  44.2890061  56.4450322 133.3891444  44.6082075  57.8104795 133.9597081
  49.9692575  49.7740323 135.7607891  50.4123721  49.0247648 135.3627014
  49.0919085  49.7650459 135.3781623  45.1028356  56.3270664 131.2414490
  45.7979261  56.9477357 131.4601804  45.4451506  55.4766015 131.5166868
  47.0019779  53.7770370 132.7701821  47.5271103  54.1157642 132.0451141
  46.9142132  52.8417385 132.5864955  38.6860440  59.8442353 137.1297074
  38.2465430  59.3518732 137.8229930  39.4368557  59.3015321 136.8889149
  35.6947819  53.9384285 132.6777836  35.8435939  54.6219750 132.0244509
  36.5014262  53.9189375 133.1927292  49.5125439  51.2445561 138.1530339
  50.3472331  51.6835365 138.3167899  49.6484568  50.7684214 137.3338585
  39.1943224  56.4332416 130.1489583  38.6217192  57.0522603 129.6960055
  39.7676018  56.9831777 130.6829505  42.4140484  56.7169566 131.2798166
  43.3471157  56.6515128 131.4831041  42.3263697  57.5525833 130.8212698
  45.0428501  56.0335436 128.2402113  44.9642132  55.6995300 129.1337871
  45.8638168  56.5257204 128.2393586  39.5790023  47.7693229 127.4905636
  40.5249128  47.6399437 127.5594054  39.2004268  47.0307890 127.9675064
  37.7632940  45.6943205 127.4260521  36.8564396  45.3976318 127.5023235
  38.0408921  45.3973023 126.5594807  36.5331725  42.5530140 127.5672500
  37.3950889  42.8785038 127.8268318  36.7182069  41.7661636 127.0545566
  42.6132453  53.3503432 127.8612091  43.3168303  53.5553434 128.4769747
  41.8895101  53.9180194 128.1261175  43.4430263  49.1013293 133.9814362
  43.3865464  49.5581844 133.1421994  43.9958605  48.3403977 133.8037204
  44.5219150  53.7885961 129.9110552  45.3564754  53.3567159 129.7288026
  44.3603493  53.6167975 130.8387446  44.1765042  50.2918074 131.2766891
  44.1213846  50.1262346 130.3355335  43.5511098  50.9994107 131.4329081
  53.1503425  64.3055612 140.0065728  53.7881835  64.1862359 139.3029068
  53.0324268  65.2536456 140.0653680  49.9593132  64.2583040 139.9427253
  49.6211643  64.1424105 139.0547788  50.8282900  63.8574205 139.9228259
  45.8179947  66.1118516 135.9324144  45.2544812  66.0208453 135.1640432
  45.7032342  65.2918421 136.4126636  50.4412915  65.4117892 145.9013459
  50.4301555  65.0170690 145.0293962  50.6033554  64.6783964 146.4947230
  43.3644379  67.6069708 138.7708364  44.1565671  67.2660533 138.3554664
  43.6041029  67.7164683 139.6910518  51.3979506  69.7789484 131.2438609
  50.7467486  70.3643565 130.8572623  52.1923869  70.3095679 131.3033646
  45.3235133  66.8678621 131.6425743  46.0966009  66.3207608 131.5038619
  45.6760532  67.7322871 131.8540205  47.1620176  68.1955004 144.8492642
  46.8710042  69.1000634 144.7339309  47.7977160  68.2371531 145.5636712
  48.0876382  65.5731852 141.4394002  48.6839955  65.3487874 140.7250965
  48.1451354  64.8316598 142.0419450  47.6601411  63.0271287 129.2744193
  47.9126932  62.5052809 128.5127656  46.7225970  62.8637433 129.3770877
  52.7044694  62.0307066 137.0818936  53.4907783  61.6126489 136.7309353
  52.9683398  62.9353158 137.2500585  52.8754771  67.4679916 131.7807593
  52.2400604  67.5414543 132.4928498  52.5452177  68.0573515 131.1026672
  58.1053121  61.9682299 137.9851915  58.8378293  61.3981516 138.2189744
  57.3492477  61.5803899 138.4258420  47.3797700  64.9299393 131.4768568
  47.2633958  64.2544297 132.1449652  47.4899960  64.4431767 130.6600721
  49.7229241  64.3909540 135.1815257  49.3587448  63.8640161 135.8928179
  50.5796356  64.0008010 135.0081743  55.6278541  55.6803873 142.4446523
  55.2961866  56.5499284 142.2207738  55.0324155  55.3640157 143.1240554
  49.3634728  59.4199440 130.1776606  49.5309130  60.2879677 130.5447077
  49.1731897  59.5826722 129.2537895  52.1210061  67.8816419 141.8442436
  51.8210784  68.7841458 141.7358243  51.7761120  67.6148602 142.6963589
  45.5722542  64.3330216 137.8779141  44.6473039  64.2006430 138.0856832
  45.8206955  65.1124435 138.3749083  55.5207205  60.3998959 139.5239873
  54.6124082  60.3314368 139.2298634  55.4694800  60.8770904 140.3521699
  49.3423948  61.8757098 131.1623273  49.2223574  62.3214148 132.0008753
  48.6476537  62.2242415 130.6036811  42.9331353  63.9763489 138.7122930
  43.0623734  64.2297968 139.6262341  42.2528805  64.5691197 138.3927585
  47.1030841  74.6460739 134.8113404  47.0254870  75.5968565 134.8901884
  46.4992484  74.3006612 135.4688330  57.3868851  58.6015398 141.3017747
  56.7443231  58.8947931 140.6557542  56.8823779  58.4868318 142.1070944
  55.0409015  62.3478571 131.9903607  55.9526871  62.5805958 131.8151304
  54.5318662  62.9315615 131.4278685  53.3249782  66.7703199 145.6264899
  53.7333138  66.3285609 144.8819532  52.6027044  66.1955826 145.8799092
  49.6780852  61.7075805 142.9998456  50.5242047  62.1315219 143.1433105
  49.6179490  61.0509430 143.6937019  53.6478597  67.3304389 139.3817188
  53.0187459  67.4950103 138.6793256  53.2604259  67.7445999 140.1528152
  57.5267829  68.2658827 136.7361552  56.8418867  68.6457729 136.1858585
  57.6111678  68.8754154 137.4693500  54.7818760  65.9118786 143.3356895
  54.9935656  66.5550546 142.6591277  54.7348509  65.0781103 142.8678826
  52.3844989  58.5236607 140.2393468  51.5229468  58.8217860 140.5310205
  52.4107424  58.7407006 139.3074500  49.2006559  67.0678797 136.6467273
  49.6644904  67.3466500 135.8571896  48.9363357  66.1662242 136.4640364
  46.0930640  66.6150279 139.5847036  46.6631997  67.0437547 138.9464521
  46.6838752  66.3332864 140.2831222  48.1375445  63.1901950 133.4556838
  48.8399488  63.6422993 133.9230765  47.8056073  62.5485769 134.0836732
  41.8800779  61.4485502 138.7573972  41.0899833  61.7043031 138.2814083
  42.3712026  62.2633840 138.8626012  55.8964588  68.7890742 141.5079253
  56.7182032  68.3870929 141.2261934  55.8926991  68.6858976 142.4595369
  43.8315524  61.8130082 135.7157449  43.0346687  61.9248776 136.2340944
  43.6041116  62.1516734 134.8498339  49.6621192  68.3374785 143.6639963
  49.7265624  68.7995192 144.4998135  48.9532116  67.7072150 143.7922273
  63.9870581  65.1329490 137.8564224  63.2334290  64.5636888 137.7008229
  64.1218123  65.0992155 138.8034859  49.3769209  70.0042892 133.5318944
  49.2414884  70.8494428 133.9603791  49.9179022  70.2062170 132.7684877
  42.8298607  67.5218330 134.1046869  43.3423127  68.3161581 134.2552433
  43.4821320  66.8244621 134.0380470  44.6393492  70.6384087 136.1869622
  44.8160120  71.5602051 135.9990606  45.4350325  70.3242506 136.6164002
  51.0037686  70.6266459 147.6619286  50.5601540  69.8402837 147.3440190
  51.6654899  70.8145609 146.9963176  45.7624807  72.1562260 142.1879964
  46.3132232  72.0279324 141.4156958  44.9236283  72.4557150 141.8374857
  53.1018924  70.9069259 145.6900687  53.0837399  71.7278140 145.1980956
  54.0238844  70.7823334 145.9150828  49.5591978  68.4213388 146.5324195
  50.0920315  67.6601676 146.3023503  49.0306059  68.1287040 147.2748350
  40.7947524  65.8506985 134.8806439  41.6322746  66.2603993 134.6640147
  40.9725791  64.9106427 134.8506633  52.6911956  63.5182065 130.5690272
  52.1758579  64.2886670 130.8078660  52.4189264  62.8447202 131.1923334
  50.2759067  58.3631766 135.6275511  49.4200663  57.9738617 135.4481149
  50.6886019  58.4423727 134.7675296  51.8058213  55.8978109 140.0267070
  51.3023009  55.8608245 139.2134876  52.0988820  56.8070852 140.0863727
  48.0501099  55.9816839 139.0333252  48.9154096  55.7859648 138.6739142
  48.1178608  55.7527191 139.9602609  57.6646230  66.2714420 132.5043446
  56.8875673  65.9325580 132.0598608  58.3437711  66.2767043 131.8298411
  52.4798259  61.3909157 132.3950053  52.1748394  61.7055307 133.2460197
  53.4328701  61.4690577 132.4377386  50.9244691  67.5499381 134.0443007
  50.3966052  66.8152140 133.7316245  50.4232193  68.3274057 133.7982976
  55.9037537  65.7448401 139.1610054  55.2461211  66.4347663 139.2490182
  56.7077936  66.1344833 139.5044040  45.6563418  58.2119047 136.4049619
  46.2307170  57.9894229 135.6722812  46.2434401  58.2807742 137.1578220
  54.7142996  64.0992774 137.2113995  55.2274877  64.7322766 137.7135705
  55.3644219  63.4993969 136.8457355  45.9833005  60.2423508 130.4245504
  45.1470318  60.5798195 130.7454779  45.8437775  60.1072488 129.4872641
  47.9586086  55.0860296 135.1324688  47.3050498  54.7709313 134.5081303
  47.9166560  54.4636036 135.8584511  49.0697291  65.3679591 127.0477980
  48.1624353  65.1368845 127.2469129  49.5668323  64.5717210 127.2351962
  51.9765370  74.0777098 129.9674667  51.3027069  74.3808795 130.5759624
  52.3631192  74.8806179 129.6180124  51.1923826  61.5742230 139.4572336
  50.2746388  61.7957177 139.2994024  51.6083970  61.6488540 138.5984043
  51.9758874  62.9733645 134.5875016  52.7230693  63.4855042 134.2782138
  52.2450464  62.6517698 135.4479410  50.2485524  65.4692186 131.5701970
  49.3396744  65.1851219 131.6674440  50.2780608  65.8891264 130.7105277
  55.4804792  69.0798775 135.3393138  55.0267119  68.2389685 135.3958328
  54.8498758  69.7160174 135.6767918  54.4237711  60.0090761 136.5693805
  53.6860468  59.4968148 136.9004048  54.6764485  59.5691143 135.7577082
  53.9237731  70.9175272 136.2742956  54.2160705  71.4780329 135.5555322
  54.4336352  71.2103833 137.0296115  54.5249339  52.7867013 137.1635575
  54.8308215  51.9264377 136.8761490  55.2501943  53.3784634 136.9634569
  40.8173695  63.1897700 135.5517173  40.6198095  62.5967061 134.8268239
  40.2620359  62.8849910 136.2693111  48.7970418  63.0820807 137.6711766
  48.8519028  62.1294643 137.5954242  47.9861620  63.2380246 138.1553064
  49.9461612  67.0100930 128.9090049  49.5081042  66.2936789 128.4495686
  50.6872053  67.2377044 128.3475140  46.7362778  61.6997866 135.4302145
  45.9230644  61.9992037 135.8367337  47.2321773  61.3053555 136.1476627
  48.8871356  71.6955623 137.3636409  48.8447535  71.9216470 136.4344941
  49.8034055  71.4618998 137.5122211  52.3336990  62.1639691 144.2617039
  52.6886378  62.3911164 145.1211504  52.9809121  62.4958068 143.6394294
  58.0634727  65.2858127 134.9666368  57.9252626  65.4759723 134.0387557
  57.7070946  66.0477509 135.4234419  46.2276853  59.2716222 141.0463380
  46.8676232  59.1304981 140.3486343  45.3954384  58.9850735 140.6701982
  58.0904107  67.3534654 139.9777639  58.5240613  67.2609943 140.8260693
  58.8035687  67.3292154 139.3397655  47.0037157  68.5718652 137.1598372
  47.7977755  68.0768972 136.9580947  46.2928849  68.0436515 136.7966078
  51.8232001  70.9536748 141.5110740  51.8769024  71.5227684 142.2788456
  50.9546783  71.1238633 141.1464777  43.3119920  62.7161734 133.2358125
  42.3817509  62.6546189 133.4528087  43.4077392  62.1937687 132.4394766
  43.2305470  59.2416547 135.8236366  43.4912287  60.1561880 135.7145527
  44.0522642  58.7740989 135.9732979  58.9519656  67.3958354 142.5110525
  59.1455546  68.3004165 142.7569799  58.8520274  66.9365773 143.3449110
  54.0134765  67.5465097 148.0851405  53.8620271  67.3175649 147.1681489
  54.0039444  68.5035698 148.0982750  50.7820101  65.1197010 143.0697672
  51.7112161  65.2708169 142.8966639  50.3611131  65.2081031 142.2146318
  49.5808433  69.1447674 140.8396209  49.4419519  68.7766459 141.7122147
  48.7923029  69.6595314 140.6680167  50.1756585  74.2456771 132.1821746
  50.3508341  73.7744814 132.9967368  49.4889373  74.8722537 132.4103006
  51.1313648  68.5229277 138.2285047  50.7963481  68.4830047 139.1242697
  50.6317594  67.8573993 137.7555457  54.0672840  65.8685311 128.5022107
  53.4502010  65.1432139 128.4055159  53.5989328  66.6294672 128.1589181
  47.7340193  63.6416866 143.2421308  48.4439811  63.0010058 143.2007926
  47.6909501  63.8929761 144.1647489  55.7226971  70.5784220 146.1627887
  55.6639518  69.8943440 145.4958470  56.1246490  71.3203210 145.7108513
  44.7417670  77.3946133 138.9561606  44.9814268  78.0264658 139.6340624
  43.8986867  77.0434173 139.2426965  45.8571386  60.0870736 127.6243411
  44.9800852  59.9659536 127.2605658  46.3329139  59.2956814 127.3722300
  55.7244379  68.5423804 144.3941867  54.8371157  68.2049725 144.5168266
  56.2942930  67.8106835 144.6310632  37.3773526  64.8747895 137.7184918
  38.0644566  64.5609625 137.1305933  37.2221655  65.7789260 137.4452169
  49.2545532  73.2025256 141.3603110  49.1815704  74.0080227 141.8722414
  48.8122925  73.4017222 140.5351131  49.0435312  72.4397026 134.8705931
  48.2602834  72.9818706 134.9644156  49.7428057  72.9571006 135.2700173
  52.3531962  58.2491655 137.5140137  52.8500661  57.4961618 137.1941207
  51.5818943  58.2855972 136.9483346  60.2061719  63.9532021 139.1558428
  60.1951595  64.8356736 138.7852361  59.3379099  63.6003572 138.9612965
  51.7144216  73.1012090 143.5161269  52.4272188  73.7359555 143.4437170
  51.2234244  73.1975956 142.7001270  53.4361743  67.0063343 135.0878560
  52.5018021  67.1264805 134.9183265  53.6138411  66.1035809 134.8238570
  48.9366931  60.3909038 137.2411821  48.5664718  59.8380079 137.9292727
  49.4326023  59.7867172 136.6886821  56.8234294  62.8480662 135.6228594
  57.2894746  63.6808653 135.5488897  57.2741794  62.3825643 136.3273853
  46.7656129  70.8506533 144.3366839  47.4665589  71.4843016 144.4896234
  46.2951244  71.1921265 143.5762479  54.8910525  69.1924483 132.6214746
  55.1670369  69.0781078 133.5308620  54.0215024  68.7941968 132.5826919
  54.7950957  55.2161249 139.6619496  53.8814036  55.4465476 139.8301703
  55.2244058  55.2999693 140.5133528  54.5657415  63.4051141 142.1619390
  53.9128865  63.6527048 141.5071842  54.9437795  62.5915279 141.8281867
  51.5264589  73.4410834 136.2647560  51.7086984  72.6232490 136.7275312
  52.3497575  73.6578526 135.8272450  51.8606755  72.3679019 133.5262608
  52.3894521  71.8571474 132.9132771  52.1234974  72.0521549 134.3908142
  42.3623847  70.3842888 141.2697942  42.9477284  69.6386576 141.4025846
  42.1648686  70.6946845 142.1534606  45.2162502  73.4194136 136.2860384
  44.5472878  73.9040263 135.8024424  45.0775372  73.6663356 137.2003763
  49.3567771  75.4537879 142.8843043  49.9086079  75.6169501 143.6492128
  49.6973964  76.0442317 142.2123068  54.2078645  70.2799137 148.7391697
  54.7518549  70.8929095 148.2446652  53.6265490  70.8378715 149.2558710
  40.5850080  61.6812591 133.0656317  40.8803521  60.7723269 133.0123370
  39.6838115  61.6600330 132.7437319  52.4936158  73.4019855 139.8706725
  52.3687298  72.6009595 139.3617670  53.1515249  73.8966048 139.3820695
  44.1144327  59.7568587 139.0483865  43.3930912  60.3704555 138.9091338
  44.9037582  60.2926352 138.9700511  54.5571067  71.2028875 141.4986275
  53.6101402  71.0834226 141.4264602  54.9053840  70.3151373 141.5812536
  42.3137921  59.3626688 133.1895642  41.9850627  58.4824067 133.0070748
  42.6677292  59.3074357 134.0772031  51.5617500  70.9981591 137.6990627
  51.4142462  70.0698299 137.8798197  52.3870993  71.0201682 137.2147702
  45.4279744  59.6499658 133.5571119  45.7675817  60.1785579 132.8349728
  45.8751865  59.9880064 134.3329686  55.1651622  71.8210150 138.7855500
  56.0898169  71.6153011 138.6479951  54.9966925  71.5726551 139.6944841
  47.4147891  58.1474280 131.7564412  48.1356254  58.5255533 131.2528129
  46.7913196  58.8663157 131.8599390  51.5579014  58.8519429 132.6922744
  51.7742629  59.7344067 132.3911573  51.0773081  58.4605642 131.9628386
  46.2978236  61.8105142 139.2693489  46.1522816  62.1245445 140.1617771
  45.8203439  62.4290042 138.7164388  48.1574619  58.8007690 139.3174379
  48.1436187  57.9048783 138.9806677  48.8747047  58.8078354 139.9512665
  50.0100749  59.2345030 141.3627506  49.7518527  60.1562101 141.3611836
  49.4785790  58.8375465 142.0527970  54.9546938  72.3395817 134.1417591
  55.1283816  71.7742240 133.3891444  55.4475829  73.1396712 133.9597081
  40.7723898  64.3510486 142.2081150  40.2277366  65.1270294 142.3401425
  41.6503248  64.6981291 142.0500272  47.5611514  57.6822070 134.5861949
  47.6827426  56.7538716 134.7852836  47.2713557  57.6960756 133.6740264
  50.4302705  55.3676981 137.7228669  50.4524402  55.4316314 136.7680648
  50.8470764  54.5281489 137.9169175  60.8086329  65.1032240 135.7607891
  61.2517475  64.3539565 135.3627014  59.9312839  65.0942377 135.3781623
  55.9422111  71.6562582 131.2414490  56.6373015  72.2769274 131.4601804
  56.2845261  70.8057933 131.5166868  57.8413534  69.1062287 132.7701821
  58.3664858  69.4449560 132.0451141  57.7535886  68.1709303 132.5864955
  49.5033582  73.0196361 144.8991697  49.8120709  72.7745508 145.7714397
  50.3009064  73.2242999 144.4110567  49.5254194  75.1734271 137.1297074
  49.0859185  74.6810649 137.8229930  50.2762311  74.6307238 136.8889149
  42.0046533  71.3645811 137.1321702  42.8304553  71.0649583 136.7520345
  41.6540585  70.5953434 137.5811490  46.9728067  70.7172280 139.2019375
  46.3508076  70.0542985 138.9021603  47.6432933  70.7433412 138.5193023
  40.2055138  69.2832138 138.0910635  39.3687047  68.8554312 137.9094637
  40.1778784  69.4764581 139.0281427  57.5307440  69.7395191 148.0753018
  56.7402983  69.7219330 147.5357518  57.2940794  70.2783485 148.8302055
  57.6505315  66.5887657 145.3885747  57.7003320  66.4237665 146.3301270
  57.5419238  65.7214916 144.9983628  46.5341573  69.2676203 132.6777836
  46.6829694  69.9511667 132.0244509  47.3408017  69.2481293 133.1927292
  59.1523512  69.0084599 145.6327769  58.8608320  69.3714579 146.4691230
  58.5395643  68.2951607 145.4541101  60.3519194  66.5737479 138.1530339
  61.1866085  67.0127283 138.3167899  60.4878323  66.0976132 137.3338585
  57.4010700  64.1317213 144.1007827  57.8764821  64.3244860 143.2926678
  56.4776265  64.1876399 143.8551210  44.2894206  65.2941381 133.6838905
  44.0440248  64.3903711 133.8819115  44.4590121  65.2958531 132.7418383
  43.5589854  61.0269738 131.1825066  42.8659099  61.1014093 130.5265102
  43.3141606  60.2630082 131.7046583  52.2303510  52.5865340 138.5864557
  52.5105264  51.9188529 139.2124984  53.0154117  52.7794435 138.0739221
  50.0336979  71.7624333 130.1489583  49.4610946  72.3814521 129.6960055
  50.6069773  72.3123695 130.6829505  56.1012369  61.0082974 142.3336132
  57.0529792  61.1081071 142.3548356  55.9315819  60.2161242 142.8434216
  54.1226748  58.0938557 142.5195533  53.5276680  58.3743569 141.8242022
  53.8376445  58.5832458 143.2912274  53.2534239  72.0461484 131.2798166
  54.1864912  71.9807045 131.4831041  53.1657452  72.8817750 130.8212698
  55.8822255  71.3627354 128.2402113  55.8035887  71.0287217 129.1337871
  56.7031922  71.8549122 128.2393586  58.5800447  64.2289093 141.4478432
  58.5476767  63.2905094 141.6338116  59.1901070  64.3073130 140.7144257
  50.4183777  63.0985146 127.4905636  51.3642882  62.9691354 127.5594054
  50.0398022  62.3599808 127.9675064  58.7294935  61.0200137 141.4936715
  58.2133984  60.2358593 141.3066644  59.6134884  60.6918853 141.6583234
  56.3905662  54.7641152 137.4532528  56.1930483  54.4556240 138.3375860
  57.0005368  55.4902791 137.5830457  64.3976996  65.2905100 140.5884469
  65.1280385  65.0290388 141.1492172  63.7883942  64.5533822 140.6286537
  62.4792294  63.4312963 141.1858920  61.7525457  63.2968928 140.5775411
  62.0639580  63.7389791 141.9915638  48.6026695  61.0235123 127.4260521
  47.6958150  60.7268235 127.5023235  48.8802676  60.7264941 126.5594807
  39.5204635  62.3441486 137.8759567  39.2007419  61.4906794 137.5833941
  38.9738063  62.5590064 138.6317535  43.2984543  65.0603927 141.5929074
  43.5170552  65.9921035 141.6117108  43.7110316  64.7011901 142.3783878
  50.2188760  55.5672012 133.5804762  49.4089489  55.2219097 133.9560008
  50.9073177  55.2579556 134.1692374  52.1479309  54.6450059 135.2029059
  52.7010347  55.0645513 135.8619082  52.3849395  53.7185807 135.2452015
  47.3725479  57.8822058 127.5672500  48.2344643  58.2076956 127.8268318
  47.5575823  57.0953554 127.0545566  39.3892895  65.9644397 139.8452689
  38.6956366  65.5498350 139.3322643  40.1365886  66.0064934 139.2486108
  55.5258116  56.7550584 134.7107723  54.9456785  57.4135388 134.3285776
  55.2594048  55.9327929 134.2995141  53.9761682  56.1555642 136.9129044
  54.4761460  56.2672176 136.1043362  54.6197290  55.8516695 137.5529852
  41.3029638  65.8962651 137.7218704  41.2800326  65.9950339 136.7700587
  41.6130274  66.7427802 138.0435870  43.9617015  67.9538806 141.8365318
  44.9160269  67.9222749 141.7695250  43.7629539  67.4929430 142.6515544
  44.5516398  66.5239922 144.4036116  45.3709287  67.0184001 144.4270953
  44.8253205  65.6071890 144.3753683  54.3082994  58.9150675 133.7664072
  53.4208849  59.2000325 133.5484266  54.7236983  58.7544438 132.9191348
  57.6597530  58.9397196 137.4818411  58.4357920  59.4293648 137.7543028
  56.9345664  59.3655250 137.9390280  60.0970089  59.6524815 138.5392351
  60.6914579  59.4120551 137.8285660  60.1696672  58.9331945 139.1665888
  42.3167244  73.4958426 138.8535516  42.1821712  72.7358827 138.2873514
  41.8999306  74.2199326 138.3864305  53.4526207  68.6795349 127.8612091
  54.1562057  68.8845352 128.4769747  52.7288856  69.2472111 128.1261175
  54.2824017  64.4305211 133.9814362  54.2259219  64.8873762 133.1421994
  54.8352360  63.6695895 133.8037204  58.0928823  60.2194942 134.8064481
  57.8365758  59.8191578 135.6372689  57.4681691  60.9338736 134.6814620
  62.4041161  62.9591016 137.3135773  61.8440719  63.0284205 138.0867335
  61.7984665  62.7832000 136.5935269  45.4736370  74.3927743 139.0653959
  45.3568754  75.3373175 138.9632649  44.6528816  74.0901304 139.4539758
  55.3612905  69.1177878 129.9110552  56.1958509  68.6859077 129.7288026
  55.1997248  68.9459892 130.8387446  55.0158797  65.6209992 131.2766891
  54.9607601  65.4554263 130.3355335  54.3904852  66.3286025 131.4329081
  48.3254922  55.1218101 130.8552209  48.3133592  56.0659941 131.0120480
  49.2178344  54.9388246 130.5611670  46.4990884  75.0456005 142.2809887
  47.4018131  75.0779615 142.5976382  46.2728254  74.1156456 142.2956223
  48.2544486  73.7986991 138.9419966  47.3040117  73.7988853 138.8284338
  48.5576972  73.0519726 138.4256001  52.1407042  51.7160877 135.1098146
  51.3739438  51.1619364 135.2554828  52.5517747  51.7882746 135.9712298
  63.9897180  79.6347530 140.0065728  64.6275590  79.5154277 139.3029068
  63.8718023  80.5828374 140.0653680  60.7986886  79.5874958 139.9427253
  60.4605398  79.4716022 139.0547788  61.6676654  79.1866123 139.9228259
  56.6573702  81.4410434 135.9324144  56.0938567  81.3500371 135.1640432
  56.5426097  80.6210339 136.4126636  61.2806669  80.7409809 145.9013459
  61.2695310  80.3462608 145.0293962  61.4427308  80.0075882 146.4947230
  54.2038134  82.9361626 138.7708364  54.9959426  82.5952450 138.3554664
  54.4434784  83.0456601 139.6910518  62.2373260  85.1081402 131.2438609
  61.5861240  85.6935482 130.8572623  63.0317623  85.6387597 131.3033646
  56.1628888  82.1970539 131.6425743  56.9359764  81.6499526 131.5038619
  56.5154286  83.0614788 131.8540205  58.0013930  83.5246921 144.8492642
  57.7103796  84.4292552 144.7339309  58.6370914  83.5663449 145.5636712
  58.9270137  80.9023770 141.4394002  59.5233709  80.6779792 140.7250965
  58.9845109  80.1608515 142.0419450  58.4995165  78.3563205 129.2744193
  58.7520686  77.8344726 128.5127656  57.5619724  78.1929351 129.3770877
  63.5438448  77.3598983 137.0818936  64.3301537  76.9418407 136.7309353
  63.8077153  78.2645076 137.2500585  63.7148526  82.7971834 131.7807593
  63.0794359  82.8706460 132.4928498  63.3845932  83.3865433 131.1026672
  68.9446875  77.2974217 137.9851915  69.6772047  76.7273433 138.2189744
  68.1886231  76.9095817 138.4258420  58.2191454  80.2591311 131.4768568
  58.1027712  79.5836214 132.1449652  58.3293714  79.7723685 130.6600721
  60.5622995  79.7201458 135.1815257  60.1981202  79.1932079 135.8928179
  61.4190111  79.3299927 135.0081743  66.4672296  71.0095791 142.4446523
  66.1355620  71.8791202 142.2207738  65.8717909  70.6932075 143.1240554
  60.2028482  74.7491358 130.1776606  60.3702884  75.6171594 130.5447077
  60.0125651  74.9118640 129.2537895  62.9603815  83.2108337 141.8442436
  62.6604538  84.1133376 141.7358243  62.6154875  82.9440520 142.6963589
  56.4116297  79.6622134 137.8779141  55.4866793  79.5298348 138.0856832
  56.6600710  80.4416353 138.3749083  66.3600959  75.7290877 139.5239873
  65.4517836  75.6606285 139.2298634  66.3088555  76.2062822 140.3521699
  60.1817703  77.2049015 131.1623273  60.0617328  77.6506066 132.0008753
  59.4870291  77.5534333 130.6036811  53.7725108  79.3055407 138.7122930
  53.9017489  79.5589886 139.6262341  53.0922559  79.8983115 138.3927585
  57.9424595  89.9752657 134.8113404  57.8648625  90.9260482 134.8901884
  57.3386239  89.6298530 135.4688330  60.4341825  77.1480523 147.4674771
  59.6575159  77.7074443 147.4577635  61.0732388  77.6337306 147.9889641
  68.2262605  73.9307315 141.3017747  67.5836986  74.2239848 140.6557542
  67.7217534  73.8160236 142.1070944  65.8802769  77.6770489 131.9903607
  66.7920625  77.9097875 131.8151304  65.3712416  78.2607533 131.4278685
  58.6888197  79.9565976 147.0292738  59.4302881  80.4951020 146.7527561
  57.9825183  80.5832265 147.1864290  64.1643537  82.0995116 145.6264899
  64.5726893  81.6577527 144.8819532  63.4420798  81.5247744 145.8799092
  60.5174607  77.0367723 142.9998456  61.3635802  77.4607137 143.1433105
  60.4573244  76.3801347 143.6937019  64.4872351  82.6596307 139.3817188
  63.8581214  82.8242021 138.6793256  64.0998013  83.0737917 140.1528152
  68.3661583  83.5950745 136.7361552  67.6812621  83.9749646 136.1858585
  68.4505433  84.2046071 137.4693500  63.6674052  74.6972091 144.6579630
  63.4234984  75.4514152 144.1213906  63.9433983  75.0757439 145.4926877
  65.6212515  81.2410704 143.3356895  65.8329410  81.8842464 142.6591277
  65.5742263  80.4073020 142.8678826  63.2238744  73.8528525 140.2393468
  62.3623223  74.1509778 140.5310205  63.2501178  74.0698923 139.3074500
  60.0400313  82.3970715 136.6467273  60.5038659  82.6758418 135.8571896
  59.7757111  81.4954160 136.4640364  56.9324394  81.9442197 139.5847036
  57.5025751  82.3729465 138.9464521  57.5232506  81.6624781 140.2831222
  58.9769199  78.5193867 133.4556838  59.6793243  78.9714911 133.9230765
  58.6449828  77.8777686 134.0836732  57.4249561  77.1105624 147.8308048
  56.7948221  77.7921905 148.0643445  57.3185649  76.9988706 146.8861186
  52.7194533  76.7777420 138.7573972  51.9293587  77.0334949 138.2814083
  53.2105781  77.5925758 138.8626012  66.7358343  84.1182659 141.5079253
  67.5575787  83.7162847 141.2261934  66.7320746  84.0150893 142.4595369
  54.6709279  77.1421999 135.7157449  53.8740442  77.2540694 136.2340944
  54.4434871  77.4808652 134.8498339  60.5014946  83.6666703 143.6639963
  60.5659379  84.1287110 144.4998135  59.7925870  83.0364067 143.7922273
  51.0032236  77.0307911 141.1888963  51.2540275  77.9154920 141.4546539
  51.5391785  76.8512512 140.4164055  74.8264336  80.4621408 137.8564224
  74.0728044  79.8928806 137.7008229  74.9611877  80.4284072 138.8034859
  60.2162964  85.3334810 133.5318944  60.0808639  86.1786346 133.9603791
  60.7572776  85.5354088 132.7684877  56.7030304  71.4126390 150.1933299
  56.3097249  70.8592588 150.8680943  57.5196444  71.7236968 150.5839816
  53.6692361  82.8510248 134.1046869  54.1816882  83.6453498 134.2552433
  54.3215074  82.1536539 134.0380470  55.4787246  85.9676004 136.1869622
  55.6553874  86.8893969 135.9990606  56.2744080  85.6534424 136.6164002
  59.6198265  72.8284269 147.7853555  60.3607978  73.4291422 147.7058018
  59.8516187  72.0861907 147.2271598  54.7639603  78.0140636 146.0631785
  54.6493118  77.1125893 146.3638884  53.9084120  78.2604333 145.7116602
  61.8431440  85.9558377 147.6619286  61.3995294  85.1694755 147.3440190
  62.5048654  86.1437527 146.9963176  56.6018561  87.4854178 142.1879964
  57.1525987  87.3571242 141.4156958  55.7630037  87.7849067 141.8374857
  63.9412678  86.2361176 145.6900687  63.9231154  87.0570058 145.1980956
  64.8632598  86.1115252 145.9150828  60.3985733  83.7505306 146.5324195
  60.9314069  82.9893594 146.3023503  59.8699814  83.4578958 147.2748350
  63.5655428  68.8565372 142.0617837  63.2219697  69.7467014 141.9856948
  63.9334390  68.6667030 141.1987422  51.6341278  81.1798902 134.8806439
  52.4716500  81.5895911 134.6640147  51.8119546  80.2398345 134.8506633
  63.5305710  78.8473983 130.5690272  63.0152334  79.6178588 130.8078660
  63.2583019  78.1739119 131.1923334  61.1152821  73.6923684 135.6275511
  60.2594418  73.3030534 135.4481149  61.5279773  73.7715645 134.7675296
  62.6451968  71.2270027 140.0267070  62.1416763  71.1900162 139.2134876
  62.9382575  72.1362770 140.0863727  58.8894854  71.3108757 139.0333252
  59.7547851  71.1151566 138.6739142  58.9572363  71.0819109 139.9602609
  68.5039984  81.6006338 132.5043446  67.7269427  81.2617497 132.0598608
  69.1831465  81.6058961 131.8298411  63.3192013  76.7201075 132.3950053
  63.0142149  77.0347224 133.2460197  64.2722456  76.7982495 132.4377386
  61.7638445  82.8791298 134.0443007  61.2359807  82.1444058 133.7316245
  61.2625948  83.6565975 133.7982976  66.7431291  81.0740319 139.1610054
  66.0854966  81.7639580 139.2490182  67.5471690  81.4636751 139.5044040
  56.4957173  73.5410965 136.4049619  57.0700925  73.3186146 135.6722812
  57.0828155  73.6099659 137.1578220  65.5536750  79.4284692 137.2113995
  66.0668632  80.0614683 137.7135705  66.2037974  78.8285887 136.8457355
  56.8226760  75.5715426 130.4245504  55.9864072  75.9090112 130.7454779
  56.6831530  75.4364406 129.4872641  58.7979841  70.4152214 135.1324688
  58.1444253  70.1001231 134.5081303  58.7560315  69.7927954 135.8584511
  59.9091045  80.6971509 127.0477980  59.0018107  80.4660762 127.2469129
  60.4062077  79.9009128 127.2351962  62.8159124  89.4069016 129.9674667
  62.1420823  89.7100713 130.5759624  63.2024946  90.2098096 129.6180124
  62.0317581  76.9034147 139.4572336  61.1140142  77.1249094 139.2994024
  62.4477725  76.9780458 138.5984043  62.8152629  78.3025563 134.5875016
  63.5624448  78.8146960 134.2782138  63.0844218  77.9809616 135.4479410
  61.0879279  80.7984104 131.5701970  60.1790498  80.5143136 131.6674440
  61.1174363  81.2183182 130.7105277  66.3198546  84.4090693 135.3393138
  65.8660873  83.5681603 135.3958328  65.6892513  85.0452091 135.6767918
  65.2631466  75.3382679 136.5693805  64.5254223  74.8260065 136.9004048
  65.5158239  74.8983061 135.7577082  64.7631486  86.2467190 136.2742956
  65.0554460  86.8072247 135.5555322  65.2730106  86.5395751 137.0296115
  65.3643093  68.1158931 137.1635575  65.6701970  67.2556295 136.8761490
  66.0895698  68.7076551 136.9634569  51.6567449  78.5189618 135.5517173
  51.4591849  77.9258978 134.8268239  51.1014113  78.2141828 136.2693111
  59.6364173  78.4112724 137.6711766  59.6912783  77.4586561 137.5954242
  58.8255375  78.5672163 138.1553064  60.7855367  82.3392847 128.9090049
  60.3474797  81.6228706 128.4495686  61.5265808  82.5668962 128.3475140
  57.5756533  77.0289784 135.4302145  56.7624398  77.3283954 135.8367337
  58.0715527  76.6345473 136.1476627  59.7265111  87.0247541 137.3636409
  59.6841289  87.2508387 136.4344941  60.6427810  86.7910915 137.5122211
  63.1730745  77.4931608 144.2617039  63.5280132  77.7203082 145.1211504
  63.8202876  77.8249985 143.6394294  68.9028481  80.6150044 134.9666368
  68.7646380  80.8051640 134.0387557  68.5464700  81.3769427 135.4234419
  57.0670608  74.6008139 141.0463380  57.7069987  74.4596899 140.3486343
  56.2348138  74.3142653 140.6701982  68.9297861  82.6826571 139.9777639
  69.3634368  82.5901860 140.8260693  69.6429442  82.6584072 139.3397655
  57.8430911  83.9010570 137.1598372  58.6371510  83.4060890 136.9580947
  57.1322604  83.3728433 136.7966078  62.6625756  86.2828665 141.5110740
  62.7162778  86.8519602 142.2788456  61.7940537  86.4530550 141.1464777
  54.1513675  78.0453652 133.2358125  53.2211263  77.9838107 133.4528087
  54.2471147  77.5229604 132.4394766  54.0699224  74.5708464 135.8236366
  54.3306041  75.4853798 135.7145527  54.8916396  74.1032907 135.9732979
  55.5424149  75.9846222 142.9935191  56.2147203  75.7763584 142.3447840
  54.7153936  75.7868308 142.5540423  69.7913411  82.7250272 142.5110525
  69.9849301  83.6296082 142.7569799  69.6914029  82.2657691 143.3449110
  61.4449721  72.6108163 145.0100852  60.7977636  73.3098112 144.9165328
  62.2150737  73.0444306 145.3777100  64.8528519  82.8757015 148.0851405
  64.7014026  82.6467566 147.1681489  64.8433199  83.8327616 148.0982750
  61.6213856  80.4488927 143.0697672  62.5505916  80.6000087 142.8966639
  61.2004886  80.5372948 142.2146318  60.4202187  84.4739592 140.8396209
  60.2813273  84.1058376 141.7122147  59.6316784  84.9887231 140.6680167
  61.0150339  89.5748688 132.1821746  61.1902095  89.1036732 132.9967368
  60.3283127  90.2014455 132.4103006  61.9707403  83.8521195 138.2285047
  61.6357235  83.8121965 139.1242697  61.4711348  83.1865910 137.7555457
  55.9451647  79.2588825 143.7537628  55.8071445  78.5269063 144.3549167
  56.8556570  79.1697725 143.4721816  64.9066594  81.1977229 128.5022107
  64.2895765  80.4724057 128.4055159  64.4383083  81.9586589 128.1589181
  58.5733947  78.9708784 143.2421308  59.2833566  78.3301976 143.2007926
  58.5303255  79.2221679 144.1647489  66.5620726  85.9076137 146.1627887
  66.5033272  85.2235357 145.4958470  66.9640244  86.6495127 145.7108513
  57.2862881  75.9574002 145.0616947  56.7500238  75.5064740 145.7138544
  56.6979590  76.0919911 144.3187412  55.5811425  92.7238051 138.9561606
  55.8208023  93.3556575 139.6340624  54.7380621  92.3726091 139.2426965
  56.6965140  75.4162653 127.6243411  55.8194607  75.2951454 127.2605658
  57.1722893  74.6248732 127.3722300  66.5638133  83.8715721 144.3941867
  65.6764912  83.5341643 144.5168266  67.1336684  83.1398752 144.6310632
  48.2167280  80.2039813 137.7184918  48.9038320  79.8901543 137.1305933
  48.0615409  81.1081178 137.4452169  53.0202002  75.0930010 142.1469942
  52.9360191  74.4855679 141.4120352  52.1984709  75.5839028 142.1479438
  60.0939287  88.5317174 141.3603110  60.0209458  89.3372145 141.8722414
  59.6516680  88.7309139 140.5351131  59.8829066  87.7688944 134.8705931
  59.0996588  88.3110624 134.9644156  60.5821811  88.2862923 135.2700173
  63.1925716  73.5783573 137.5140137  63.6894416  72.8253535 137.1941207
  62.4212698  73.6147890 136.9483346  71.0455474  79.2823939 139.1558428
  71.0345350  80.1648654 138.7852361  70.1772853  78.9295489 138.9612965
  62.5537970  88.4304008 143.5161269  63.2665942  89.0651472 143.4437170
  62.0627999  88.5267874 142.7001270  64.2755497  82.3355260 135.0878560
  63.3411776  82.4556723 134.9183265  64.4532165  81.4327727 134.8238570
  59.7760685  75.7200956 137.2411821  59.4058473  75.1671996 137.9292727
  60.2719778  75.1159090 136.6886821  67.6628048  78.1772580 135.6228594
  68.1288501  79.0100571 135.5488897  68.1135549  77.7117561 136.3273853
  57.6049884  86.1798451 144.3366839  58.3059343  86.8134934 144.4896234
  57.1344999  86.5213183 143.5762479  65.7304279  84.5216401 132.6214746
  66.0064123  84.4072995 133.5308620  64.8608778  84.1233886 132.5826919
  65.6344711  70.5453167 139.6619496  64.7207791  70.7757393 139.8301703
  66.0637813  70.6291611 140.5133528  65.4051170  78.7343058 142.1619390
  64.7522620  78.9818966 141.5071842  65.7831550  77.9207197 141.8281867
  62.3658343  88.7702752 136.2647560  62.5480738  87.9524408 136.7275312
  63.1891330  88.9870444 135.8272450  62.7000509  87.6970937 133.5262608
  63.2288275  87.1863391 132.9132771  62.9628729  87.3813467 134.3908142
  61.4538743  79.4762870 148.6485427  60.7779380  79.3756999 149.3187802
  62.2766377  79.3202083 149.1121424  53.2017602  85.7134806 141.2697942
  53.7871039  84.9678494 141.4025846  53.0042440  86.0238763 142.1534606
  56.0556257  88.7486053 136.2860384  55.3866632  89.2332181 135.8024424
  55.9169127  88.9955274 137.2003763  47.7935256  78.2840406 139.9902385
  47.8319356  77.7503997 140.7839503  47.2875549  77.7575612 139.3713362
  60.1961526  90.7829797 142.8843043  60.7479834  90.9461419 143.6492128
  60.5367719  91.3734235 142.2123068  55.1726019  73.1304947 143.4864927
  55.2367345  73.9919778 143.0742325  55.1093139  72.5178948 142.7537286
  54.6478291  75.2028079 147.1337962  55.2750330  74.8205157 147.7475486
  53.7906210  74.9842281 147.4993654  65.0472400  85.6091055 148.7391697
  65.5912304  86.2221013 148.2446652  64.4659245  86.1670633 149.2558710
  51.4243834  77.0104508 133.0656317  51.7197275  76.1015187 133.0123370
  50.5231870  76.9892248 132.7437319  63.3329913  88.7311773 139.8706725
  63.2081052  87.9301512 139.3617670  63.9909004  89.2257966 139.3820695
  54.9538081  75.0860505 139.0483865  54.2324667  75.6996473 138.9091338
  55.7431337  75.6218270 138.9700511  65.3964821  86.5320793 141.4986275
  64.4495157  86.4126144 141.4264602  65.7447594  85.6443291 141.5812536
  57.7564395  72.4214932 145.3224517  58.2798796  72.6677228 146.0850826
  57.5376728  73.2534966 144.9027654  53.1531676  74.6918606 133.1895642
  52.8244382  73.8115985 133.0070748  53.5071046  74.6366275 134.0772031
  62.4011254  86.3273509 137.6990627  62.2536217  85.3990216 137.8798197
  63.2264748  86.3493600 137.2147702  56.2673499  74.9791576 133.5571119
  56.6069571  75.5077497 132.8349728  56.7145619  75.3171982 134.3329686
  66.0045376  87.1502068 138.7855500  66.9291924  86.9444929 138.6479951
  65.8360680  86.9018469 139.6944841  58.9616940  73.3628627 143.0074187
  58.6213760  72.5636440 143.4094867  58.2555946  73.6630337 142.4351021
  59.6133411  70.4477939 141.4601510  60.4359481  69.9738417 141.3380401
  59.8571475  71.2268423 141.9600197  58.2541646  73.4766198 131.7564412
  58.9750008  73.8547450 131.2528129  57.6306950  74.1955074 131.8599390
  62.3972769  74.1811346 132.6922744  62.6136383  75.0635984 132.3911573
  61.9166836  73.7897560 131.9628386  57.1371990  77.1397060 139.2693489
  56.9916571  77.4537363 140.1617771  56.6597194  77.7581960 138.7164388
  58.9968373  74.1299608 139.3174379  58.9829942  73.2340701 138.9806677
  59.7140801  74.1370271 139.9512665  60.8494504  74.5636948 141.3627506
  60.5912282  75.4854019 141.3611836  60.3179544  74.1667382 142.0527970
  65.7940693  87.6687735 134.1417591  65.9677570  87.1034157 133.3891444
  66.2869584  88.4688630 133.9597081  51.6117652  79.6802404 142.2081150
  51.0671120  80.4562212 142.3401425  52.4897002  80.0273209 142.0500272
  58.4005269  73.0113988 134.5861949  58.5221180  72.0830634 134.7852836
  58.1107311  73.0252674 133.6740264  61.2696459  70.6968898 137.7228669
  61.2918156  70.7608231 136.7680648  61.6864518  69.8573407 137.9169175
  71.6480084  80.4324158 135.7607891  72.0911230  79.6831483 135.3627014
  70.7706594  80.4234294 135.3781623  66.7815865  86.9854499 131.2414490
  67.4766770  87.6061192 131.4601804  67.1239015  86.1349851 131.5166868
  52.3983674  78.8072300 145.1011307  51.6565410  78.9554936 145.6875938
  52.0776418  79.0680566 144.2378057  68.6807288  84.4354205 132.7701821
  69.2058612  84.7741478 132.0451141  68.5929641  83.5001220 132.5864955
  60.3427337  88.3488279 144.8991697  60.6514463  88.1037425 145.7714397
  61.1402819  88.5534917 144.4110567  60.3647949  90.5026188 137.1297074
  59.9252939  90.0102567 137.8229930  61.1156066  89.9599156 136.8889149
  52.8440288  86.6937729 137.1321702  53.6698308  86.3941501 136.7520345
  52.4934340  85.9245352 137.5811490  57.8121821  86.0464197 139.2019375
  57.1901830  85.3834902 138.9021603  58.4826688  86.0725329 138.5193023
  51.0448893  84.6124056 138.0910635  50.2080801  84.1846230 137.9094637
  51.0172538  84.8056499 139.0281427  57.8846349  74.5245985 148.7951881
  57.9334504  75.4008108 148.4129651  58.4268863  73.9823378 148.2223525
  68.3701194  85.0687109 148.0753018  67.5796738  85.0511247 147.5357518
  68.1334549  85.6075402 148.8302055  68.4899069  81.9179575 145.3885747
  68.5397074  81.7529582 146.3301270  68.3812993  81.0506834 144.9983628
  57.3735328  84.5968121 132.6777836  57.5223448  85.2803585 132.0244509
  58.1801771  84.5773211 133.1927292  65.7802832  77.9010503 146.7045054
  66.6812694  77.7616968 146.4129052  65.8550806  78.0664958 147.6443231
  60.1145637  75.2777358 145.5498240  59.2448946  75.5710924 145.2780829
  60.3505117  75.8617803 146.2705504  69.9917266  84.3376516 145.6327769
  69.7002074  84.7006497 146.4691230  69.3789397  83.6243525 145.4541101
  71.1912948  81.9029396 138.1530339  72.0259840  82.3419200 138.3167899
  71.3272077  81.4268049 137.3338585  68.2404454  79.4609131 144.1007827
  68.7158576  79.6536777 143.2926678  67.3170020  79.5168317 143.8551210
  55.1287961  80.6233298 133.6838905  54.8834003  79.7195628 133.8819115
  55.2983875  80.6250449 132.7418383  62.8184671  71.4956975 143.0663660
  63.3366615  72.2318002 142.7410149  62.4639804  71.8020968 143.9010420
  54.3983608  76.3561656 131.1825066  53.7052853  76.4306011 130.5265102
  54.1535360  75.5921999 131.7046583  63.0697265  67.9157257 138.5864557
  63.3499019  67.2480446 139.2124984  63.8547872  68.1086353 138.0739221
  60.8730733  87.0916251 130.1489583  60.3004701  87.7106438 129.6960055
  61.4463527  87.6415613 130.6829505  66.9406123  76.3374891 142.3336132
  67.8923546  76.4372989 142.3548356  66.7709574  75.5453160 142.8434216
  64.9620503  73.4230474 142.5195533  64.3670435  73.7035487 141.8242022
  64.6770199  73.9124375 143.2912274  64.0927993  87.3753401 131.2798166
  65.0258666  87.3098963 131.4831041  64.0051206  88.2109668 130.8212698
  66.7216010  86.6919272 128.2402113  66.6429641  86.3579135 129.1337871
  67.5425677  87.1841039 128.2393586  69.4194201  79.5581011 141.4478432
  69.3870521  78.6197012 141.6338116  70.0294825  79.6365048 140.7144257
  61.2577532  78.4277064 127.4905636  62.2036637  78.2983272 127.5594054
  60.8791777  77.6891726 127.9675064  69.5688690  76.3492054 141.4936715
  69.0527738  75.5650511 141.3066644  70.4528638  76.0210771 141.6583234
  67.2299417  70.0933070 137.4532528  67.0324238  69.7848158 138.3375860
  67.8399122  70.8194709 137.5830457  75.2370751  80.6197018 140.5884469
  75.9674139  80.3582306 141.1492172  74.6277696  79.8825740 140.6286537
  73.3186048  78.7604880 141.1858920  72.5919212  78.6260845 140.5775411
  72.9033335  79.0681709 141.9915638  61.1416225  82.4794810 148.9506293
  62.0619234  82.6573409 149.1446339  61.1065808  81.5350855 148.7985992
  59.4420449  76.3527040 127.4260521  58.5351905  76.0560153 127.5023235
  59.7196430  76.0556858 126.5594807  50.3598390  77.6733404 137.8759567
  50.0401174  76.8198712 137.5833941  49.8131818  77.8881982 138.6317535
  54.1378297  80.3895845 141.5929074  54.3564307  81.3212952 141.6117108
  54.5504071  80.0303819 142.3783878  61.0582515  70.8963930 133.5804762
  60.2483243  70.5511015 133.9560008  61.7466932  70.5871474 134.1692374
  62.9873063  69.9741977 135.2029059  63.5404102  70.3937430 135.8619082
  63.2243149  69.0477725 135.2452015  59.0106162  75.9629050 150.9831823
  58.9102889  76.9123407 150.9143914  58.7927704  75.6347289 150.1107893
  58.2119234  73.2113975 127.5672500  59.0738398  73.5368874 127.8268318
  58.3969578  72.4245471 127.0545566  50.2286650  81.2936315 139.8452689
  49.5350121  80.8790268 139.3322643  50.9759641  81.3356852 139.2486108
  66.3651870  72.0842502 134.7107723  65.7850539  72.7427306 134.3285776
  66.0987803  71.2619847 134.2995141  64.8155437  71.4847560 136.9129044
  65.3155215  71.5964094 136.1043362  65.4591045  71.1808612 137.5529852
  58.8737432  79.3926189 149.7996885  58.3904514  80.1926549 150.0060774
  58.9598371  79.4034134 148.8464329  52.1423392  81.2254569 137.7218704
  52.1194080  81.3242256 136.7700587  52.4524029  82.0719720 138.0435870
  54.8010770  83.2830724 141.8365318  55.7554023  83.2514666 141.7695250
  54.6023293  82.8221348 142.6515544  55.3910152  81.8531840 144.4036116
  56.2103041  82.3475919 144.4270953  55.6646960  80.9363808 144.3753683
  65.1476748  74.2442592 133.7664072  64.2602603  74.5292243 133.5484266
  65.5630737  74.0836356 132.9191348  68.4991284  74.2689113 137.4818411
  69.2751674  74.7585566 137.7543028  67.7739419  74.6947167 137.9390280
  70.9363843  74.9816733 138.5392351  71.5308334  74.7412468 137.8285660
  71.0090427  74.2623863 139.1665888  53.1560999  88.8250343 138.8535516
  53.0215467  88.0650744 138.2873514  52.7393061  89.5491243 138.3864305
  64.2919962  84.0087267 127.8612091  64.9955812  84.2137269 128.4769747
  63.5682610  84.5764029 128.1261175  65.1217772  79.7597128 133.9814362
  65.0652973  80.2165680 133.1421994  65.6746114  78.9987813 133.8037204
  68.9322578  75.5486860 134.8064481  68.6759512  75.1483496 135.6372689
  68.3075446  76.2630654 134.6814620  73.2434916  78.2882933 137.3135773
  72.6834474  78.3576123 138.0867335  72.6378419  78.1123918 136.5935269
  56.3130125  89.7219660 139.0653959  56.1962509  90.6665093 138.9632649
  55.4922571  89.4193222 139.4539758  66.2006659  84.4469796 129.9110552
  67.0352263  84.0150995 129.7288026  66.0391002  84.2751810 130.8387446
  65.8552551  80.9501909 131.2766891  65.8001355  80.7846181 130.3355335
  65.2298607  81.6577942 131.4329081  50.6445066  76.1869974 145.1028313
  51.2903930  75.6768928 145.5915538  50.4362217  76.9238656 145.6771738
  63.1698458  83.2550821 150.6020454  64.0389618  83.4291474 150.2407089
  62.6905210  84.0745238 150.4796183  59.1648677  70.4510018 130.8552209
  59.1527347  71.3951858 131.0120480  60.0572099  70.2680164 130.5611670
  57.3384639  90.3747922 142.2809887  58.2411885  90.4071533 142.5976382
  57.1122009  89.4448373 142.2956223  59.0938241  89.1278909 138.9419966
  58.1433872  89.1280771 138.8284338  59.3970727  88.3811643 138.4256001
  62.9800796  67.0452795 135.1098146  62.2133192  66.4911282 135.2554828
  63.3911501  67.1174664 135.9712298  54.9842557  73.3337591 149.2003327
  55.8474019  72.9774396 149.4106652  54.4107968  72.9951486 149.8878732
  74.8290934  94.9639447 140.0065728  75.4669344  94.8446195 139.3029068
  74.7111777  95.9120291 140.0653680  71.6380640  94.9166875 139.9427253
  71.2999152  94.8007940 139.0547788  72.5070409  94.5158040 139.9228259
  67.4967456  96.7702352 135.9324144  66.9332321  96.6792289 135.1640432
  67.3819851  95.9502256 136.4126636  65.0431888  98.2653543 138.7708364
  65.8353180  97.9244368 138.3554664  65.2828538  98.3748518 139.6910518
  73.0767015 100.4373319 131.2438609  72.4254995 101.0227400 130.8572623
  73.8711378 100.9679514 131.3033646  67.0022642  97.5262457 131.6425743
  67.7753518  96.9791444 131.5038619  67.3548041  98.3906706 131.8540205
  69.7663891  96.2315687 141.4394002  70.3627464  96.0071710 140.7250965
  69.8238863  95.4900433 142.0419450  69.3388920  93.6855123 129.2744193
  69.5914441  93.1636644 128.5127656  68.4013479  93.5221268 129.3770877
  74.3832203  92.6890901 137.0818936  75.1695292  92.2710324 136.7309353
  74.6470907  93.5936993 137.2500585  74.5542280  98.1263751 131.7807593
  73.9188113  98.1998378 132.4928498  74.2239686  98.7157350 131.1026672
  79.7840630  92.6266134 137.9851915  80.5165802  92.0565351 138.2189744
  79.0279986  92.2387735 138.4258420  69.0585209  95.5883229 131.4768568
  68.9421467  94.9128132 132.1449652  69.1687469  95.1015603 130.6600721
  71.4016750  95.0493376 135.1815257  71.0374957  94.5223997 135.8928179
  72.2583865  94.6591845 135.0081743  77.3066050  86.3387708 142.4446523
  76.9749375  87.2083119 142.2207738  76.7111664  86.0223992 143.1240554
  71.0422237  90.0783276 130.1776606  71.2096639  90.9463512 130.5447077
  70.8519406  90.2410557 129.2537895  73.7997570  98.5400254 141.8442436
  73.4998293  99.4425293 141.7358243  73.4548629  98.2732438 142.6963589
  67.2510051  94.9914051 137.8779141  66.3260548  94.8590265 138.0856832
  67.4994464  95.7708271 138.3749083  77.1994714  91.0582795 139.5239873
  76.2911591  90.9898203 139.2298634  77.1482309  91.5354740 140.3521699
  71.0211457  92.5340933 131.1623273  70.9011083  92.9797984 132.0008753
  70.3264046  92.8826251 130.6036811  64.6118862  94.6347325 138.7122930
  64.7411243  94.8881804 139.6262341  63.9316314  95.2275033 138.3927585
  68.7818350 105.3044575 134.8113404  68.7042379 106.2552400 134.8901884
  68.1779993 104.9590447 135.4688330  79.0656360  89.2599233 141.3017747
  78.4230740  89.5531766 140.6557542  78.5611288  89.1452153 142.1070944
  76.7196524  93.0062406 131.9903607  77.6314380  93.2389793 131.8151304
  76.2106171  93.5899450 131.4278685  69.5281952  95.2857894 147.0292738
  70.2696636  95.8242938 146.7527561  68.8218937  95.9124182 147.1864290
  71.3568361  92.3659641 142.9998456  72.2029556  92.7899054 143.1433105
  71.2966999  91.7093265 143.6937019  75.3266106  97.9888225 139.3817188
  74.6974968  98.1533939 138.6793256  74.9391768  98.4029834 140.1528152
  79.2055338  98.9242663 136.7361552  78.5206376  99.3041564 136.1858585
  79.2899187  99.5337989 137.4693500  74.5067807  90.0264009 144.6579630
  74.2628738  90.7806070 144.1213906  74.7827737  90.4049357 145.4926877
  76.4606269  96.5702622 143.3356895  76.6723165  97.2134381 142.6591277
  76.4136018  95.7364938 142.8678826  74.0632498  89.1820442 140.2393468
  73.2016977  89.4801696 140.5310205  74.0894933  89.3990841 139.3074500
  70.8794068  97.7262633 136.6467273  71.3432413  98.0050336 135.8571896
  70.6150866  96.8246077 136.4640364  67.7718149  97.2734114 139.5847036
  68.3419506  97.7021383 138.9464521  68.3626261  96.9916699 140.2831222
  69.8162954  93.8485785 133.4556838  70.5186997  94.3006829 133.9230765
  69.4843582  93.2069604 134.0836732  68.2643315  92.4397542 147.8308048
  67.6341976  93.1213823 148.0643445  68.1579403  92.3280623 146.8861186
  63.5588288  92.1069338 138.7573972  62.7687342  92.3626866 138.2814083
  64.0499535  92.9217676 138.8626012  65.5103033  92.4713917 135.7157449
  64.7134196  92.5832611 136.2340944  65.2828625  92.8100569 134.8498339
  61.8425991  92.3599828 141.1888963  62.0934029  93.2446838 141.4546539
  62.3785539  92.1804430 140.4164055  85.6658090  95.7913325 137.8564224
  84.9121799  95.2220724 137.7008229  85.8005632  95.7575990 138.8034859
  71.0556718 100.6626728 133.5318944  70.9202393 101.5078263 133.9603791
  71.5966531 100.8646005 132.7684877  67.5424058  86.7418308 150.1933299
  67.1491004  86.1884506 150.8680943  68.3590198  87.0528886 150.5839816
  64.5086116  98.1802166 134.1046869  65.0210636  98.9745416 134.2552433
  65.1608829  97.4828456 134.0380470  66.3181001 101.2967922 136.1869622
  66.4947629 102.2185887 135.9990606  67.1137834 100.9826341 136.6164002
  70.4592019  88.1576187 147.7853555  71.2001732  88.7583340 147.7058018
  70.6909942  87.4153824 147.2271598  65.6033357  93.3432554 146.0631785
  65.4886872  92.4417811 146.3638884  64.7477875  93.5896251 145.7116602
  67.4412316 102.8146096 142.1879964  67.9919741 102.6863159 141.4156958
  66.6023792 103.1140985 141.8374857  74.4049182  84.1857290 142.0617837
  74.0613451  85.0758931 141.9856948  74.7728145  83.9958947 141.1987422
  62.4735033  96.5090820 134.8806439  63.3110255  96.9187828 134.6640147
  62.6513300  95.5690262 134.8506633  74.3699465  94.1765901 130.5690272
  73.8546088  94.9470505 130.8078660  74.0976773  93.5031037 131.1923334
  71.9546576  89.0215602 135.6275511  71.0988172  88.6322452 135.4481149
  72.3673528  89.1007562 134.7675296  73.4845722  86.5561945 140.0267070
  72.9810518  86.5192080 139.2134876  73.7776329  87.4654687 140.0863727
  69.7288608  86.6400674 139.0333252  70.5941605  86.4443483 138.6739142
  69.7966117  86.4111026 139.9602609  79.3433739  96.9298255 132.5043446
  78.5663182  96.5909415 132.0598608  80.0225220  96.9350879 131.8298411
  74.1585768  92.0492993 132.3950053  73.8535903  92.3639142 133.2460197
  75.1116210  92.1274413 132.4377386  72.6032200  98.2083216 134.0443007
  72.0753561  97.4735976 133.7316245  72.1019702  98.9857892 133.7982976
  77.5825046  96.4032237 139.1610054  76.9248720  97.0931498 139.2490182
  78.3865445  96.7928669 139.5044040  67.3350927  88.8702882 136.4049619
  67.9094679  88.6478064 135.6722812  67.9221910  88.9391577 137.1578220
  76.3930505  94.7576609 137.2113995  76.9062386  95.3906601 137.7135705
  77.0431728  94.1577805 136.8457355  67.6620514  90.9007343 130.4245504
  66.8257827  91.2382030 130.7454779  67.5225284  90.7656323 129.4872641
  69.6373595  85.7444131 135.1324688  68.9838007  85.4293148 134.5081303
  69.5954069  85.1219872 135.8584511  70.7484800  96.0263426 127.0477980
  69.8411862  95.7952680 127.2469129  71.2455832  95.2301046 127.2351962
  73.6552879 104.7360934 129.9674667  72.9814578 105.0392630 130.5759624
  74.0418701 105.5390014 129.6180124  72.8711335  92.2326065 139.4572336
  71.9533897  92.4541012 139.2994024  73.2871479  92.3072375 138.5984043
  73.6546383  93.6317481 134.5875016  74.4018202  94.1438878 134.2782138
  73.9237973  93.3101533 135.4479410  71.9273033  96.1276021 131.5701970
  71.0184253  95.8435054 131.6674440  71.9568117  96.5475100 130.7105277
  77.1592301  99.7382611 135.3393138  76.7054628  98.8973521 135.3958328
  76.5286267 100.3744009 135.6767918  76.1025220  90.6674597 136.5693805
  75.3647977  90.1551983 136.9004048  76.3551994  90.2274978 135.7577082
  75.6025240 101.5759107 136.2742956  75.8948214 102.1364165 135.5555322
  76.1123861 101.8687668 137.0296115  76.2036848  83.4450849 137.1635575
  76.5095724  82.5848212 136.8761490  76.9289452  84.0368469 136.9634569
  62.4961204  93.8481535 135.5517173  62.2985604  93.2550896 134.8268239
  61.9407868  93.5433746 136.2693111  70.4757927  93.7404642 137.6711766
  70.5306537  92.7878478 137.5954242  69.6649129  93.8964081 138.1553064
  71.6249121  97.6684765 128.9090049  71.1868551  96.9520624 128.4495686
  72.3659562  97.8960880 128.3475140  68.4150287  92.3581702 135.4302145
  67.6018153  92.6575872 135.8367337  68.9109281  91.9637390 136.1476627
  70.5658865 102.3539459 137.3636409  70.5235044 102.5800305 136.4344941
  71.4821564 102.1202833 137.5122211  74.0124499  92.8223526 144.2617039
  74.3673887  93.0494999 145.1211504  74.6596630  93.1541903 143.6394294
  79.7422236  95.9441962 134.9666368  79.6040135  96.1343558 134.0387557
  79.3858455  96.7061345 135.4234419  67.9064362  89.9300057 141.0463380
  68.5463741  89.7888816 140.3486343  67.0741893  89.6434571 140.6701982
  79.7691616  98.0118489 139.9777639  80.2028122  97.9193778 140.8260693
  80.4823196  97.9875989 139.3397655  68.6824666  99.2302488 137.1598372
  69.4765264  98.7352808 136.9580947  67.9716358  98.7020351 136.7966078
  64.9907429  93.3745569 133.2358125  64.0605018  93.3130025 133.4528087
  65.0864901  92.8521522 132.4394766  64.9092978  89.9000382 135.8236366
  65.1699796  90.8145715 135.7145527  65.7310151  89.4324825 135.9732979
  66.3817904  91.3138139 142.9935191  67.0540957  91.1055501 142.3447840
  65.5547690  91.1160225 142.5540423  72.2843476  87.9400080 145.0100852
  71.6371391  88.6390030 144.9165328  73.0544491  88.3736224 145.3777100
  72.4607610  95.7780845 143.0697672  73.3899670  95.9292005 142.8966639
  72.0398640  95.8664866 142.2146318  71.2595942  99.8031510 140.8396209
  71.1207028  99.4350294 141.7122147  70.4710538 100.3179149 140.6680167
  71.8544094 104.9040606 132.1821746  72.0295850 104.4328649 132.9967368
  71.1676882 105.5306372 132.4103006  72.8101157  99.1813112 138.2285047
  72.4750990  99.1413882 139.1242697  72.3105103  98.5157828 137.7555457
  66.7845401  94.5880742 143.7537628  66.6465199  93.8560981 144.3549167
  67.6950325  94.4989642 143.4721816  75.7460349  96.5269147 128.5022107
  75.1289519  95.8015975 128.4055159  75.2776837  97.2878507 128.1589181
  69.4127702  94.3000702 143.2421308  70.1227320  93.6593894 143.2007926
  69.3697010  94.5513596 144.1647489  68.1256636  91.2865919 145.0616947
  67.5893993  90.8356658 145.7138544  67.5373344  91.4211828 144.3187412
  66.4205179 108.0529969 138.9561606  66.6601777 108.6848493 139.6340624
  65.5774376 107.7018009 139.2426965  67.5358895  90.7454571 127.6243411
  66.6588361  90.6243372 127.2605658  68.0116648  89.9540649 127.3722300
  59.0561035  95.5331731 137.7184918  59.7432075  95.2193461 137.1305933
  58.9009163  96.4373095 137.4452169  63.8595757  90.4221927 142.1469942
  63.7753946  89.8147597 141.4120352  63.0378463  90.9130945 142.1479438
  70.7222821 103.0980861 134.8705931  69.9390343 103.6402541 134.9644156
  71.4215566 103.6154841 135.2700173  74.0319471  88.9075491 137.5140137
  74.5288170  88.1545453 137.1941207  73.2606452  88.9439807 136.9483346
  81.8849228  94.6115856 139.1558428  81.8739104  95.4940572 138.7852361
  81.0166608  94.2587407 138.9612965  75.1149252  97.6647178 135.0878560
  74.1805530  97.7848640 134.9183265  75.2925920  96.7619645 134.8238570
  70.6154440  91.0492874 137.2411821  70.2452227  90.4963914 137.9292727
  71.1113532  90.4451007 136.6886821  78.5021803  93.5064497 135.6228594
  78.9682255  94.3392489 135.5488897  78.9529303  93.0409479 136.3273853
  76.5698034  99.8508319 132.6214746  76.8457878  99.7364913 133.5308620
  75.7002533  99.4525803 132.5826919  76.4738466  85.8745084 139.6619496
  75.5601545  86.1049311 139.8301703  76.9031567  85.9583528 140.5133528
  76.2444924  94.0634976 142.1619390  75.5916374  94.3110884 141.5071842
  76.6225304  93.2499114 141.8281867  73.2052098 104.0994669 136.2647560
  73.3874493 103.2816325 136.7275312  74.0285084 104.3162362 135.8272450
  73.5394263 103.0262854 133.5262608  74.0682030 102.5155309 132.9132771
  73.8022483 102.7105385 134.3908142  64.0411356 101.0426724 141.2697942
  64.6264793 100.2970412 141.4025846  63.8436195 101.3530680 142.1534606
  66.8950011 104.0777971 136.2860384  66.2260387 104.5624099 135.8024424
  66.7562881 104.3247192 137.2003763  58.6329011  93.6132324 139.9902385
  58.6713110  93.0795915 140.7839503  58.1269304  93.0867529 139.3713362
  66.0119773  88.4596864 143.4864927  66.0761100  89.3211695 143.0742325
  65.9486893  87.8470866 142.7537286  65.4872046  90.5319997 147.1337962
  66.1144085  90.1497074 147.7475486  64.6299965  90.3134199 147.4993654
  62.2637589  92.3396426 133.0656317  62.5591030  91.4307105 133.0123370
  61.3625624  92.3184166 132.7437319  74.1723667 104.0603690 139.8706725
  74.0474807 103.2593430 139.3617670  74.8302758 104.5549884 139.3820695
  65.7931836  90.4152423 139.0483865  65.0718421  91.0288390 138.9091338
  66.5825091  90.9510188 138.9700511  68.5958149  87.7506849 145.3224517
  69.1192551  87.9969146 146.0850826  68.3770482  88.5826884 144.9027654
  63.9925430  90.0210524 133.1895642  63.6638136  89.1407903 133.0070748
  64.3464801  89.9658192 134.0772031  73.2405009 101.6565427 137.6990627
  73.0929971 100.7282134 137.8798197  74.0658502 101.6785517 137.2147702
  67.1067253  90.3083494 133.5571119  67.4463326  90.8369415 132.8349728
  67.5539374  90.6463900 134.3329686  76.8439131 102.4793985 138.7855500
  77.7685678 102.2736847 138.6479951  76.6754434 102.2310386 139.6944841
  69.8010694  88.6920544 143.0074187  69.4607514  87.8928357 143.4094867
  69.0949700  88.9922255 142.4351021  70.4527166  85.7769857 141.4601510
  71.2753235  85.3030335 141.3380401  70.6965229  86.5560340 141.9600197
  69.0935400  88.8058115 131.7564412  69.8143763  89.1839368 131.2528129
  68.4700705  89.5246992 131.8599390  73.2366523  89.5103264 132.6922744
  73.4530138  90.3927902 132.3911573  72.7560590  89.1189478 131.9628386
  67.9765745  92.4688977 139.2693489  67.8310325  92.7829280 140.1617771
  67.4990948  93.0873878 138.7164388  69.8362128  89.4591525 139.3174379
  69.8223696  88.5632619 138.9806677  70.5534556  89.4662189 139.9512665
  71.6888258  89.8928866 141.3627506  71.4306036  90.8145936 141.3611836
  71.1573299  89.4959300 142.0527970  76.6334447 102.9979653 134.1417591
  76.8071325 102.4326075 133.3891444  77.1263338 103.7980548 133.9597081
  62.4511407  95.0094322 142.2081150  61.9064875  95.7854130 142.3401425
  63.3290757  95.3565126 142.0500272  69.2399023  88.3405906 134.5861949
  69.3614935  87.4122552 134.7852836  68.9501066  88.3544592 133.6740264
  72.1090214  86.0260816 137.7228669  72.1311911  86.0900149 136.7680648
  72.5258273  85.1865325 137.9169175  82.4873838  95.7616076 135.7607891
  82.9304984  95.0123401 135.3627014  81.6100348  95.7526212 135.3781623
  77.6209620 102.3146417 131.2414490  78.3160524 102.9353110 131.4601804
  77.9632770 101.4641768 131.5166868  63.2377429  94.1364218 145.1011307
  62.4959165  94.2846853 145.6875938  62.9170173  94.3972484 144.2378057
  79.5201043  99.7646123 132.7701821  80.0452367 100.1033395 132.0451141
  79.4323395  98.8293138 132.5864955  71.2041703 105.8318106 137.1297074
  70.7646694 105.3394485 137.8229930  71.9549820 105.2891074 136.8889149
  63.6834042 102.0229647 137.1321702  64.5092062 101.7233419 136.7520345
  63.3328094 101.2537269 137.5811490  68.6515576 101.3756115 139.2019375
  68.0295585 100.7126820 138.9021603  69.3220442 101.4017247 138.5193023
  61.8842647  99.9415973 138.0910635  61.0474556  99.5138148 137.9094637
  61.8566293 100.1348417 139.0281427  68.7240103  89.8537903 148.7951881
  68.7728258  90.7300026 148.4129651  69.2662617  89.3115296 148.2223525
  68.2129082  99.9260038 132.6777836  68.3617203 100.6095503 132.0244509
  69.0195526  99.9065128 133.1927292  70.9539391  90.6069275 145.5498240
  70.0842701  90.9002841 145.2780829  71.1898872  91.1909720 146.2705504
  82.0306703  97.2321314 138.1530339  82.8653594  97.6711118 138.3167899
  82.1665832  96.7559967 137.3338585  65.9681715  95.9525216 133.6838905
  65.7227757  95.0487546 133.8819115  66.1377630  95.9542366 132.7418383
  73.6578425  86.8248892 143.0663660  74.1760369  87.5609919 142.7410149
  73.3033558  87.1312886 143.9010420  65.2377363  91.6853574 131.1825066
  64.5446608  91.7597929 130.5265102  64.9929115  90.9213917 131.7046583
  73.9091019  83.2449175 138.5864557  74.1892773  82.5772364 139.2124984
  74.6941626  83.4378270 138.0739221  71.7124488 102.4208169 130.1489583
  71.1398455 103.0398356 129.6960055  72.2857282 102.9707530 130.6829505
  77.7799878  91.6666809 142.3336132  78.7317301  91.7664907 142.3548356
  77.6103328  90.8745077 142.8434216  75.8014257  88.7522392 142.5195533
  75.2064189  89.0327405 141.8242022  75.5163954  89.2416293 143.2912274
  74.9321748 102.7045319 131.2798166  75.8652421 102.6390881 131.4831041
  74.8444961 103.5401586 130.8212698  77.5609764 102.0211189 128.2402113
  77.4823396 101.6871053 129.1337871  78.3819431 102.5132957 128.2393586
  80.2587956  94.8872929 141.4478432  80.2264276  93.9488929 141.6338116
  80.8688579  94.9656965 140.7144257  72.0971286  93.7568982 127.4905636
  73.0430391  93.6275190 127.5594054  71.7185531  93.0183643 127.9675064
  80.4082444  91.6783972 141.4936715  79.8921493  90.8942429 141.3066644
  81.2922393  91.3502689 141.6583234  78.0693171  85.4224988 137.4532528
  77.8717992  85.1140076 138.3375860  78.6792877  86.1486626 137.5830457
  84.1579803  94.0896798 141.1858920  83.4312966  93.9552763 140.5775411
  83.7427089  94.3973627 141.9915638  70.2814204  91.6818958 127.4260521
  69.3745659  91.3852071 127.5023235  70.5590185  91.3848776 126.5594807
  61.1992144  93.0025321 137.8759567  60.8794928  92.1490630 137.5833941
  60.6525572  93.2173899 138.6317535  64.9772052  95.7187762 141.5929074
  65.1958061  96.6504870 141.6117108  65.3897825  95.3595737 142.3783878
  71.8976269  86.2255848 133.5804762  71.0876998  85.8802933 133.9560008
  72.5860686  85.9163391 134.1692374  73.8266818  85.3033894 135.2029059
  74.3797856  85.7229348 135.8619082  74.0636904  84.3769643 135.2452015
  69.0512988  88.5405893 127.5672500  69.9132152  88.8660791 127.8268318
  69.2363332  87.7537389 127.0545566  61.0680404  96.6228233 139.8452689
  60.3743875  96.2082186 139.3322643  61.8153395  96.6648769 139.2486108
  77.2045625  87.4134420 134.7107723  76.6244294  88.0719224 134.3285776
  76.9381557  86.5911764 134.2995141  75.6549191  86.8139477 136.9129044
  76.1548969  86.9256012 136.1043362  76.2984799  86.5100530 137.5529852
  62.9817147  96.5546487 137.7218704  62.9587835  96.6534174 136.7700587
  63.2917783  97.4011637 138.0435870  65.6404524  98.6122642 141.8365318
  66.5947778  98.5806584 141.7695250  65.4417048  98.1513265 142.6515544
  66.2303907  97.1823758 144.4036116  67.0496796  97.6767836 144.4270953
  66.5040714  96.2655726 144.3753683  75.9870503  89.5734510 133.7664072
  75.0996358  89.8584161 133.5484266  76.4024492  89.4128273 132.9191348
  79.3385039  89.5981031 137.4818411  80.1145429  90.0877483 137.7543028
  78.6133173  90.0239085 137.9390280  81.7757597  90.3108650 138.5392351
  82.3702088  90.0704386 137.8285660  81.8484181  89.5915781 139.1665888
  63.9954753 104.1542261 138.8535516  63.8609221 103.3942662 138.2873514
  63.5786815 104.8783161 138.3864305  75.1313716  99.3379185 127.8612091
  75.8349566  99.5429187 128.4769747  74.4076365  99.9055947 128.1261175
  75.9611526  95.0889046 133.9814362  75.9046728  95.5457597 133.1421994
  76.5139869  94.3279731 133.8037204  79.7716332  90.8778778 134.8064481
  79.5153267  90.4775413 135.6372689  79.1469200  91.5922572 134.6814620
  84.0828670  93.6174851 137.3135773  83.5228228  93.6868040 138.0867335
  83.4772174  93.4415836 136.5935269  67.1523879 105.0511578 139.0653959
  67.0356263 105.9957011 138.9632649  66.3316325 104.7485140 139.4539758
  77.0400414  99.7761714 129.9110552  77.8746018  99.3442912 129.7288026
  76.8784757  99.6043728 130.8387446  76.6946306  96.2793827 131.2766891
  76.6395110  96.1138099 130.3355335  76.0692361  96.9869860 131.4329081
  61.4838821  91.5161892 145.1028313  62.1297684  91.0060846 145.5915538
  61.2755972  92.2530573 145.6771738  70.0042431  85.7801936 130.8552209
  69.9921101  86.7243776 131.0120480  70.8965853  85.5972082 130.5611670
  69.9331995 104.4570827 138.9419966  68.9827626 104.4572688 138.8284338
  70.2364481 103.7103561 138.4256001  73.8194551  82.3744713 135.1098146
  73.0526947  81.8203200 135.2554828  74.2305256  82.4466582 135.9712298
  65.8236312  88.6629509 149.2003327  66.6867773  88.3066313 149.4106652
  65.2501722  88.3243403 149.8878732  77.8416397 112.8554374 131.6425743
  78.6147273 112.3083361 131.5038619  78.1941795 113.7198624 131.8540205
  80.1782674 109.0147040 129.2744193  80.4308195 108.4928562 128.5127656
  79.2407233 108.8513186 129.3770877  79.8978963 110.9175146 131.4768568
  79.7815221 110.2420050 132.1449652  80.0081223 110.4307520 130.6600721
  81.8815991 105.4075193 130.1776606  82.0490393 106.2755430 130.5447077
  81.6913160 105.5702475 129.2537895  81.8605212 107.8632851 131.1623273
  81.7404837 108.3089901 132.0008753  81.1657800 108.2118168 130.6036811
  87.5590278 108.3354324 131.9903607  88.4708134 108.5681711 131.8151304
  87.0499925 108.9191368 131.4278685  80.6556708 109.1777703 133.4556838
  81.3580752 109.6298746 133.9230765  80.3237337 108.5361522 134.0836732
  76.3496788 107.8005835 135.7157449  75.5527951 107.9124529 136.2340944
  76.1222380 108.1392487 134.8498339  73.3128787 111.8382738 134.8806439
  74.1504009 112.2479746 134.6640147  73.4907055 110.8982180 134.8506633
  85.2093219 109.5057818 130.5690272  84.6939843 110.2762423 130.8078660
  84.9370528 108.8322955 131.1923334  82.7940330 104.3507519 135.6275511
  81.9381927 103.9614370 135.4481149  83.2067282 104.4299480 134.7675296
  84.9979522 107.3784911 132.3950053  84.6929658 107.6931060 133.2460197
  85.9509964 107.4566330 132.4377386  78.1744682 104.1994800 136.4049619
  78.7488434 103.9769982 135.6722812  78.7615664 104.2683495 137.1578220
  78.5014269 106.2299261 130.4245504  77.6651581 106.5673948 130.7454779
  78.3619039 106.0948241 129.4872641  80.4767350 101.0736049 135.1324688
  79.8231762 100.7585066 134.5081303  80.4347824 100.4511789 135.8584511
  81.5878554 111.3555344 127.0477980  80.6805616 111.1244598 127.2469129
  82.0849586 110.5592963 127.2351962  82.7666788 111.4567939 131.5701970
  81.8578007 111.1726972 131.6674440  82.7961872 111.8767018 130.7105277
  87.0430602  98.7742766 137.1635575  87.3489479  97.9140130 136.8761490
  87.7683207  99.3660387 136.9634569  73.3354958 109.1773453 135.5517173
  73.1379358 108.5842814 134.8268239  72.7801622 108.8725663 136.2693111
  82.4642876 112.9976683 128.9090049  82.0262306 112.2812542 128.4495686
  83.2053317 113.2252797 128.3475140  79.2544042 107.6873619 135.4302145
  78.4411907 107.9867790 135.8367337  79.7503036 107.2929308 136.1476627
  75.8301184 108.7037487 133.2358125  74.8998772 108.6421942 133.4528087
  75.9258656 108.1813440 132.4394766  75.7486733 105.2292300 135.8236366
  76.0093550 106.1437633 135.7145527  76.5703905 104.7616742 135.9732979
  86.5854103 111.8561064 128.5022107  85.9683274 111.1307892 128.4055159
  86.1170592 112.6170425 128.1589181  78.3752649 106.0746489 127.6243411
  77.4982115 105.9535289 127.2605658  78.8510402 105.2832567 127.3722300
  69.8954789 110.8623648 137.7184918  70.5825829 110.5485378 137.1305933
  69.7402918 111.7665013 137.4452169  73.1031343 107.6688344 133.0656317
  73.3984784 106.7599022 133.0123370  72.2019379 107.6476083 132.7437319
  74.8319185 105.3502441 133.1895642  74.5031891 104.4699820 133.0070748
  75.1858555 105.2950110 134.0772031  77.9461008 105.6375411 133.5571119
  78.2857080 106.1661333 132.8349728  78.3933128 105.9755817 134.3329686
  79.9329155 104.1350033 131.7564412  80.6537517 104.5131286 131.2528129
  79.3094459 104.8538910 131.8599390  84.0760278 104.8395182 132.6922744
  84.2923892 105.7219820 132.3911573  83.5954345 104.4481395 131.9628386
  80.0792778 103.6697823 134.5861949  80.2008689 102.7414469 134.7852836
  79.7894820 103.6836509 133.6740264  82.9483968 101.3552734 137.7228669
  82.9705665 101.4192067 136.7680648  83.3652027 100.5157242 137.9169175
  76.8075470 111.2817134 133.6838905  76.5621512 110.3779464 133.8819115
  76.9771384 111.2834284 132.7418383  76.0771117 107.0145491 131.1825066
  75.3840362 107.0889846 130.5265102  75.8322869 106.2505835 131.7046583
  84.7484774  98.5741093 138.5864557  85.0286528  97.9064282 139.2124984
  85.5335381  98.7670188 138.0739221  82.9365041 109.0860899 127.4905636
  83.8824146 108.9567107 127.5594054  82.5579286 108.3475561 127.9675064
  81.1207958 107.0110876 127.4260521  80.2139413 106.7143988 127.5023235
  81.3983939 106.7140694 126.5594807  72.0385898 108.3317239 137.8759567
  71.7188683 107.4782547 137.5833941  71.4919327 108.5465817 138.6317535
  82.7370024 101.5547765 133.5804762  81.9270752 101.2094850 133.9560008
  83.4254441 101.2455309 134.1692374  84.6660572 100.6325812 135.2029059
  85.2191611 101.0521266 135.8619082  84.9030658  99.7061560 135.2452015
  79.8906743 103.8697811 127.5672500  80.7525907 104.1952709 127.8268318
  80.0757087 103.0829307 127.0545566  88.0439379 102.7426337 134.7107723
  87.4638048 103.4011141 134.3285776  87.7775312 101.9203682 134.2995141
  86.8264257 104.9026428 133.7664072  85.9390112 105.1876078 133.5484266
  87.2418246 104.7420191 132.9191348  85.9707471 114.6671102 127.8612091
  86.6743321 114.8721105 128.4769747  85.2470119 115.2347864 128.1261175
  80.8436186 101.1093854 130.8552209  80.8314856 102.0535694 131.0120480
  81.7359608 100.9263999 130.5611670  84.6588305  97.7036630 135.1098146
  83.8920701  97.1495117 135.2554828  85.0699010  97.7758499 135.9712298
  40.5585753  31.4559689 117.9683915  39.9073732  32.0413769 117.5817929
  41.3530115  31.9865884 118.0278953  34.4841380  28.5448826 118.3671050
  35.2572256  27.9977813 118.2283926  34.8366779  29.4093076 118.5785511
  36.8207658  24.7041492 115.9989500  37.0733178  24.1823014 115.2372963
  35.8832217  24.5407638 116.1016183  42.0361018  29.1450121 118.5052900
  41.4006851  29.2184748 119.2173804  41.7058424  29.7343720 117.8271979
  36.2637087  36.3230944 121.5358711  36.1861117  37.2738769 121.6147191
  35.6598731  35.9776817 122.1933637  44.2015261  24.0248776 118.7148913
  45.1133117  24.2576163 118.5396611  43.6924908  24.6085820 118.1523992
  46.6874076  29.9429032 123.4606859  46.0025114  30.3227933 122.9103892
  46.7717925  30.5524359 124.1938806  53.1476828  26.8099695 124.5809531
  52.3940537  26.2407093 124.4253535  53.2824369  26.7762360 125.5280166
  38.5375456  31.6813097 120.2564250  38.4021131  32.5264633 120.6849098
  39.0785269  31.8832375 119.4930184  41.8518202  25.1952270 117.2935579
  41.3364826  25.9656875 117.5323966  41.5795511  24.5217406 117.9168640
  46.8252477  27.9484625 119.2288752  46.0481919  27.6095784 118.7843914
  47.5043958  27.9537248 118.5543717  40.0850938  29.2269586 120.7688314
  39.5572299  28.4922345 120.4561551  39.5838440  30.0044262 120.5228282
  38.2303538  27.0449796 113.7723287  37.3230599  26.8139049 113.9714436
  38.7274570  26.2487415 113.9597269  41.1371617  35.7547303 116.6919973
  40.4633315  36.0579000 117.3004931  41.5237439  36.5576384 116.3425430
  39.4091771  27.1462391 118.2947277  38.5002990  26.8621424 118.3919747
  39.4386855  27.5661469 117.4350584  44.6411039  30.7568980 122.0638445
  44.1873366  29.9159890 122.1203635  44.0105005  31.3930379 122.4013225
  43.0843978  32.5945477 122.9988263  43.3766952  33.1550534 122.2800628
  43.5942598  32.8874038 123.7541422  39.1067859  28.6871135 115.6335356
  38.6687289  27.9706993 115.1740993  39.8478300  28.9147249 115.0720447
  47.2240974  26.9628332 121.6911674  47.0858872  27.1529928 120.7632863
  46.8677193  27.7247714 122.1479725  39.3362832  35.9226976 118.9067052
  39.5114587  35.4515019 119.7212675  38.6495620  36.5492742 119.1348313
  43.2279087  27.5455516 115.2267413  42.6108257  26.8202344 115.1300466
  42.7595575  28.3064876 114.8834488  35.0177632  21.7640940 114.3488718
  34.1407099  21.6429741 113.9850964  35.4935386  20.9727019 114.0967606
  38.2041558  34.1167231 121.5951238  37.4209080  34.6588911 121.6889463
  38.9034304  34.6341210 121.9945479  42.5967989  28.6833548 121.8123867
  41.6624268  28.8035010 121.6428571  42.7744658  27.7806014 121.5483877
  44.0516772  30.8694688 119.3460053  44.3276616  30.7551283 120.2553927
  43.1821270  30.4712173 119.3072226  40.6870836  35.1181039 122.9892867
  40.8693230  34.3002695 123.4520619  41.5103822  35.3348731 122.5517757
  41.0213001  34.0449224 120.2507915  41.5500768  33.5341679 119.6378077
  41.2841221  33.7291754 121.1153448  44.1153185  34.0166022 120.8662898
  44.2890062  33.4512445 120.1136751  44.6082076  34.8166917 120.6842388
  49.9692576  26.7802445 122.4853198  50.4123722  26.0309770 122.0872321
  49.0919086  26.7712582 122.1026930  45.1028357  33.3332787 117.9659796
  45.7979262  33.9539479 118.1847111  45.4451507  32.4828138 118.2412174
  47.0019780  30.7832492 119.4947127  47.5271105  31.1219765 118.7696447
  46.9142133  29.8479508 119.3110262  38.6860441  36.8504475 123.8542380
  38.2465431  36.3580854 124.5475237  39.4368558  36.3077443 123.6134456
  35.6947820  30.9446408 119.4023143  35.8435941  31.6281872 118.7489815
  36.5014264  30.9251498 119.9172598  49.5125441  28.2507684 124.8775645
  50.3472332  28.6897488 125.0413206  49.6484569  27.7746337 124.0583891
  39.1943226  33.4394538 116.8734890  38.6217193  34.0584725 116.4205362
  39.7676019  33.9893900 117.4074812  42.4140486  33.7231688 118.0043472
  43.3471159  33.6577250 118.2076348  42.3263698  34.5587955 117.5458005
  45.0428502  33.0397559 114.9647420  44.9642134  32.7057422 115.8583178
  45.8638169  33.5319327 114.9638892  39.5790024  24.7755351 114.2150942
  40.5249129  24.6461559 114.2839361  39.2004269  24.0370013 114.6920371
  37.7632941  22.7005327 114.1505828  36.8564397  22.4038440 114.2268541
  38.0408922  22.4035146 113.2840114  36.5331726  19.5592263 114.2917807
  37.3950890  19.8847161 114.5513624  36.7182070  18.7723759 113.7790873
  42.6132454  30.3565554 114.5857398  43.3168304  30.5615557 115.2015054
  41.8895103  30.9242316 114.8506482  43.4430264  26.1075415 120.7059668
  43.3865466  26.5643967 119.8667301  43.9958607  25.3466100 120.5282511
  44.5219151  30.7948083 116.6355858  45.3564755  30.3629282 116.4533333
  44.3603494  30.6230097 117.5632753  44.1765044  27.2980197 118.0012198
  44.1213847  27.1324468 117.0600642  43.5511099  28.0056230 118.1574387
  53.1503426  41.3117735 126.7311035  53.7881836  41.1924482 126.0274375
  53.0324269  42.2598578 126.7898987  49.9593133  41.2645163 126.6672560
  49.6211644  41.1486227 125.7793094  50.8282901  40.8636328 126.6473566
  45.8179948  43.1180639 122.6569451  45.2544814  43.0270576 121.8885738
  45.7032344  42.2980544 123.1371943  50.4412916  42.4180014 132.6258765
  50.4301557  42.0232813 131.7539269  50.6033555  41.6846087 133.2192537
  43.3644380  44.6131831 125.4953671  44.1565672  44.2722655 125.0799970
  43.6041031  44.7226806 126.4155824  51.3979507  46.7851607 117.9683915
  50.7467487  47.3705687 117.5817929  52.1923870  47.3157802 118.0278953
  45.3235134  43.8740744 118.3671050  46.0966010  43.3269731 118.2283926
  45.6760533  44.7384993 118.5785511  47.1620177  45.2017126 131.5737949
  46.8710043  46.1062757 131.4584615  47.7977161  45.2433654 132.2882019
  48.0876384  42.5793975 128.1639309  48.6839956  42.3549997 127.4496272
  48.1451355  41.8378720 128.7664757  47.6601412  40.0333410 115.9989500
  47.9126933  39.5114931 115.2372963  46.7225971  39.8699555 116.1016183
  52.7044695  39.0369188 123.8064243  53.4907784  38.6188612 123.4554660
  52.9683399  39.9415281 123.9745891  52.8754772  44.4742039 118.5052900
  52.2400605  44.5476665 119.2173804  52.5452179  45.0635638 117.8271979
  58.1053122  38.9744422 124.7097221  58.8378294  38.4043638 124.9435051
  57.3492478  38.5866022 125.1503727  47.3797701  41.9361516 118.2013875
  47.2633959  41.2606419 118.8694959  47.4899961  41.4493890 117.3846028
  49.7229242  41.3971663 121.9060564  49.3587449  40.8702284 122.6173485
  50.5796358  41.0070132 121.7327049  55.6278542  32.6865996 129.1691830
  55.2961867  33.5561407 128.9453045  55.0324156  32.3702280 129.8485860
  49.3634729  36.4261563 116.9021912  49.5309131  37.2941799 117.2692384
  49.1731898  36.5888844 115.9783202  52.1210062  44.8878542 128.5687743
  51.8210785  45.7903580 128.4603550  51.7761121  44.6210725 129.4208896
  45.5722543  41.3392339 124.6024447  44.6473040  41.2068553 124.8102139
  45.8206957  42.1186558 125.0994390  55.5207206  37.4061082 126.2485180
  54.6124083  37.3376490 125.9543941  55.4694802  37.8833027 127.0767006
  49.3423950  38.8819220 117.8868579  49.2223575  39.3276271 118.7254060
  48.6476538  39.2304538 117.3282117  42.9331354  40.9825612 125.4368236
  43.0623736  41.2360091 126.3507648  42.2528806  41.5753320 125.1172891
  47.1030842  51.6522862 121.5358711  47.0254871  52.6030687 121.6147191
  46.4992485  51.3068735 122.1933637  57.3868852  35.6077520 128.0263054
  56.7443232  35.9010053 127.3802849  56.8823781  35.4930441 128.8316251
  55.0409016  39.3540693 118.7148913  55.9526872  39.5868080 118.5396611
  54.5318663  39.9377738 118.1523992  53.3249783  43.7765321 132.3510206
  53.7333140  43.3347732 131.6064838  52.6027045  43.2017949 132.6044399
  49.6780854  38.7137928 129.7243763  50.5242049  39.1377342 129.8678412
  49.6179491  38.0571552 130.4182326  53.6478598  44.3366512 126.1062495
  53.0187461  44.5012226 125.4038563  53.2604260  44.7508121 126.8773459
  57.5267830  45.2720950 123.4606859  56.8418868  45.6519851 122.9103892
  57.6111679  45.8816276 124.1938806  54.7818762  42.9180909 130.0602202
  54.9935657  43.5612669 129.3836583  54.7348510  42.0843225 129.5924132
  52.3844991  35.5298729 126.9638774  51.5229470  35.8279983 127.2555512
  52.4107425  35.7469128 126.0319807  49.2006560  44.0740920 123.3712580
  49.6644906  44.3528623 122.5817202  48.9363358  43.1724365 123.1885671
  46.0930641  43.6212402 126.3092343  46.6631998  44.0499670 125.6709828
  46.6838753  43.3394986 127.0076529  48.1375446  40.1964072 120.1802145
  48.8399489  40.6485116 120.6476071  47.8056075  39.5547891 120.8082038
  41.8800780  38.4547625 125.4819279  41.0899834  38.7105154 125.0059389
  42.3712027  39.2695963 125.5871319  55.8964590  45.7952864 128.2324559
  56.7182033  45.3933051 127.9507241  55.8926992  45.6921098 129.1840675
  43.8315525  38.8192204 122.4402755  43.0346689  38.9310899 122.9586251
  43.6041118  39.1578856 121.5743646  49.6621193  45.3436907 130.3885270
  49.7265626  45.8057315 131.2243442  48.9532117  44.7134272 130.5167580
  63.9870583  42.1391613 124.5809531  63.2334291  41.5699011 124.4253535
  64.1218124  42.1054277 125.5280166  49.3769211  47.0105015 120.2564250
  49.2414885  47.8556551 120.6849098  49.9179023  47.2124293 119.4930184
  42.8298608  44.5280453 120.8292175  43.3423129  45.3223703 120.9797740
  43.4821321  43.8306743 120.7625777  44.6393493  47.6446209 122.9114929
  44.8160121  48.5664174 122.7235912  45.4350326  47.3304629 123.3409308
  51.0037687  47.6328581 134.3864592  50.5601541  46.8464960 134.0685497
  51.6654901  47.8207732 133.7208483  45.7624808  49.1624383 128.9125271
  46.3132233  49.0341446 128.1402265  44.9236284  49.4619272 128.5620164
  53.1018925  47.9131381 132.4145994  53.0837400  48.7340262 131.9226263
  54.0238845  47.7885457 132.6396135  49.5591979  45.4275511 133.2569502
  50.0920316  44.6663799 133.0268810  49.0306060  45.1349163 133.9993656
  40.7947525  42.8569107 121.6051746  41.6322747  43.2666116 121.3885454
  40.9725793  41.9168549 121.5751940  52.6911957  40.5244188 117.2935579
  52.1758580  41.2948793 117.5323966  52.4189265  39.8509324 117.9168640
  50.2759068  35.3693889 122.3520817  49.4200664  34.9800739 122.1726456
  50.6886020  35.4485850 121.4920603  51.8058215  32.9040232 126.7512377
  51.3023010  32.8670367 125.9380182  52.0988822  33.8132975 126.8109034
  48.0501101  32.9878962 125.7578559  48.9154097  32.7921770 125.3984448
  48.1178609  32.7589314 126.6847915  57.6646231  43.2776543 119.2288752
  56.8875674  42.9387702 118.7843914  58.3437712  43.2829166 118.5543717
  52.4798260  38.3971280 119.1195360  52.1748396  38.7117429 119.9705503
  53.4328702  38.4752700 119.1622693  50.9244692  44.5561503 120.7688314
  50.3966054  43.8214263 120.4561551  50.4232195  45.3336180 120.5228282
  55.9037538  42.7510524 125.8855360  55.2461212  43.4409785 125.9735489
  56.7077937  43.1406956 126.2289347  45.6563420  35.2181170 123.1294925
  46.2307172  34.9956351 122.3968118  46.2434402  35.2869864 123.8823527
  54.7142997  41.1054897 123.9359302  55.2274879  41.7384888 124.4381012
  55.3644221  40.5056092 123.5702662  45.9833007  37.2485631 117.1490811
  45.1470319  37.5860317 117.4700085  45.8437776  37.1134610 116.2117948
  47.9586087  32.0922419 121.8569995  47.3050500  31.7771436 121.2326610
  47.9166561  31.4698159 122.5829818  49.0697292  42.3741714 113.7723287
  48.1624354  42.1430967 113.9714436  49.5668324  41.5779333 113.9597269
  51.9765371  51.0839221 116.6919973  51.3027070  51.3870918 117.3004931
  52.3631193  51.8868301 116.3425430  51.1923828  38.5804352 126.1817643
  50.2746389  38.8019299 126.0239331  51.6083971  38.6550663 125.3229350
  51.9758875  39.9795768 121.3120323  52.7230694  40.4917165 121.0027445
  52.2450465  39.6579821 122.1724716  50.2485526  42.4754309 118.2947277
  49.3396745  42.1913341 118.3919747  50.2780609  42.8953387 117.4350584
  55.4804793  46.0860898 122.0638445  55.0267120  45.2451808 122.1203635
  54.8498760  46.7222296 122.4013225  54.4237713  37.0152884 123.2939112
  53.6860469  36.5030270 123.6249355  54.6764486  36.5753266 122.4822389
  53.9237732  47.9237395 122.9988263  54.2160707  48.4842452 122.2800628
  54.4336353  48.2165956 123.7541422  54.5249340  29.7929136 123.8880881
  54.8308217  28.9326499 123.6006796  55.2501945  30.3846756 123.6879875
  40.8173696  40.1959823 122.2762479  40.6198096  39.6029183 121.5513546
  40.2620360  39.8912033 122.9938418  48.7970420  40.0882929 124.3957072
  48.8519029  39.1356766 124.3199549  47.9861622  40.2442368 124.8798371
  49.9461613  44.0163052 115.6335356  49.5081043  43.2998911 115.1740993
  50.6872054  44.2439167 115.0720447  46.7362780  38.7059989 122.1547451
  45.9230645  39.0054159 122.5612643  47.2321774  38.3115678 122.8721934
  48.8871357  48.7017746 124.0881716  48.8447536  48.9278592 123.1590248
  49.8034056  48.4681120 124.2367517  52.3336991  39.1701813 130.9862345
  52.6886379  39.3973286 131.8456811  52.9809122  39.5020190 130.3639601
  58.0634728  42.2920249 121.6911674  57.9252627  42.4821845 120.7632863
  57.7070947  43.0539632 122.1479725  46.2276854  36.2778344 127.7708686
  46.8676234  36.1367103 127.0731650  45.3954385  35.9912858 127.3947288
  58.0904108  44.3596776 126.7022946  58.5240614  44.2672065 127.5506000
  58.8035689  44.3354277 126.0642962  47.0037158  45.5780775 123.8843679
  47.7977757  45.0831095 123.6826254  46.2928851  45.0498638 123.5211384
  51.8232003  47.9598870 128.2356046  51.8769025  48.5289807 129.0033762
  50.9546784  48.1300755 127.8710083  43.3119922  39.7223857 119.9603431
  42.3817510  39.6608312 120.1773394  43.4077394  39.1999809 119.1640073
  43.2305471  36.2478669 122.5481673  43.4912288  37.1624003 122.4390834
  44.0522643  35.7803112 122.6978286  58.9519657  44.4020477 129.2355831
  59.1455547  45.3066287 129.4815106  58.8520276  43.9427896 130.0694416
  54.0134766  44.5527220 134.8096712  53.8620272  44.3237771 133.8926795
  54.0039446  45.5097821 134.8228057  50.7820102  42.1259132 129.7942978
  51.7112162  42.2770292 129.6211946  50.3611132  42.2143153 128.9391625
  49.5808434  46.1509797 127.5641516  49.4419520  45.7828581 128.4367454
  48.7923030  46.6657436 127.3925474  50.1756586  51.2518893 118.9067052
  50.3508342  50.7806936 119.7212675  49.4889374  51.8784659 119.1348313
  51.1313649  45.5291399 124.9530354  50.7963482  45.4892169 125.8488004
  50.6317595  44.8636115 124.4800764  54.0672841  42.8747434 115.2267413
  53.4502012  42.1494262 115.1300466  53.5989329  43.6356794 114.8834488
  47.7340194  40.6478989 129.9666614  48.4439813  40.0072181 129.9253233
  47.6909502  40.8991884 130.8892795  55.7226973  47.5846342 132.8873194
  55.6639519  46.9005562 132.2203777  56.1246491  48.3265332 132.4353820
  44.7417671  54.4008256 125.6806913  44.9814270  55.0326780 126.3585931
  43.8986868  54.0496296 125.9672272  45.8571387  37.0932858 114.3488718
  44.9800853  36.9721659 113.9850964  46.3329140  36.3018936 114.0967606
  55.7244380  45.5485926 131.1187173  54.8371159  45.2111848 131.2413572
  56.2942931  44.8168957 131.3555939  37.3773527  41.8810018 124.4430225
  38.0644567  41.5671748 123.8551240  37.2221656  42.7851383 124.1697476
  49.2545533  50.2087378 128.0848417  49.1815705  51.0142350 128.5967721
  48.8122926  50.4079344 127.2596438  49.0435313  49.4459148 121.5951238
  48.2602835  49.9880829 121.6889463  49.7428058  49.9633128 121.9945479
  52.3531963  35.2553778 124.2385443  52.8500663  34.5023740 123.9186514
  51.5818945  35.2918095 123.6728653  60.2061720  40.9594143 125.8803735
  60.1951597  41.8418859 125.5097668  59.3379100  40.6065694 125.6858272
  51.7144217  50.1074212 130.2406575  52.4272189  50.7421677 130.1682477
  51.2234246  50.2038078 129.4246577  53.4361744  44.0125465 121.8123867
  52.5018023  44.1326928 121.6428571  53.6138412  43.1097932 121.5483877
  48.9366932  37.3971161 123.9657128  48.5664719  36.8442201 124.6538034
  49.4326024  36.7929294 123.4132128  56.8234295  39.8542784 122.3473901
  57.2894747  40.6870776 122.2734204  57.2741796  39.3887766 123.0519159
  46.7656130  47.8568656 131.0612146  47.4665590  48.4905139 131.2141540
  46.2951245  48.1983388 130.3007785  54.8910526  46.1986606 119.3460053
  55.1670370  46.0843200 120.2553927  54.0215025  45.8004091 119.3072226
  54.7950958  32.2223371 126.3864802  53.8814038  32.4527598 126.5547009
  55.2244059  32.3061816 127.2378835  54.5657416  40.4113263 128.8864696
  53.9128867  40.6589171 128.2317149  54.9437796  39.5977402 128.5527174
  51.5264590  50.4472957 122.9892867  51.7086985  49.6294613 123.4520619
  52.3497576  50.6640649 122.5517757  51.8606756  49.3741142 120.2507915
  52.3894522  48.8633596 119.6378077  52.1234975  49.0583672 121.1153448
  42.3623848  47.3905011 127.9943249  42.9477285  46.6448699 128.1271153
  42.1648687  47.7008968 128.8779913  45.2162504  50.4256258 123.0105691
  44.5472879  50.9102386 122.5269731  45.0775373  50.6725479 123.9249070
  49.3567772  52.4600002 129.6088349  49.9086080  52.6231623 130.3737435
  49.6973966  53.0504440 128.9368374  54.2078647  47.2861259 135.4637004
  54.7518551  47.8991218 134.9691959  53.6265491  47.8440838 135.9804017
  40.5850081  38.6874713 119.7901623  40.8803522  37.7785392 119.7368677
  39.6838117  38.6662453 119.4682626  52.4936160  50.4081977 126.5952032
  52.3687299  49.6071717 126.0862977  53.1515251  50.9028171 126.1066002
  44.1144328  36.7630710 125.7729172  43.3930914  37.3766678 125.6336645
  44.9037584  37.2988475 125.6945818  54.5571068  48.2090998 128.2231582
  53.6101403  48.0896349 128.1509908  54.9053841  47.3213496 128.3057843
  42.3137922  36.3688811 119.9140948  41.9850629  35.4886190 119.7316054
  42.6677293  36.3136480 120.8017338  51.5617501  48.0043714 124.4235934
  51.4142464  47.0760421 124.6043504  52.3870995  48.0263804 123.9393009
  45.4279746  36.6561781 120.2816426  45.7675818  37.1847702 119.5595034
  45.8751866  36.9942187 121.0574993  55.1651623  48.8272272 125.5100807
  56.0898171  48.6215134 125.3725258  54.9966926  48.5788674 126.4190148
  47.4147893  35.1536402 118.4809719  48.1356255  35.5317655 117.9773436
  46.7913197  35.8725279 118.5844697  51.5579016  35.8581551 119.4168051
  51.7742630  36.7406189 119.1156879  51.0773083  35.4667765 118.6873693
  46.2978237  38.8167265 125.9938796  46.1522818  39.1307568 126.8863077
  45.8203441  39.4352165 125.4409694  48.1574620  35.8069813 126.0419685
  48.1436189  34.9110906 125.7051983  48.8747048  35.8140476 126.6757971
  50.0100751  36.2407153 128.0872813  49.7518528  37.1624223 128.0857143
  49.4785791  35.8437587 128.7773277  54.9546939  49.3457940 120.8662898
  55.1283817  48.7804362 120.1136751  55.4475831  50.1458835 120.6842388
  40.7723899  41.3572609 128.9326457  40.2277367  42.1332417 129.0646731
  41.6503249  41.7043413 128.7745578  47.5611516  34.6884193 121.3107255
  47.6827427  33.7600839 121.5098143  47.2713558  34.7022879 120.3985571
  50.4302706  32.3739103 124.4473975  50.4524403  32.4378436 123.4925955
  50.8470765  31.5343612 124.6414481  60.8086330  42.1094363 122.4853198
  61.2517476  41.3601688 122.0872321  59.9312841  42.1004499 122.1026930
  55.9422112  48.6624704 117.9659796  56.6373016  49.2831397 118.1847111
  56.2845262  47.8120056 118.2412174  57.8413535  46.1124410 119.4947127
  58.3664859  46.4511683 118.7696447  57.7535887  45.1771425 119.3110262
  49.5033584  50.0258484 131.6237004  49.8120710  49.7807630 132.4959703
  50.3009066  50.2305122 131.1355874  49.5254196  52.1796393 123.8542380
  49.0859186  51.6872772 124.5475237  50.2762313  51.6369361 123.6134456
  42.0046535  48.3707934 123.8567008  42.8304555  48.0711706 123.4765652
  41.6540587  47.6015556 124.3056797  46.9728068  47.7234402 125.9264682
  46.3508077  47.0605107 125.6266910  47.6432935  47.7495534 125.2438330
  40.2055140  46.2894260 124.8155942  39.3687048  45.8616435 124.6339943
  40.1778785  46.4826704 125.7526733  57.5307441  46.7457314 134.7998325
  56.7402985  46.7281452 134.2602825  57.2940796  47.2845607 135.5547362
  57.6505316  43.5949780 132.1131054  57.7003321  43.4299787 133.0546576
  57.5419239  42.7277039 131.7228934  46.5341575  46.2738326 119.4023143
  46.6829695  46.9573790 118.7489815  47.3408018  46.2543416 119.9172598
  59.1523513  46.0146721 132.3573075  58.8608321  46.3776702 133.1936536
  58.5395644  45.3013730 132.1786407  60.3519195  43.5799601 124.8775645
  61.1866087  44.0189405 125.0413206  60.4878324  43.1038254 124.0583891
  57.4010701  41.1379336 130.8253133  57.8764823  41.3306982 130.0171985
  56.4776266  41.1938522 130.5796517  44.2894208  42.3003503 120.4084211
  44.0440250  41.3965833 120.6064422  44.4590122  42.3020654 119.4663689
  43.5589855  38.0331861 117.9070373  42.8659100  38.1076216 117.2510409
  43.3141607  37.2692204 118.4291890  52.2303512  29.5927462 125.3109864
  52.5105266  28.9250651 125.9370290  53.0154119  29.7856558 124.7984527
  50.0336980  48.7686456 116.8734890  49.4610947  49.3876643 116.4205362
  50.6069774  49.3185818 117.4074812  56.1012370  38.0145096 129.0581439
  57.0529793  38.1143194 129.0793663  55.9315821  37.2223365 129.5679523
  54.1226750  35.1000679 129.2440840  53.5276682  35.3805692 128.5487328
  53.8376446  35.5894580 130.0157581  53.2534240  49.0523606 118.0043472
  54.1864913  48.9869168 118.2076348  53.1657453  49.8879873 117.5458005
  55.8822257  48.3689476 114.9647420  55.8035888  48.0349340 115.8583178
  56.7031923  48.8611244 114.9638892  58.5800448  41.2351216 128.1723738
  58.5476768  40.2967217 128.3583422  59.1901072  41.3135253 127.4389563
  50.4183779  40.1047269 114.2150942  51.3642883  39.9753477 114.2839361
  50.0398024  39.3661931 114.6920371  58.7294936  38.0262259 128.2182022
  58.2133985  37.2420716 128.0311950  59.6134885  37.6980976 128.3828541
  56.3905663  31.7703275 124.1777834  56.1930484  31.4618363 125.0621166
  57.0005369  32.4964914 124.3075764  64.3976998  42.2967223 127.3129775
  65.1280386  42.0352511 127.8737479  63.7883943  41.5595945 127.3531843
  62.4792295  40.4375085 127.9104226  61.7525458  40.3031050 127.3020718
  62.0639582  40.7451914 128.7160944  48.6026696  38.0297245 114.1505828
  47.6958151  37.7330358 114.2268541  48.8802677  37.7327063 113.2840114
  39.5204636  39.3503609 124.6004874  39.2007421  38.4968917 124.3079248
  38.9738064  39.5652187 125.3562841  43.2984544  42.0666050 128.3174381
  43.5170554  42.9983157 128.3362414  43.7110318  41.7074024 129.1029184
  50.2188762  32.5734135 120.3050069  49.4089490  32.2281220 120.6805315
  50.9073179  32.2641679 120.8937681  52.1479310  31.6512182 121.9274366
  52.7010349  32.0707635 122.5864389  52.3849396  30.7247930 121.9697322
  47.3725481  34.8884180 114.2917807  48.2344645  35.2139079 114.5513624
  47.5575825  34.1015676 113.7790873  39.3892896  42.9706520 126.5697996
  38.6956368  42.5560473 126.0567950  40.1365887  43.0127057 125.9731415
  55.5258117  33.7612707 121.4353030  54.9456786  34.4197511 121.0531082
  55.2594050  32.9390051 121.0240447  53.9761683  33.1617765 123.6374350
  54.4761462  33.2734299 122.8288669  54.6197291  32.8578817 124.2775159
  41.3029639  42.9024774 124.4464011  41.2800327  43.0012461 123.4945894
  41.6130275  43.7489925 124.7681177  43.9617017  44.9600929 128.5610625
  44.9160270  44.9284871 128.4940557  43.7629540  44.4991553 129.3760851
  44.5516399  43.5302045 131.1281423  45.3709288  44.0246124 131.1516260
  44.8253207  42.6134013 131.0998990  54.3082995  35.9212797 120.4909378
  53.4208850  36.2062448 120.2729573  54.7236984  35.7606561 119.6436655
  57.6597531  35.9459318 124.2063717  58.4357921  36.4355771 124.4788334
  56.9345665  36.3717372 124.6635587  60.0970090  36.6586937 125.2637658
  60.6914581  36.4182673 124.5530966  60.1696673  35.9394068 125.8911194
  42.3167245  50.5020548 125.5780823  42.1821713  49.7420949 125.0118821
  41.8999308  51.2261448 125.1109612  53.4526208  45.6857472 114.5857398
  54.1562059  45.8907474 115.2015054  52.7288857  46.2534234 114.8506482
  54.2824019  41.4367333 120.7059668  54.2259220  41.8935885 119.8667301
  54.8352361  40.6758018 120.5282511  58.0928825  37.2257065 121.5309788
  57.8365759  36.8253701 122.3617995  57.4681693  37.9400859 121.4059927
  62.4041163  39.9653138 124.0381079  61.8440720  40.0346328 124.8112641
  61.7984666  39.7894123 123.3180575  45.4736371  51.3989865 125.7899265
  45.3568755  52.3435298 125.6877956  44.6528818  51.0963427 126.1785065
  55.3612906  46.1240001 116.6355858  56.1958510  45.6921200 116.4533333
  55.1997249  45.9522015 117.5632753  55.0158798  42.6272114 118.0012198
  54.9607602  42.4616386 117.0600642  54.3904853  43.3348147 118.1574387
  48.3254924  32.1280223 117.5797516  48.3133593  33.0722063 117.7365787
  49.2178345  31.9450369 117.2856977  46.4990885  52.0518127 129.0055194
  47.4018132  52.0841738 129.3221689  46.2728256  51.1218578 129.0201530
  48.2544487  50.8049114 125.6665273  47.3040118  50.8050975 125.5529645
  48.5576974  50.0581848 125.1501307  52.1407043  28.7223000 121.8343453
  51.3739439  28.1681487 121.9800135  52.5517748  28.7944869 122.6957604
  63.9897181  56.6409652 126.7311035  64.6275591  56.5216400 126.0274375
  63.8718024  57.5890496 126.7898987  60.7986887  56.5937080 126.6672560
  60.4605399  56.4778145 125.7793094  61.6676655  56.1928245 126.6473566
  56.6573703  58.4472557 122.6569451  56.0938568  58.3562494 121.8885738
  56.5426098  57.6272461 123.1371943  61.2806670  57.7471932 132.6258765
  61.2695311  57.3524730 131.7539269  61.4427310  57.0138005 133.2192537
  54.2038135  59.9423748 125.4953671  54.9959427  59.6014573 125.0799970
  54.4434785  60.0518723 126.4155824  62.2373262  62.1143524 117.9683915
  61.5861241  62.6997605 117.5817929  63.0317624  62.6449719 118.0278953
  56.1628889  59.2032662 118.3671050  56.9359765  58.6561649 118.2283926
  56.5154288  60.0676911 118.5785511  58.0013931  60.5309044 131.5737949
  57.7103797  61.4354675 131.4584615  58.6370916  60.5725571 132.2882019
  58.9270138  57.9085892 128.1639309  59.5233710  57.6841915 127.4496272
  58.9845110  57.1670638 128.7664757  58.4995167  55.3625328 115.9989500
  58.7520687  54.8406849 115.2372963  57.5619726  55.1991473 116.1016183
  63.5438449  54.3661106 123.8064243  64.3301539  53.9480529 123.4554660
  63.8077154  55.2707198 123.9745891  63.7148527  59.8033956 118.5052900
  63.0794360  59.8768583 119.2173804  63.3845933  60.3927555 117.8271979
  68.9446877  54.3036339 124.7097221  69.6772049  53.7335556 124.9435051
  68.1886232  53.9157940 125.1503727  58.2191455  57.2653434 118.2013875
  58.1027713  56.5898337 118.8694959  58.3293715  56.7785808 117.3846028
  60.5622996  56.7263581 121.9060564  60.1981204  56.1994202 122.6173485
  61.4190112  56.3362050 121.7327049  66.4672297  48.0157913 129.1691830
  66.1355622  48.8853324 128.9453045  65.8717910  47.6994197 129.8485860
  60.2028483  51.7553480 116.9021912  60.3702886  52.6233717 117.2692384
  60.0125652  51.9180762 115.9783202  62.9603816  60.2170459 128.5687743
  62.6604540  61.1195498 128.4603550  62.6154876  59.9502643 129.4208896
  56.4116298  56.6684256 124.6024447  55.4866794  56.5360470 124.8102139
  56.6600711  57.4478475 125.0994390  66.3600960  52.7353000 126.2485180
  65.4517838  52.6668408 125.9543941  66.3088556  53.2124944 127.0767006
  60.1817704  54.2111138 117.8868579  60.0617329  54.6568189 118.7254060
  59.4870293  54.5596456 117.3282117  53.7725109  56.3117530 125.4368236
  53.9017490  56.5652009 126.3507648  53.0922560  56.9045238 125.1172891
  57.9424596  66.9814780 121.5358711  57.8648626  67.9322605 121.6147191
  57.3386240  66.6360652 122.1933637  60.4341826  54.1542645 134.1920077
  59.6575160  54.7136565 134.1822942  61.0732389  54.6399428 134.7134948
  68.2262607  50.9369438 128.0263054  67.5836987  51.2301971 127.3802849
  67.7217535  50.8222358 128.8316251  65.8802770  54.6832611 118.7148913
  66.7920626  54.9159998 118.5396611  65.3712417  55.2669655 118.1523992
  58.6888198  56.9628098 133.7538044  59.4302883  57.5013142 133.4772868
  57.9825184  57.5894387 133.9109596  64.1643538  59.1057239 132.3510206
  64.5726894  58.6639649 131.6064838  63.4420799  58.5309866 132.6044399
  60.5174608  54.0429846 129.7243763  61.3635803  54.4669259 129.8678412
  60.4573246  53.3863470 130.4182326  64.4872353  59.6658430 126.1062495
  63.8581215  59.8304144 125.4038563  64.0998015  60.0800039 126.8773459
  68.3661585  60.6012867 123.4606859  67.6812623  60.9811769 122.9103892
  68.4505434  61.2108194 124.1938806  63.6674053  51.7034214 131.3824936
  63.4234985  52.4576275 130.8459212  63.9433984  52.0819562 132.2172184
  65.6212516  58.2472826 130.0602202  65.8329411  58.8904586 129.3836583
  65.5742264  57.4135143 129.5924132  63.2238745  50.8590647 126.9638774
  62.3623224  51.1571901 127.2555512  63.2501180  51.0761046 126.0319807
  60.0400315  59.4032838 123.3712580  60.5038660  59.6820541 122.5817202
  59.7757113  58.5016282 123.1885671  56.9324396  58.9504319 126.3092343
  57.5025753  59.3791588 125.6709828  57.5232507  58.6686904 127.0076529
  58.9769201  55.5255990 120.1802145  59.6793244  55.9777034 120.6476071
  58.6449829  54.8839809 120.8082038  57.4249562  54.1167747 134.5553354
  56.7948223  54.7984028 134.7888751  57.3185650  54.0050828 133.6106493
  52.7194535  53.7839543 125.4819279  51.9293589  54.0397071 125.0059389
  53.2105782  54.5987881 125.5871319  66.7358344  61.1244782 128.2324559
  67.5575788  60.7224969 127.9507241  66.7320747  61.0213016 129.1840675
  54.6709280  54.1484122 122.4402755  53.8740443  54.2602816 122.9586251
  54.4434872  54.4870774 121.5743646  60.5014948  60.6728825 130.3885270
  60.5659380  61.1349232 131.2243442  59.7925871  60.0426190 130.5167580
  51.0032238  54.0370033 127.9134269  51.2540276  54.9217043 128.1791845
  51.5391786  53.8574635 127.1409361  74.8264337  57.4683530 124.5809531
  74.0728046  56.8990928 124.4253535  74.9611878  57.4346195 125.5280166
  60.2162965  62.3396933 120.2564250  60.0808640  63.1848468 120.6849098
  60.7572778  62.5416210 119.4930184  56.7030305  48.4188513 136.9178605
  56.3097250  47.8654711 137.5926250  57.5196445  48.7299091 137.3085123
  53.6692363  59.8572371 120.8292175  54.1816883  60.6515621 120.9797740
  54.3215075  59.1598661 120.7625777  55.4787247  62.9738127 122.9114929
  55.6553876  63.8956092 122.7235912  56.2744081  62.6596546 123.3409308
  59.6198266  49.8346392 134.5098862  60.3607979  50.4353545 134.4303324
  59.8516189  49.0924029 133.9516905  54.7639604  55.0202759 132.7877092
  54.6493119  54.1188016 133.0884191  53.9084122  55.2666456 132.4361908
  61.8431442  62.9620499 134.3864592  61.3995296  62.1756878 134.0685497
  62.5048655  63.1499650 133.7208483  56.6018563  64.4916301 128.9125271
  57.1525988  64.3633364 128.1402265  55.7630039  64.7911190 128.5620164
  63.9412680  63.2423299 132.4145994  63.9231155  64.0632180 131.9226263
  64.8632600  63.1177374 132.6396135  60.3985734  60.7567429 133.2569502
  60.9314071  59.9955717 133.0268810  59.8699815  60.4641080 133.9993656
  63.5655429  45.8627495 128.7863144  63.2219698  46.7529136 128.7102254
  63.9334391  45.6729152 127.9232729  51.6341279  58.1861025 121.6051746
  52.4716501  58.5958033 121.3885454  51.8119547  57.2460467 121.5751940
  63.5305711  55.8536106 117.2935579  63.0152335  56.6240710 117.5323966
  63.2583020  55.1801242 117.9168640  61.1152823  50.6985806 122.3520817
  60.2594419  50.3092657 122.1726456  61.5279774  50.7777767 121.4920603
  62.6451969  48.2332150 126.7512377  62.1416765  48.1962285 125.9380182
  62.9382576  49.1424892 126.8109034  58.8894855  48.3170879 125.7578559
  59.7547852  48.1213688 125.3984448  58.9572364  48.0881231 126.6847915
  68.5039986  58.6068460 119.2288752  67.7269428  58.2679620 118.7843914
  69.1831467  58.6121083 118.5543717  63.3192015  53.7263198 119.1195360
  63.0142150  54.0409347 119.9705503  64.2722457  53.8044618 119.1622693
  61.7638446  59.8853421 120.7688314  61.2359808  59.1506181 120.4561551
  61.2625949  60.6628097 120.5228282  66.7431293  58.0802442 125.8855360
  66.0854967  58.7701703 125.9735489  67.5471692  58.4698873 126.2289347
  56.4957174  50.5473087 123.1294925  57.0700926  50.3248269 122.3968118
  57.0828157  50.6161782 123.8823527  65.5536751  56.4346814 123.9359302
  66.0668633  57.0676806 124.4381012  66.2037975  55.8348010 123.5702662
  56.8226761  52.5777548 117.1490811  55.9864073  52.9152235 117.4700085
  56.6831531  52.4426528 116.2117948  58.7979842  47.4214336 121.8569995
  58.1444254  47.1063353 121.2326610  58.7560316  46.7990077 122.5829818
  59.9091047  57.7033631 113.7723287  59.0018108  57.4722885 113.9714436
  60.4062079  56.9071251 113.9597269  62.8159126  66.4131139 116.6919973
  62.1420824  66.7162835 117.3004931  63.2024948  67.2160219 116.3425430
  62.0317582  53.9096270 126.1817643  61.1140144  54.1311217 126.0239331
  62.4477726  53.9842580 125.3229350  62.8152630  55.3087685 121.3120323
  63.5624449  55.8209083 121.0027445  63.0844219  54.9871738 122.1724716
  61.0879280  57.8046226 118.2947277  60.1790499  57.5205259 118.3919747
  61.1174364  58.2245305 117.4350584  66.3198548  61.4152816 122.0638445
  65.8660875  60.5743726 122.1203635  65.6892514  62.0514214 122.4013225
  65.2631467  52.3444802 123.2939112  64.5254224  51.8322188 123.6249355
  65.5158241  51.9045183 122.4822389  64.7631487  63.2529312 122.9988263
  65.0554461  63.8134369 122.2800628  65.2730107  63.5457873 123.7541422
  65.3643094  45.1221054 123.8880881  65.6701971  44.2618417 123.6006796
  66.0895699  45.7138674 123.6879875  51.6567450  55.5251740 122.2762479
  51.4591850  54.9321101 121.5513546  51.1014114  55.2203951 122.9938418
  59.6364174  55.4174847 124.3957072  59.6912784  54.4648683 124.3199549
  58.8255376  55.5734286 124.8798371  60.7855368  59.3454970 115.6335356
  60.3474798  58.6290829 115.1740993  61.5265809  59.5731085 115.0720447
  57.5756534  54.0351907 122.1547451  56.7624400  54.3346077 122.5612643
  58.0715528  53.6407595 122.8721934  59.7265112  64.0309663 124.0881716
  59.6841291  64.2570510 123.1590248  60.6427811  63.7973038 124.2367517
  63.1730746  54.4993731 130.9862345  63.5280133  54.7265204 131.8456811
  63.8202877  54.8312108 130.3639601  68.9028483  57.6212167 121.6911674
  68.7646381  57.8113763 120.7632863  68.5464702  58.3831550 122.1479725
  57.0670609  51.6070262 127.7708686  57.7069988  51.4659021 127.0731650
  56.2348139  51.3204775 127.3947288  68.9297862  59.6888694 126.7022946
  69.3634369  59.5963983 127.5506000  69.6429443  59.6646194 126.0642962
  57.8430913  60.9072692 123.8843679  58.6371511  60.4123013 123.6826254
  57.1322605  60.3790556 123.5211384  62.6625757  63.2890788 128.2356046
  62.7162779  63.8581724 129.0033762  61.7940539  63.4592673 127.8710083
  54.1513676  55.0515774 119.9603431  53.2211264  54.9900230 120.1773394
  54.2471148  54.5291727 119.1640073  54.0699225  51.5770587 122.5481673
  54.3306043  52.4915920 122.4390834  54.8916398  51.1095030 122.6978286
  55.5424151  52.9908344 129.7180498  56.2147204  52.7825706 129.0693147
  54.7153937  52.7930430 129.2785730  69.7913412  59.7312395 129.2355831
  69.9849302  60.6358205 129.4815106  69.6914030  59.2719814 130.0694416
  61.4449723  49.6170285 131.7346158  60.7977638  50.3160235 131.6410635
  62.2150738  50.0506429 132.1022407  64.8528521  59.8819137 134.8096712
  64.7014027  59.6529689 133.8926795  64.8433200  60.8389739 134.8228057
  61.6213857  57.4551050 129.7942978  62.5505917  57.6062210 129.6211946
  61.2004887  57.5435071 128.9391625  60.4202189  61.4801714 127.5641516
  60.2813274  61.1120499 128.4367454  59.6316785  61.9949354 127.3925474
  61.0150341  66.5810811 118.9067052  61.1902096  66.1098854 119.7212675
  60.3283129  67.2076577 119.1348313  61.9707404  60.8583317 124.9530354
  61.6357236  60.8184087 125.8488004  61.4711350  60.1928033 124.4800764
  55.9451648  56.2650947 130.4782935  55.8071446  55.5331186 131.0794474
  56.8556571  56.1759847 130.1967123  64.9066596  58.2039352 115.2267413
  64.2895766  57.4786180 115.1300466  64.4383084  58.9648712 114.8834488
  58.5733949  55.9770907 129.9666614  59.2833567  55.3364099 129.9253233
  58.5303257  56.2283801 130.8892795  66.5620727  62.9138260 132.8873194
  66.5033273  62.2297480 132.2203777  66.9640246  63.6557250 132.4353820
  57.2862882  52.9636124 131.7862254  56.7500240  52.5126863 132.4383850
  56.6979591  53.0982033 131.0432718  55.5811426  69.7300174 125.6806913
  55.8208024  70.3618698 126.3585931  54.7380622  69.3788214 125.9672272
  56.6965141  52.4224776 114.3488718  55.8194608  52.3013577 113.9850964
  57.1722895  51.6310854 114.0967606  66.5638134  60.8777844 131.1187173
  65.6764913  60.5403766 131.2413572  67.1336686  60.1460875 131.3555939
  48.2167282  57.2101936 124.4430225  48.9038321  56.8963666 123.8551240
  48.0615410  58.1143300 124.1697476  53.0202004  52.0992132 128.8715248
  52.9360192  51.4917802 128.1365658  52.1984710  52.5901150 128.8724745
  60.0939288  65.5379296 128.0848417  60.0209459  66.3434268 128.5967721
  59.6516681  65.7371262 127.2596438  59.8829067  64.7751066 121.5951238
  59.0996589  65.3172746 121.6889463  60.5821813  65.2925046 121.9945479
  63.1925718  50.5845696 124.2385443  63.6894417  49.8315658 123.9186514
  62.4212699  50.6210012 123.6728653  71.0455475  56.2886061 125.8803735
  71.0345351  57.1710777 125.5097668  70.1772854  55.9357612 125.6858272
  62.5537971  65.4366130 130.2406575  63.2665944  66.0713595 130.1682477
  62.0628000  65.5329996 129.4246577  64.2755498  59.3417383 121.8123867
  63.3411777  59.4618845 121.6428571  64.4532167  58.4389850 121.5483877
  59.7760686  52.7263079 123.9657128  59.4058474  52.1734119 124.6538034
  60.2719779  52.1221212 123.4132128  67.6628050  55.1834702 122.3473901
  68.1288502  56.0162694 122.2734204  68.1135550  54.7179684 123.0519159
  57.6049885  63.1860574 131.0612146  58.3059344  63.8197057 131.2141540
  57.1345000  63.5275305 130.3007785  65.7304281  61.5278523 119.3460053
  66.0064125  61.4135118 120.2553927  64.8608779  61.1296008 119.3072226
  65.6344712  47.5515289 126.3864802  64.7207792  47.7819516 126.5547009
  66.0637814  47.6353733 127.2378835  65.4051171  55.7405181 128.8864696
  64.7522621  55.9881089 128.2317149  65.7831551  54.9269319 128.5527174
  62.3658345  65.7764874 122.9892867  62.5480739  64.9586530 123.4520619
  63.1891331  65.9932567 122.5517757  62.7000510  64.7033059 120.2507915
  63.2288277  64.1925514 119.6378077  62.9628730  64.3875590 121.1153448
  61.4538744  56.4824992 135.3730733  60.7779381  56.3819121 136.0433109
  62.2766378  56.3264206 135.8366731  53.2017603  62.7196929 127.9943249
  53.7871040  61.9740617 128.1271153  53.0042441  63.0300885 128.8779913
  56.0556258  65.7548176 123.0105691  55.3866633  66.2394304 122.5269731
  55.9169128  66.0017397 123.9249070  47.7935258  55.2902529 126.7147692
  47.8319357  54.7566120 127.5084810  47.2875551  54.7637734 126.0958669
  60.1961527  67.7891920 129.6088349  60.7479835  67.9523541 130.3737435
  60.5367720  68.3796357 128.9368374  55.1726020  50.1367069 130.2110234
  55.2367346  50.9981900 129.7987632  55.1093140  49.5241071 129.4782593
  54.6478293  52.2090202 133.8583268  55.2750331  51.8267279 134.4720793
  53.7906211  51.9904404 134.2238961  65.0472401  62.6153177 135.4637004
  65.5912305  63.2283135 134.9691959  64.4659246  63.1732756 135.9804017
  51.4243835  54.0166631 119.7901623  51.7197276  53.1077309 119.7368677
  50.5231871  53.9954370 119.4682626  63.3329914  65.7373895 126.5952032
  63.2081054  64.9363635 126.0862977  63.9909005  66.2320088 126.1066002
  54.9538082  52.0922628 125.7729172  54.2324668  52.7058595 125.6336645
  55.7431338  52.6280392 125.6945818  65.3964822  63.5382915 128.2231582
  64.4495158  63.4188266 128.1509908  65.7447596  62.6505413 128.3057843
  57.7564396  49.4277054 132.0469824  58.2798798  49.6739351 132.8096133
  57.5376729  50.2597089 131.6272961  53.1531677  51.6980729 119.9140948
  52.8244383  50.8178108 119.7316054  53.5071048  51.6428397 120.8017338
  62.4011256  63.3335631 124.4235934  62.2536218  62.4052339 124.6043504
  63.2264749  63.3555722 123.9393009  56.2673500  51.9853699 120.2816426
  56.6069573  52.5139620 119.5595034  56.7145620  52.3234105 121.0574993
  66.0045378  64.1564190 125.5100807  66.9291925  63.9507051 125.3725258
  65.8360681  63.9080591 126.4190148  58.9616941  50.3690749 129.7319494
  58.6213761  49.5698562 130.1340174  58.2555947  50.6692460 129.1596327
  59.6133413  47.4540062 128.1846817  60.4359482  46.9800540 128.0625707
  59.8571476  48.2330545 128.6845503  58.2541647  50.4828320 118.4809719
  58.9750010  50.8609573 117.9773436  57.6306951  51.2017197 118.5844697
  62.3972770  51.1873469 119.4168051  62.6136384  52.0698107 119.1156879
  61.9166837  50.7959682 118.6873693  57.1371991  54.1459182 125.9938796
  56.9916572  54.4599485 126.8863077  56.6597195  54.7644083 125.4409694
  58.9968374  51.1361730 126.0419685  58.9829943  50.2402824 125.7051983
  59.7140802  51.1432394 126.6757971  60.8494505  51.5699070 128.0872813
  60.5912283  52.4916141 128.0857143  60.3179545  51.1729505 128.7773277
  65.7940694  64.6749858 120.8662898  65.9677571  64.1096280 120.1136751
  66.2869585  65.4750752 120.6842388  51.6117654  56.6864527 128.9326457
  51.0671122  57.4624335 129.0646731  52.4897003  57.0335331 128.7745578
  58.4005270  50.0176111 121.3107255  58.5221181  49.0892757 121.5098143
  58.1107313  50.0314797 120.3985571  61.2696461  47.7031021 124.4473975
  61.2918157  47.7670354 123.4925955  61.6864520  46.8635530 124.6414481
  71.6480085  57.4386281 122.4853198  72.0911231  56.6893606 122.0872321
  70.7706595  57.4296417 122.1026930  66.7815866  63.9916622 117.9659796
  67.4766771  64.6123315 118.1847111  67.1239016  63.1411973 118.2412174
  52.3983675  55.8134423 131.8256614  51.6565411  55.9617058 132.4121244
  52.0776420  56.0742689 130.9623363  68.6807289  61.4416328 119.4947127
  69.2058613  61.7803600 118.7696447  68.5929642  60.5063343 119.3110262
  60.3427338  65.3550401 131.6237004  60.6514465  65.1099548 132.4959703
  61.1402820  65.5597040 131.1355874  60.3647950  67.5088311 123.8542380
  59.9252940  67.0164690 124.5475237  61.1156067  66.9661278 123.6134456
  52.8440289  63.6999852 123.8567008  53.6698309  63.4003624 123.4765652
  52.4934341  62.9307474 124.3056797  57.8121822  63.0526320 125.9264682
  57.1901832  62.3897025 125.6266910  58.4826689  63.0787452 125.2438330
  51.0448894  61.6186178 124.8155942  50.2080802  61.1908352 124.6339943
  51.0172540  61.8118621 125.7526733  57.8846350  51.5308108 135.5197188
  57.9334505  52.4070231 135.1374958  58.4268864  50.9885501 134.9468831
  68.3701195  62.0749231 134.7998325  67.5796739  62.0573370 134.2602825
  68.1334550  62.6137525 135.5547362  68.4899071  58.9241698 132.1131054
  68.5397075  58.7591705 133.0546576  68.3812994  58.0568957 131.7228934
  57.3735329  61.6030243 119.4023143  57.5223450  62.2865708 118.7489815
  58.1801773  61.5835333 119.9172598  65.7802833  54.9072626 133.4290360
  66.6812696  54.7679090 133.1374358  65.8550807  55.0727080 134.3688538
  60.1145638  52.2839480 132.2743547  59.2448948  52.5773046 132.0026135
  60.3505119  52.8679925 132.9950810  69.9917267  61.3438639 132.3573075
  69.7002076  61.7068620 133.1936536  69.3789399  60.6305647 132.1786407
  71.1912950  58.9091519 124.8775645  72.0259841  59.3481323 125.0413206
  71.3272078  58.4330172 124.0583891  68.2404456  56.4671254 130.8253133
  68.7158577  56.6598900 130.0171985  67.3170021  56.5230440 130.5796517
  55.1287962  57.6295421 120.4084211  54.8834004  56.7257751 120.6064422
  55.2983877  57.6312571 119.4663689  62.8184672  48.5019097 129.7908967
  63.3366616  49.2380124 129.4655456  62.4639805  48.8083091 130.6255726
  54.3983610  53.3623778 117.9070373  53.7052855  53.4368133 117.2510409
  54.1535362  52.5984122 118.4291890  63.0697266  44.9219380 125.3109864
  63.3499020  44.2542569 125.9370290  63.8547873  45.1148475 124.7984527
  60.8730735  64.0978374 116.8734890  60.3004702  64.7168561 116.4205362
  61.4463528  64.6477735 117.4074812  66.9406125  53.3437014 129.0581439
  67.8923547  53.4435111 129.0793663  66.7709575  52.5515282 129.5679523
  64.9620504  50.4292597 129.2440840  64.3670436  50.7097610 128.5487328
  64.6770201  50.9186498 130.0157581  64.0927995  64.3815524 118.0043472
  65.0258668  64.3161086 118.2076348  64.0051207  65.2171791 117.5458005
  66.7216011  63.6981394 114.9647420  66.6429643  63.3641258 115.8583178
  67.5425678  64.1903162 114.9638892  69.4194202  56.5643133 128.1723738
  69.3870522  55.6259134 128.3583422  70.0294826  56.6427170 127.4389563
  61.2577533  55.4339186 114.2150942  62.2036638  55.3045395 114.2839361
  60.8791778  54.6953848 114.6920371  69.5688691  53.3554177 128.2182022
  69.0527739  52.5712634 128.0311950  70.4528639  53.0272894 128.3828541
  67.2299418  47.0995192 124.1777834  67.0324239  46.7910281 125.0621166
  67.8399123  47.8256831 124.3075764  75.2370752  57.6259140 127.3129775
  75.9674141  57.3644428 127.8737479  74.6277698  56.8887862 127.3531843
  73.3186049  55.7667003 127.9104226  72.5919213  55.6322968 127.3020718
  72.9033336  56.0743832 128.7160944  61.1416226  59.4856933 135.6751599
  62.0619235  59.6635532 135.8691646  61.1065809  58.5412978 135.5231299
  59.4420450  53.3589163 114.1505828  58.5351906  53.0622276 114.2268541
  59.7196431  53.0618981 113.2840114  50.3598391  54.6795526 124.6004874
  50.0401175  53.8260834 124.3079248  49.8131819  54.8944104 125.3562841
  54.1378298  57.3957967 128.3174381  54.3564308  58.3275075 128.3362414
  54.5504072  57.0365942 129.1029184  61.0582516  47.9026053 120.3050069
  60.2483244  47.5573138 120.6805315  61.7466933  47.5933596 120.8937681
  62.9873064  46.9804099 121.9274366  63.5404103  47.3999553 122.5864389
  63.2243151  46.0539847 121.9697322  59.0106164  52.9691173 137.7077130
  58.9102891  53.9185530 137.6389221  58.7927706  52.6409412 136.8353200
  58.2119235  50.2176098 114.2917807  59.0738399  50.5430996 114.5513624
  58.3969579  49.4307594 113.7790873  50.2286651  58.2998438 126.5697996
  49.5350122  57.8852391 126.0567950  50.9759642  58.3418974 125.9731415
  66.3651871  49.0904625 121.4353030  65.7850541  49.7489429 121.0531082
  66.0987804  48.2681969 121.0240447  64.8155438  48.4909682 123.6374350
  65.3155216  48.6026217 122.8288669  65.4591046  48.1870735 124.2775159
  58.8737434  56.3988312 136.5242191  58.3904515  57.1988672 136.7306080
  58.9598373  56.4096257 135.5709635  52.1423393  58.2316692 124.4464011
  52.1194081  58.3304379 123.4945894  52.4524030  59.0781842 124.7681177
  54.8010771  60.2892847 128.5610625  55.7554025  60.2576789 128.4940557
  54.6023295  59.8283470 129.3760851  55.3910153  58.8593963 131.1281423
  56.2103042  59.3538041 131.1516260  55.6646961  57.9425931 131.0998990
  65.1476749  51.2504715 120.4909378  64.2602605  51.5354366 120.2729573
  65.5630739  51.0898478 119.6436655  68.4991286  51.2751236 124.2063717
  69.2751676  51.7647688 124.4788334  67.7739420  51.7009290 124.6635587
  70.9363844  51.9878855 125.2637658  71.5308335  51.7474591 124.5530966
  71.0090428  51.2685986 125.8911194  53.1561000  65.8312466 125.5780823
  53.0215468  65.0712867 125.0118821  52.7393062  66.5553366 125.1109612
  64.2919963  61.0149390 114.5857398  64.9955813  61.2199392 115.2015054
  63.5682612  61.5826151 114.8506482  65.1217773  56.7659251 120.7059668
  65.0652975  57.2227802 119.8667301  65.6746116  56.0049935 120.5282511
  68.9322579  52.5548983 121.5309788  68.6759513  52.1545618 122.3617995
  68.3075447  53.2692777 121.4059927  73.2434917  55.2945056 124.0381079
  72.6834475  55.3638245 124.8112641  72.6378420  55.1186041 123.3180575
  56.3130126  66.7281783 125.7899265  56.1962510  67.6727216 125.6877956
  55.4922572  66.4255345 126.1785065  66.2006660  61.4531919 116.6355858
  67.0352264  61.0213117 116.4533333  66.0391003  61.2813932 117.5632753
  65.8552553  57.9564032 118.0012198  65.8001356  57.7908304 117.0600642
  65.2298608  58.6640065 118.1574387  50.6445068  53.1932096 131.8273620
  51.2903931  52.6831050 132.3160845  50.4362219  53.9300778 132.4017045
  63.1698460  60.2612944 137.3265760  64.0389619  60.4353596 136.9652395
  62.6905211  61.0807361 137.2041490  59.1648678  47.4572141 117.5797516
  59.1527348  48.4013981 117.7365787  60.0572100  47.2742286 117.2856977
  57.3384640  67.3810045 129.0055194  58.2411887  67.4133655 129.3221689
  57.1122010  66.4510496 129.0201530  59.0938242  66.1341031 125.6665273
  58.1433873  66.1342893 125.5529645  59.3970728  65.3873766 125.1501307
  62.9800797  44.0514918 121.8343453  62.2133193  43.4973404 121.9800135
  63.3911502  44.1236786 122.6957604  54.9842559  50.3399714 135.9248634
  55.8474020  49.9836518 136.1351959  54.4107969  50.0013608 136.6124038
  74.8290935  71.9701570 126.7311035  75.4669345  71.8508317 126.0274375
  74.7111778  72.9182414 126.7898987  71.6380642  71.9228998 126.6672560
  71.2999153  71.8070063 125.7793094  72.5070410  71.5220163 126.6473566
  67.4967457  73.7764474 122.6569451  66.9332323  73.6854411 121.8885738
  67.3819852  72.9564379 123.1371943  72.1200425  73.0763850 132.6258765
  72.1089066  72.6816648 131.7539269  72.2821064  72.3429922 133.2192537
  65.0431889  75.2715666 125.4953671  65.8353181  74.9306491 125.0799970
  65.2828540  75.3810641 126.4155824  73.0767016  77.4435442 117.9683915
  72.4254996  78.0289523 117.5817929  73.8711379  77.9741637 118.0278953
  67.0022643  74.5324579 118.3671050  67.7753519  73.9853566 118.2283926
  67.3548042  75.3968829 118.5785511  68.8407686  75.8600962 131.5737949
  68.5497552  76.7646592 131.4584615  69.4764670  75.9017489 132.2882019
  69.7663893  73.2377810 128.1639309  70.3627465  73.0133832 127.4496272
  69.8238864  72.4962556 128.7664757  69.3388921  70.6917245 115.9989500
  69.5914442  70.1698767 115.2372963  68.4013480  70.5283391 116.1016183
  74.3832204  69.6953024 123.8064243  75.1695293  69.2772447 123.4554660
  74.6470908  70.5999116 123.9745891  74.5542281  75.1325874 118.5052900
  73.9188114  75.2060501 119.2173804  74.2239688  75.7219473 117.8271979
  79.7840631  69.6328257 124.7097221  80.5165803  69.0627474 124.9435051
  79.0279987  69.2449857 125.1503727  69.0585210  72.5945351 118.2013875
  68.9421468  71.9190255 118.8694959  69.1687470  72.1077725 117.3846028
  71.4016751  72.0555498 121.9060564  71.0374958  71.5286119 122.6173485
  72.2583867  71.6653967 121.7327049  77.3066051  63.3449831 129.1691830
  76.9749376  64.2145242 128.9453045  76.7111665  63.0286115 129.8485860
  71.0422238  67.0845398 116.9021912  71.2096640  67.9525635 117.2692384
  70.8519407  67.2472680 115.9783202  73.7997571  75.5462377 128.5687743
  73.4998294  76.4487416 128.4603550  73.4548630  75.2794560 129.4208896
  67.2510052  71.9976174 124.6024447  66.3260549  71.8652388 124.8102139
  67.4994466  72.7770393 125.0994390  77.1994715  68.0644917 126.2485180
  76.2911592  67.9960326 125.9543941  77.1482311  68.5416862 127.0767006
  71.0211459  69.5403056 117.8868579  70.9011084  69.9860106 118.7254060
  70.3264047  69.8888373 117.3282117  64.6118863  71.6409447 125.4368236
  64.7411245  71.8943926 126.3507648  63.9316315  72.2337155 125.1172891
  71.2735581  69.4834563 134.1920077  70.4968915  70.0428483 134.1822942
  71.9126144  69.9691346 134.7134948  79.0656361  66.2661356 128.0263054
  78.4230741  66.5593889 127.3802849  78.5611290  66.1514276 128.8316251
  76.7196525  70.0124529 118.7148913  77.6314381  70.2451916 118.5396611
  76.2106172  70.5961573 118.1523992  69.5281953  72.2920016 133.7538044
  70.2696637  72.8305060 133.4772868  68.8218938  72.9186305 133.9109596
  75.0037292  74.4349157 132.3510206  75.4120649  73.9931567 131.6064838
  74.2814554  73.8601784 132.6044399  71.3568363  69.3721763 129.7243763
  72.2029558  69.7961177 129.8678412  71.2967000  68.7155388 130.4182326
  75.3266107  74.9950347 126.1062495  74.6974970  75.1596061 125.4038563
  74.9391769  75.4091957 126.8773459  79.2055339  75.9304785 123.4606859
  78.5206377  76.3103686 122.9103892  79.2899188  76.5400112 124.1938806
  74.5067808  67.0326132 131.3824936  74.2628740  67.7868192 130.8459212
  74.7827738  67.4111479 132.2172184  76.4606271  73.5764744 130.0602202
  76.6723166  74.2196504 129.3836583  76.4136019  72.7427061 129.5924132
  74.0632500  66.1882565 126.9638774  73.2016979  66.4863818 127.2555512
  74.0894934  66.4052964 126.0319807  70.8794069  74.7324755 123.3712580
  71.3432415  75.0112458 122.5817202  70.6150867  73.8308200 123.1885671
  67.7718150  74.2796237 126.3092343  68.3419507  74.7083505 125.6709828
  68.3626262  73.9978822 127.0076529  69.8162955  70.8547908 120.1802145
  70.5186998  71.3068951 120.6476071  69.4843584  70.2131727 120.8082038
  68.2643317  69.4459664 134.5553354  67.6341977  70.1275945 134.7888751
  68.1579404  69.3342746 133.6106493  63.5588289  69.1131460 125.4819279
  62.7687343  69.3688989 125.0059389  64.0499536  69.9279798 125.5871319
  77.5752099  76.4536700 128.2324559  78.3969542  76.0516887 127.9507241
  77.5714501  76.3504934 129.1840675  65.5103034  69.4776040 122.4402755
  64.7134198  69.5894734 122.9586251  65.2828627  69.8162692 121.5743646
  71.3408702  76.0020743 130.3885270  71.4053135  76.4641150 131.2243442
  70.6319626  75.3718108 130.5167580  61.8425992  69.3661951 127.9134269
  62.0934030  70.2508961 128.1791845  62.3785540  69.1866552 127.1409361
  85.6658092  72.7975448 124.5809531  84.9121800  72.2282846 124.4253535
  85.8005633  72.7638113 125.5280166  71.0556720  77.6688850 120.2564250
  70.9202394  78.5140386 120.6849098  71.5966532  77.8708128 119.4930184
  67.5424059  63.7480430 136.9178605  67.1491005  63.1946629 137.5926250
  68.3590200  64.0591009 137.3085123  64.5086117  75.1864288 120.8292175
  65.0210638  75.9807539 120.9797740  65.1608830  74.4890579 120.7625777
  70.4592020  65.1638309 134.5098862  71.2001734  65.7645462 134.4303324
  70.6909943  64.4215947 133.9516905  65.6033358  70.3494677 132.7877092
  65.4886873  69.4479934 133.0884191  64.7477876  70.5958373 132.4361908
  72.6825196  78.2912417 134.3864592  72.2389050  77.5048795 134.0685497
  73.3442410  78.4791567 133.7208483  67.4412317  79.8208218 128.9125271
  67.9919742  79.6925282 128.1402265  66.6023793  80.1203107 128.5620164
  74.7806434  78.5715217 132.4145994  74.7624909  79.3924098 131.9226263
  75.7026354  78.4469292 132.6396135  71.2379488  76.0859346 133.2569502
  71.7707825  75.3247634 133.0268810  70.7093569  75.7932998 133.9993656
  74.4049183  61.1919412 128.7863144  74.0613453  62.0821054 128.7102254
  74.7728146  61.0021070 127.9232729  62.4735034  73.5152943 121.6051746
  63.3110256  73.9249951 121.3885454  62.6513302  72.5752385 121.5751940
  74.3699466  71.1828023 117.2935579  73.8546089  71.9532628 117.5323966
  74.0976774  70.5093159 117.9168640  71.9546577  66.0277724 122.3520817
  71.0988173  65.6384574 122.1726456  72.3673529  66.1069685 121.4920603
  73.4845724  63.5624067 126.7512377  72.9810519  63.5254203 125.9380182
  73.7776330  64.4716810 126.8109034  69.7288610  63.6462797 125.7578559
  70.5941606  63.4505606 125.3984448  69.7966118  63.4173149 126.6847915
  79.3433740  73.9360378 119.2288752  78.5663183  73.5971537 118.7843914
  80.0225221  73.9413001 118.5543717  74.1585769  69.0555115 119.1195360
  73.8535905  69.3701265 119.9705503  75.1116211  69.1336535 119.1622693
  72.6032201  75.2145339 120.7688314  72.0753563  74.4798098 120.4561551
  72.1019704  75.9920015 120.5228282  77.5825047  73.4094359 125.8855360
  76.9248721  74.0993621 125.9735489  78.3865446  73.7990791 126.2289347
  67.3350929  65.8765005 123.1294925  67.9094680  65.6540187 122.3968118
  67.9221911  65.9453700 123.8823527  76.3930506  71.7638732 123.9359302
  76.9062388  72.3968724 124.4381012  77.0431730  71.1639927 123.5702662
  67.6620516  67.9069466 117.1490811  66.8257828  68.2444153 117.4700085
  67.5225285  67.7718446 116.2117948  69.6373596  62.7506254 121.8569995
  68.9838009  62.4355271 121.2326610  69.5954070  62.1281994 122.5829818
  70.7484801  73.0325549 113.7723287  69.8411863  72.8014802 113.9714436
  71.2455833  72.2363168 113.9597269  72.8711337  69.2388187 126.1817643
  71.9533898  69.4603134 126.0239331  73.2871480  69.3134498 125.3229350
  73.6546384  70.6379603 121.3120323  74.4018203  71.1501000 121.0027445
  73.9237974  70.3163656 122.1724716  71.9273035  73.1338144 118.2947277
  71.0184254  72.8497177 118.3919747  71.9568118  73.5537222 117.4350584
  77.1592302  76.7444733 122.0638445  76.7054629  75.9035643 122.1203635
  76.5286269  77.3806132 122.4013225  76.1025222  67.6736719 123.2939112
  75.3647978  67.1614106 123.6249355  76.3551995  67.2337101 122.4822389
  75.6025241  78.5821230 122.9988263  75.8948216  79.1426287 122.2800628
  76.1123862  78.8749791 123.7541422  76.2036849  60.4512971 123.8880881
  76.5095726  59.5910335 123.6006796  76.9289454  61.0430592 123.6879875
  62.4961205  70.8543658 122.2762479  62.2985605  70.2613019 121.5513546
  61.9407869  70.5495868 122.9938418  70.4757929  70.7466764 124.3957072
  70.5306538  69.7940601 124.3199549  69.6649131  70.9026204 124.8798371
  71.6249122  74.6746888 115.6335356  71.1868552  73.9582746 115.1740993
  72.3659563  74.9023002 115.0720447  68.4150289  69.3643824 122.1547451
  67.6018154  69.6637995 122.5612643  68.9109283  68.9699513 122.8721934
  70.5658866  79.3601581 124.0881716  70.5235045  79.5862427 123.1590248
  71.4821565  79.1264956 124.2367517  74.0124500  69.8285649 130.9862345
  74.3673888  70.0557122 131.8456811  74.6596631  70.1604025 130.3639601
  79.7422237  72.9504085 121.6911674  79.6040136  73.1405681 120.7632863
  79.3858456  73.7123467 122.1479725  67.9064363  66.9362180 127.7708686
  68.5463743  66.7950939 127.0731650  67.0741894  66.6496693 127.3947288
  79.7691617  75.0180612 126.7022946  80.2028123  74.9255901 127.5506000
  80.4823197  74.9938112 126.0642962  68.6824667  76.2364610 123.8843679
  69.4765266  75.7414930 123.6826254  67.9716360  75.7082473 123.5211384
  73.5019512  78.6182706 128.2356046  73.5556534  79.1873642 129.0033762
  72.6334293  78.7884591 127.8710083  64.9907431  70.3807692 119.9603431
  64.0605019  70.3192147 120.1773394  65.0864903  69.8583645 119.1640073
  64.9092980  66.9062505 122.5481673  65.1699797  67.8207838 122.4390834
  65.7310152  66.4386947 122.6978286  66.3817905  68.3200262 129.7180498
  67.0540958  68.1117624 129.0693147  65.5547692  68.1222348 129.2785730
  80.6307166  75.0604312 129.2355831  80.8243056  75.9650123 129.4815106
  80.5307785  74.6011731 130.0694416  72.2843477  64.9462203 131.7346158
  71.6371392  65.6452152 131.6410635  73.0544492  65.3798347 132.1022407
  75.6922275  75.2111055 134.8096712  75.5407781  74.9821607 133.8926795
  75.6826954  76.1681656 134.8228057  72.4607611  72.7842968 129.7942978
  73.3899671  72.9354127 129.6211946  72.0398641  72.8726989 128.9391625
  71.2595943  76.8093632 127.5641516  71.1207029  76.4412417 128.4367454
  70.4710539  77.3241272 127.3925474  72.8101158  76.1875235 124.9530354
  72.4750991  76.1476005 125.8488004  72.3105104  75.5219951 124.4800764
  66.7845402  71.5942865 130.4782935  66.6465200  70.8623104 131.0794474
  67.6950326  71.5051765 130.1967123  75.7460350  73.5331269 115.2267413
  75.1289521  72.8078097 115.1300466  75.2776838  74.2940629 114.8834488
  69.4127703  71.3062824 129.9666614  70.1227322  70.6656016 129.9253233
  69.3697011  71.5575719 130.8892795  77.4014482  78.2430178 132.8873194
  77.3427028  77.5589398 132.2203777  77.8034000  78.9849168 132.4353820
  68.1256637  68.2928042 131.7862254  67.5893994  67.8418781 132.4383850
  67.5373345  68.4273951 131.0432718  66.4205180  85.0592091 125.6806913
  66.6601779  85.6910616 126.3585931  65.5774377  84.7080131 125.9672272
  77.4031889  76.2069761 131.1187173  76.5158668  75.8695683 131.2413572
  77.9730440  75.4752793 131.3555939  59.0561036  72.5393853 124.4430225
  59.7432076  72.2255583 123.8551240  58.9009165  73.4435218 124.1697476
  63.8595758  67.4284050 128.8715248  63.7753947  66.8209719 128.1365658
  63.0378465  67.9193068 128.8724745  70.9333042  80.8671214 128.0848417
  70.8603214  81.6726185 128.5967721  70.4910435  81.0663180 127.2596438
  74.0319472  65.9137613 124.2385443  74.5288172  65.1607576 123.9186514
  73.2606454  65.9501930 123.6728653  81.8849229  71.6177979 125.8803735
  81.8739106  72.5002694 125.5097668  81.0166609  71.2649530 125.6858272
  73.3931726  80.7658048 130.2406575  74.1059698  81.4005513 130.1682477
  72.9021754  80.8621914 129.4246577  75.1149253  74.6709301 121.8123867
  74.1805531  74.7910763 121.6428571  75.2925921  73.7681767 121.5483877
  70.6154441  68.0554996 123.9657128  70.2452228  67.5026037 124.6538034
  71.1113533  67.4513130 123.4132128  78.5021804  70.5126620 122.3473901
  78.9682256  71.3454611 122.2734204  78.9529305  70.0471601 123.0519159
  68.4443639  78.5152491 131.0612146  69.1453099  79.1488974 131.2141540
  67.9738754  78.8567223 130.3007785  76.5698035  76.8570441 119.3460053
  76.8457879  76.7427036 120.2553927  75.7002534  76.4587926 119.3072226
  76.4738467  62.8807207 126.3864802  75.5601547  63.1111434 126.5547009
  76.9031568  62.9645651 127.2378835  76.2444925  71.0697099 128.8864696
  75.5916376  71.3173006 128.2317149  76.6225305  70.2561237 128.5527174
  73.2052099  81.1056792 122.9892867  73.3874494  80.2878448 123.4520619
  74.0285085  81.3224484 122.5517757  72.2932498  71.8116910 135.3730733
  71.6173135  71.7111039 136.0433109  73.1160132  71.6556124 135.8366731
  64.0411357  78.0488846 127.9943249  64.6264794  77.3032534 128.1271153
  63.8436196  78.3592803 128.8779913  58.6329012  70.6194447 126.7147692
  58.6713112  70.0858037 127.5084810  58.1269305  70.0929652 126.0958669
  71.0355281  83.1183837 129.6088349  71.5873589  83.2815459 130.3737435
  71.3761475  83.7088275 128.9368374  66.0119774  65.4658987 130.2110234
  66.0761101  66.3273818 129.7987632  65.9486895  64.8532989 129.4782593
  65.4872047  67.5382120 133.8583268  66.1144086  67.1559197 134.4720793
  64.6299966  67.3196322 134.2238961  75.8866156  77.9445095 135.4637004
  76.4306060  78.5575053 134.9691959  75.3053000  78.5024673 135.9804017
  62.2637590  69.3458549 119.7901623  62.5591031  68.4369227 119.7368677
  61.3625626  69.3246288 119.4682626  74.1723669  81.0665813 126.5952032
  74.0474808  80.2655553 126.0862977  74.8302760  81.5612006 126.1066002
  65.7931837  67.4214545 125.7729172  65.0718423  68.0350513 125.6336645
  66.5825093  67.9572310 125.6945818  76.2358577  78.8674833 128.2231582
  75.2888912  78.7480184 128.1509908  76.5841350  77.9797331 128.3057843
  68.5958150  64.7568972 132.0469824  69.1192552  65.0031268 132.8096133
  68.3770484  65.5889007 131.6272961  63.9925431  67.0272646 119.9140948
  63.6638138  66.1470025 119.7316054  64.3464802  66.9720315 120.8017338
  73.2405010  78.6627549 124.4235934  73.0929973  77.7344257 124.6043504
  74.0658504  78.6847640 123.9393009  67.1067255  67.3145616 120.2816426
  67.4463327  67.8431537 119.5595034  67.5539375  67.6526022 121.0574993
  76.8439132  79.4856108 125.5100807  77.7685680  79.2798969 125.3725258
  76.6754435  79.2372509 126.4190148  69.8010695  65.6982667 129.7319494
  69.4607516  64.8990480 130.1340174  69.0949702  65.9984378 129.1596327
  70.4527167  62.7831979 128.1846817  71.2753236  62.3092458 128.0625707
  70.6965231  63.5622463 128.6845503  69.0935402  65.8120238 118.4809719
  69.8143764  66.1901491 117.9773436  68.4700706  66.5309115 118.5844697
  73.2366525  66.5165387 119.4168051  73.4530139  67.3990025 119.1156879
  72.7560592  66.1251600 118.6873693  67.9765746  69.4751100 125.9938796
  67.8310327  69.7891403 126.8863077  67.4990950  70.0936000 125.4409694
  69.8362129  66.4653648 126.0419685  69.8223698  65.5694741 125.7051983
  70.5534557  66.4724312 126.6757971  71.6888260  66.8990988 128.0872813
  71.4306037  67.8208059 128.0857143  71.1573300  66.5021423 128.7773277
  76.6334448  80.0041775 120.8662898  76.8071326  79.4388198 120.1136751
  77.1263340  80.8042670 120.6842388  62.4511408  72.0156444 128.9326457
  61.9064876  72.7916252 129.0646731  63.3290758  72.3627249 128.7745578
  69.2399025  65.3468028 121.3107255  69.3614936  64.4184674 121.5098143
  68.9501067  65.3606714 120.3985571  72.1090215  63.0322939 124.4473975
  72.1311912  63.0962272 123.4925955  72.5258274  62.1927447 124.6414481
  82.4873839  72.7678198 122.4853198  82.9304985  72.0185523 122.0872321
  81.6100350  72.7588335 122.1026930  77.6209621  79.3208540 117.9659796
  78.3160525  79.9415232 118.1847111  77.9632771  78.4703891 118.2412174
  63.2377430  71.1426341 131.8256614  62.4959166  71.2908976 132.4121244
  62.9170174  71.4034606 130.9623363  79.5201044  76.7708245 119.4947127
  80.0452368  77.1095518 118.7696447  79.4323396  75.8355261 119.3110262
  71.1821093  80.6842319 131.6237004  71.4908219  80.4391466 132.4959703
  71.9796575  80.8888957 131.1355874  71.2041705  82.8380228 123.8542380
  70.7646695  82.3456607 124.5475237  71.9549822  82.2953196 123.6134456
  68.6515577  78.3818238 125.9264682  68.0295586  77.7188943 125.6266910
  69.3220444  78.4079369 125.2438330  61.8842649  76.9478096 124.8155942
  61.0474557  76.5200270 124.6339943  61.8566294  77.1410539 125.7526733
  68.7240104  66.8600026 135.5197188  68.7728260  67.7362148 135.1374958
  69.2662618  66.3177419 134.9468831  79.2094950  77.4041149 134.7998325
  78.4190494  77.3865288 134.2602825  78.9728305  77.9429443 135.5547362
  79.3292825  74.2533615 132.1131054  79.3790830  74.0883623 133.0546576
  79.2206748  73.3860874 131.7228934  68.2129084  76.9322161 119.4023143
  68.3617204  77.6157625 118.7489815  69.0195527  76.9127251 119.9172598
  76.6196587  70.2364543 133.4290360  77.5206450  70.0971008 133.1374358
  76.6944562  70.4018998 134.3688538  70.9539393  67.6131398 132.2743547
  70.0842702  67.9064964 132.0026135  71.1898873  68.1971843 132.9950810
  80.8311022  76.6730557 132.3573075  80.5395830  77.0360537 133.1936536
  80.2183153  75.9597565 132.1786407  82.0306704  74.2383437 124.8775645
  82.8653596  74.6773241 125.0413206  82.1665833  73.7622090 124.0583891
  79.0798210  71.7963171 130.8253133  79.5552332  71.9890818 130.0171985
  78.1563775  71.8522357 130.5796517  65.9681717  72.9587339 120.4084211
  65.7227759  72.0549669 120.6064422  66.1377631  72.9604489 119.4663689
  73.6578427  63.8311015 129.7908967  74.1760370  64.5672042 129.4655456
  73.3033559  64.1375008 130.6255726  65.2377364  68.6915696 117.9070373
  64.5446609  68.7660051 117.2510409  64.9929116  67.9276040 118.4291890
  73.9091021  60.2511297 125.3109864  74.1892774  59.5834487 125.9370290
  74.6941628  60.4440393 124.7984527  77.7799879  68.6728931 129.0581439
  78.7317302  68.7727029 129.0793663  77.6103329  67.8807200 129.5679523
  75.8014259  65.7584515 129.2440840  75.2064191  66.0389527 128.5487328
  75.5163955  66.2478416 130.0157581  77.5609766  79.0273312 114.9647420
  77.4823397  78.6933175 115.8583178  78.3819432  79.5195080 114.9638892
  80.2587957  71.8935051 128.1723738  80.2264277  70.9551052 128.3583422
  80.8688581  71.9719088 127.4389563  72.0971288  70.7631104 114.2150942
  73.0430392  70.6337312 114.2839361  71.7185533  70.0245766 114.6920371
  80.4082445  68.6846095 128.2182022  79.8921494  67.9004551 128.0311950
  81.2922394  68.3564811 128.3828541  78.0693172  62.4287110 124.1777834
  77.8717993  62.1202198 125.0621166  78.6792878  63.1548749 124.3075764
  86.0764507  72.9551058 127.3129775  86.8067895  72.6936346 127.8737479
  85.4671452  72.2179780 127.3531843  84.1579804  71.0958921 127.9104226
  83.4312967  70.9614886 127.3020718  83.7427091  71.4035749 128.7160944
  71.9809980  74.8148850 135.6751599  72.9012990  74.9927449 135.8691646
  71.9459563  73.8704896 135.5231299  70.2814205  68.6881081 114.1505828
  69.3745660  68.3914193 114.2268541  70.5590186  68.3910899 113.2840114
  61.1992145  70.0087444 124.6004874  60.8794930  69.1552752 124.3079248
  60.6525573  70.2236022 125.3562841  64.9772053  72.7249885 128.3174381
  65.1958063  73.6566993 128.3362414  65.3897827  72.3657859 129.1029184
  71.8976271  63.2317970 120.3050069  71.0876999  62.8865055 120.6805315
  72.5860688  62.9225514 120.8937681  73.8266819  62.3096017 121.9274366
  74.3797857  62.7291470 122.5864389  74.0636905  61.3831765 121.9697322
  69.8499918  68.2983091 137.7077130  69.7496645  69.2477448 137.6389221
  69.6321460  67.9701330 136.8353200  69.0512989  65.5468016 114.2917807
  69.9132153  65.8722914 114.5513624  69.2363334  64.7599512 113.7790873
  61.0680405  73.6290355 126.5697996  60.3743877  73.2144308 126.0567950
  61.8153396  73.6710892 125.9731415  77.2045626  64.4196542 121.4353030
  76.6244295  65.0781346 121.0531082  76.9381559  63.5973887 121.0240447
  75.6549192  63.8201600 123.6374350  76.1548971  63.9318134 122.8288669
  76.2984800  63.5162653 124.2775159  69.7131188  71.7280230 136.5242191
  69.2298270  72.5280590 136.7306080  69.7992127  71.7388174 135.5709635
  62.9817148  73.5608609 124.4464011  62.9587836  73.6596296 123.4945894
  63.2917784  74.4073760 124.7681177  65.6404526  75.6184764 128.5610625
  66.5947779  75.5868707 128.4940557  65.4417049  75.1575388 129.3760851
  66.2303908  74.1885880 131.1281423  67.0496797  74.6829959 131.1516260
  66.5040715  73.2717848 131.0998990  75.9870504  66.5796633 120.4909378
  75.0996359  66.8646283 120.2729573  76.4024493  66.4190396 119.6436655
  79.3385040  66.6043154 124.2063717  80.1145430  67.0939606 124.4788334
  78.6133174  67.0301208 124.6635587  81.7757599  67.3170773 125.2637658
  82.3702090  67.0766509 124.5530966  81.8484182  66.5977903 125.8911194
  63.9954754  81.1604384 125.5780823  63.8609222  80.4004785 125.0118821
  63.5786817  81.8845284 125.1109612  75.1313717  76.3441307 114.5857398
  75.8349568  76.5491310 115.2015054  74.4076366  76.9118069 114.8506482
  75.9611528  72.0951169 120.7059668  75.9046729  72.5519720 119.8667301
  76.5139870  71.3341853 120.5282511  79.7716334  67.8840900 121.5309788
  79.5153268  67.4837536 122.3617995  79.1469202  68.5984694 121.4059927
  84.0828672  70.6236974 124.0381079  83.5228229  70.6930163 124.8112641
  83.4772175  70.4477958 123.3180575  67.1523880  82.0573701 125.7899265
  67.0356264  83.0019133 125.6877956  66.3316327  81.7547262 126.1785065
  77.0400415  76.7823836 116.6355858  77.8746019  76.3505035 116.4533333
  76.8784758  76.6105850 117.5632753  76.6946307  73.2855950 118.0012198
  76.6395111  73.1200221 117.0600642  76.0692362  73.9931983 118.1574387
  61.4838822  68.5224014 131.8273620  62.1297686  68.0122968 132.3160845
  61.2755973  69.2592696 132.4017045  74.0092214  75.5904862 137.3265760
  74.8783374  75.7645514 136.9652395  73.5298966  76.4099278 137.2041490
  70.0042433  62.7864059 117.5797516  69.9921102  63.7305899 117.7365787
  70.8965854  62.6034204 117.2856977  68.1778394  82.7101963 129.0055194
  69.0805641  82.7425573 129.3221689  67.9515765  81.7802414 129.0201530
  69.9331996  81.4632949 125.6665273  68.9827627  81.4634811 125.5529645
  70.2364483  80.7165684 125.1501307  73.8194552  59.3806835 121.8343453
  73.0526948  58.8265322 121.9800135  74.2305257  59.4528704 122.6957604
  65.8236313  65.6691631 135.9248634  66.6867775  65.3128436 136.1351959
  65.2501724  65.3305526 136.6124038  85.6684690  87.2993488 126.7311035
  86.3063100  87.1800235 126.0274375  85.5505533  88.2474332 126.7898987
  82.4774396  87.2520916 126.6672560  82.1392908  87.1361980 125.7793094
  83.3464164  86.8512081 126.6473566  78.3361212  89.1056392 122.6569451
  77.7726077  89.0146329 121.8885738  78.2213607  88.2856297 123.1371943
  82.9594179  88.4055767 132.6258765  82.9482820  88.0108566 131.7539269
  83.1214819  87.6721840 133.2192537  75.8825644  90.6007584 125.4953671
  76.6746936  90.2598408 125.0799970  76.1222294  90.7102559 126.4155824
  83.9160771  92.7727360 117.9683915  83.2648750  93.3581440 117.5817929
  84.7105133  93.3033555 118.0278953  77.8416398  89.8616497 118.3671050
  78.6147274  89.3145484 118.2283926  78.1941797  90.7260746 118.5785511
  79.6801440  91.1892879 131.5737949  79.3891306  92.0938510 131.4584615
  80.3158425  91.2309407 132.2882019  80.6057647  88.5669728 128.1639309
  81.2021219  88.3425750 127.4496272  80.6632619  87.8254473 128.7664757
  85.2225958  85.0244941 123.8064243  86.0089048  84.6064365 123.4554660
  85.4864663  85.9291034 123.9745891  85.3936036  90.4617792 118.5052900
  84.7581869  90.5352418 119.2173804  85.0633442  91.0511391 117.8271979
  90.6234386  84.9620175 124.7097221  91.3559558  84.3919391 124.9435051
  89.8673741  84.5741775 125.1503727  79.8978964  87.9237269 118.2013875
  79.7815222  87.2482172 118.8694959  80.0081224  87.4369643 117.3846028
  82.2410505  87.3847416 121.9060564  81.8768713  86.8578037 122.6173485
  83.0977621  86.9945885 121.7327049  88.1459806  78.6741749 129.1691830
  87.8143131  79.5437160 128.9453045  87.5505419  78.3578033 129.8485860
  81.8815992  82.4137316 116.9021912  82.0490395  83.2817552 117.2692384
  81.6913161  82.5764598 115.9783202  84.6391325  90.8754295 128.5687743
  84.3392049  91.7779334 128.4603550  84.2942385  90.6086478 129.4208896
  78.0903807  87.3268092 124.6024447  77.1654303  87.1944306 124.8102139
  78.3388220  88.1062311 125.0994390  88.0388469  83.3936835 126.2485180
  87.1305347  83.3252243 125.9543941  87.9876065  83.8708780 127.0767006
  81.8605213  84.8694973 117.8868579  81.7404838  85.3152024 118.7254060
  81.1657802  85.2180291 117.3282117  75.4512618  86.9701365 125.4368236
  75.5804999  87.2235844 126.3507648  74.7710069  87.5629073 125.1172891
  79.6212105  97.6398615 121.5358711  79.5436135  98.5906440 121.6147191
  79.0173749  97.2944488 122.1933637  82.1129335  84.8126480 134.1920077
  81.3362669  85.3720401 134.1822942  82.7519898  85.2983263 134.7134948
  89.9050116  81.5953273 128.0263054  89.2624496  81.8885806 127.3802849
  89.4005044  81.4806194 128.8316251  87.5590279  85.3416446 118.7148913
  88.4708135  85.5743833 118.5396611  87.0499926  85.9253491 118.1523992
  80.3675707  87.6211934 133.7538044  81.1090392  88.1596978 133.4772868
  79.6612693  88.2478223 133.9109596  85.8431047  89.7641074 132.3510206
  86.2514403  89.3223485 131.6064838  85.1208308  89.1893702 132.6044399
  82.1962117  84.7013681 129.7243763  83.0423312  85.1253095 129.8678412
  82.1360755  84.0447305 130.4182326  86.1659862  90.3242265 126.1062495
  85.5368724  90.4887979 125.4038563  85.7785524  90.7383874 126.8773459
  90.0449094  91.2596703 123.4606859  89.3600132  91.6395604 122.9103892
  90.1292943  91.8692029 124.1938806  85.3461562  82.3618049 131.3824936
  85.1022494  83.1160110 130.8459212  85.6221493  82.7403397 132.2172184
  87.3000025  88.9056662 130.0602202  87.5116920  89.5488422 129.3836583
  87.2529773  88.0718978 129.5924132  84.9026254  81.5174482 126.9638774
  84.0410733  81.8155736 127.2555512  84.9288689  81.7344881 126.0319807
  81.7187823  90.0616673 123.3712580  82.1826169  90.3404376 122.5817202
  81.4544622  89.1600118 123.1885671  78.6111905  89.6088155 126.3092343
  79.1813262  90.0375423 125.6709828  79.2020016  89.3270739 127.0076529
  80.6556710  86.1839825 120.1802145  81.3580753  86.6360869 120.6476071
  80.3237338  85.5423644 120.8082038  79.1037071  84.7751582 134.5553354
  78.4735732  85.4567863 134.7888751  78.9973159  84.6634664 133.6106493
  74.3982044  84.4423378 125.4819279  73.6081097  84.6980907 125.0059389
  74.8893291  85.2571716 125.5871319  88.4145853  91.7828617 128.2324559
  89.2363297  91.3808805 127.9507241  88.4108256  91.6796851 129.1840675
  76.3496789  84.8067957 122.4402755  75.5527952  84.9186652 122.9586251
  76.1222381  85.1454610 121.5743646  82.1802457  91.3312661 130.3885270
  82.2446889  91.7933068 131.2243442  81.4713380  90.7010025 130.5167580
  72.6819746  84.6953868 127.9134269  72.9327785  85.5800878 128.1791845
  73.2179295  84.5158470 127.1409361  96.5051846  88.1267366 124.5809531
  95.7515555  87.5574764 124.4253535  96.6399387  88.0930030 125.5280166
  81.8950474  92.9980768 120.2564250  81.7596149  93.8432304 120.6849098
  82.4360287  93.2000046 119.4930184  78.3817814  79.0772348 136.9178605
  77.9884759  78.5238546 137.5926250  79.1983954  79.3882926 137.3085123
  75.3479872  90.5156206 120.8292175  75.8604392  91.3099456 120.9797740
  76.0002584  89.8182496 120.7625777  77.1574756  93.6321962 122.9114929
  77.3341385  94.5539927 122.7235912  77.9531590  93.3180382 123.3409308
  81.2985775  80.4930227 134.5098862  82.0395488  81.0937380 134.4303324
  81.5303698  79.7507865 133.9516905  76.4427113  85.6786594 132.7877092
  76.3280628  84.7771851 133.0884191  75.5871631  85.9250291 132.4361908
  83.5218951  93.6204335 134.3864592  83.0782805  92.8340713 134.0685497
  84.1836164  93.8083485 133.7208483  78.2806072  95.1500136 128.9125271
  78.8313497  95.0217199 128.1402265  77.4417548  95.4495025 128.5620164
  85.6200189  93.9007134 132.4145994  85.6018664  94.7216015 131.9226263
  86.5420109  93.7761210 132.6396135  82.0773243  91.4151264 133.2569502
  82.6101580  90.6539552 133.0268810  81.5487324  91.1224916 133.9993656
  85.2442938  76.5211330 128.7863144  84.9007207  77.4112972 128.7102254
  85.6121900  76.3312988 127.9232729  85.2093220  86.5119941 117.2935579
  84.6939844  87.2824546 117.5323966  84.9370529  85.8385077 117.9168640
  82.7940331  81.3569642 122.3520817  81.9381928  80.9676492 122.1726456
  83.2067283  81.4361603 121.4920603  84.3239478  78.8915985 126.7512377
  83.8204274  78.8546120 125.9380182  84.6170085  79.8008728 126.8109034
  80.5682364  78.9754715 125.7578559  81.4335361  78.7797523 125.3984448
  80.6359873  78.7465067 126.6847915  90.1827495  89.2652296 119.2288752
  89.4056937  88.9263455 118.7843914  90.8618976  89.2704919 118.5543717
  84.9979524  84.3847033 119.1195360  84.6929659  84.6993182 119.9705503
  85.9509966  84.4628453 119.1622693  83.4425955  90.5437256 120.7688314
  82.9147317  89.8090016 120.4561551  82.9413458  91.3211933 120.5228282
  88.4218801  88.7386277 125.8855360  87.7642476  89.4285538 125.9735489
  89.2259201  89.1282709 126.2289347  78.1744683  81.2056923 123.1294925
  78.7488435  80.9832104 122.3968118  78.7615666  81.2745617 123.8823527
  87.2324260  87.0930650 123.9359302  87.7456142  87.7260641 124.4381012
  87.8825484  86.4931845 123.5702662  80.4767351  78.0798172 121.8569995
  79.8231763  77.7647189 121.2326610  80.4347825  77.4573912 122.5829818
  84.4946635  97.0714974 116.6919973  83.8208333  97.3746671 117.3004931
  84.8812457  97.8744054 116.3425430  83.7105091  84.5680105 126.1817643
  82.7927653  84.7895052 126.0239331  84.1265235  84.6426416 125.3229350
  84.4940139  85.9671521 121.3120323  85.2411958  86.4792918 121.0027445
  84.7631728  85.6455574 122.1724716  82.7666789  88.4630062 118.2947277
  81.8578008  88.1789094 118.3919747  82.7961873  88.8829140 117.4350584
  87.9986057  92.0736651 122.0638445  87.5448384  91.2327561 122.1203635
  87.3680023  92.7098049 122.4013225  86.9418976  83.0028637 123.2939112
  86.2041733  82.4906023 123.6249355  87.1945750  82.5629019 122.4822389
  86.4418996  93.9113148 122.9988263  86.7341970  94.4718205 122.2800628
  86.9517616  94.2041709 123.7541422  87.0430603  75.7804889 123.8880881
  87.3489480  74.9202253 123.6006796  87.7683208  76.3722509 123.6879875
  73.3354959  86.1835576 122.2762479  73.1379359  85.5904936 121.5513546
  72.7801623  85.8787786 122.9938418  81.3151683  86.0758682 124.3957072
  81.3700293  85.1232519 124.3199549  80.5042885  86.2318121 124.8798371
  82.4642877  90.0038805 115.6335356  82.0262307  89.2874664 115.1740993
  83.2053318  90.2314920 115.0720447  79.2544043  84.6935742 122.1547451
  78.4411909  84.9929912 122.5612643  79.7503037  84.2991431 122.8721934
  81.4052621  94.6893499 124.0881716  81.3628800  94.9154345 123.1590248
  82.3215320  94.4556873 124.2367517  84.8518255  85.1577566 130.9862345
  85.2067642  85.3849039 131.8456811  85.4990386  85.4895943 130.3639601
  90.5815992  88.2796002 121.6911674  90.4433890  88.4697598 120.7632863
  90.2252210  89.0415385 122.1479725  78.7458118  82.2654097 127.7708686
  79.3857497  82.1242857 127.0731650  77.9135648  81.9788611 127.3947288
  90.6085371  90.3472529 126.7022946  91.0421878  90.2547818 127.5506000
  91.3216952  90.3230030 126.0642962  79.5218422  91.5656528 123.8843679
  80.3159020  91.0706848 123.6826254  78.8110114  91.0374391 123.5211384
  84.3413266  93.9474623 128.2356046  84.3950288  94.5165560 129.0033762
  83.4728048  94.1176508 127.8710083  75.7486734  82.2354422 122.5481673
  76.0093552  83.1499756 122.4390834  76.5703907  81.7678865 122.6978286
  77.2211660  83.6492180 129.7180498  77.8934713  83.4409542 129.0693147
  76.3941446  83.4514266 129.2785730  91.4700921  90.3896230 129.2355831
  91.6636811  91.2942040 129.4815106  91.3701539  89.9303649 130.0694416
  83.1237232  80.2754120 131.7346158  82.4765147  80.9744070 131.6410635
  83.8938247  80.7090264 132.1022407  86.5316030  90.5402973 134.8096712
  86.3801536  90.3113524 133.8926795  86.5220709  91.4973574 134.8228057
  83.3001366  88.1134885 129.7942978  84.2293426  88.2646045 129.6211946
  82.8792396  88.2018906 128.9391625  82.0989698  92.1385550 127.5641516
  81.9600783  91.7704334 128.4367454  81.3104294  92.6533189 127.3925474
  82.6937850  97.2394646 118.9067052  82.8689605  96.7682689 119.7212675
  82.0070638  97.8660412 119.1348313  83.6494913  91.5167153 124.9530354
  83.3144745  91.4767922 125.8488004  83.1498859  90.8511868 124.4800764
  77.6239157  86.9234783 130.4782935  77.4858955  86.1915021 131.0794474
  78.5344080  86.8343683 130.1967123  86.5854105  88.8623187 115.2267413
  85.9683275  88.1370015 115.1300466  86.1170593  89.6232547 114.8834488
  80.2521457  86.6354742 129.9666614  80.9621076  85.9947934 129.9253233
  80.2090766  86.8867637 130.8892795  88.2408236  93.5722095 132.8873194
  88.1820782  92.8881315 132.2203777  88.6427755  94.3141085 132.4353820
  78.9650391  83.6219960 131.7862254  78.4287748  83.1710698 132.4383850
  78.3767100  83.7565869 131.0432718  77.2598935 100.3884009 125.6806913
  77.4995533 101.0202533 126.3585931  76.4168131 100.0372049 125.9672272
  88.2425643  91.5361679 131.1187173  87.3552422  91.1987601 131.2413572
  88.8124194  90.8044710 131.3555939  69.8954791  87.8685771 124.4430225
  70.5825830  87.5547501 123.8551240  69.7402919  88.7727136 124.1697476
  74.6989513  82.7575967 128.8715248  74.6147701  82.1501637 128.1365658
  73.8772219  83.2484986 128.8724745  81.7726797  96.1963131 128.0848417
  81.6996968  97.0018103 128.5967721  81.3304190  96.3955097 127.2596438
  81.5616576  95.4334902 121.5951238  80.7784098  95.9756582 121.6889463
  82.2609322  95.9508881 121.9945479  84.8713227  81.2429531 124.2385443
  85.3681926  80.4899493 123.9186514  84.1000208  81.2793848 123.6728653
  92.7242984  86.9469897 125.8803735  92.7132860  87.8294612 125.5097668
  91.8560363  86.5941447 125.6858272  84.2325480  96.0949966 130.2406575
  84.9453453  96.7297430 130.1682477  83.7415509  96.1913832 129.4246577
  85.9543007  90.0001218 121.8123867  85.0199286  90.1202681 121.6428571
  86.1319676  89.0973685 121.5483877  81.4548195  83.3846914 123.9657128
  81.0845983  82.8317954 124.6538034  81.9507288  82.7805047 123.4132128
  89.3415559  85.8418537 122.3473901  89.8076011  86.6746529 122.2734204
  89.7923059  85.3763519 123.0519159  79.2837394  93.8444409 131.0612146
  79.9846853  94.4780892 131.2141540  78.8132509  94.1859141 130.3007785
  87.4091790  92.1862359 119.3460053  87.6851634  92.0718953 120.2553927
  86.5396288  91.7879844 119.3072226  87.3132221  78.2099124 126.3864802
  86.3995301  78.4403351 126.5547009  87.7425323  78.2937569 127.2378835
  87.0838680  86.3989016 128.8864696  86.4310130  86.6464924 128.2317149
  87.4619060  85.5853155 128.5527174  84.0445854  96.4348710 122.9892867
  84.2268248  95.6170366 123.4520619  84.8678840  96.6516402 122.5517757
  84.3788019  95.3616895 120.2507915  84.9075786  94.8509349 119.6378077
  84.6416239  95.0459425 121.1153448  83.1326253  87.1408827 135.3730733
  82.4566890  87.0402957 136.0433109  83.9553887  86.9848041 135.8366731
  74.8805112  93.3780764 127.9943249  75.4658549  92.6324452 128.1271153
  74.6829950  93.6884721 128.8779913  77.7343767  96.4132011 123.0105691
  77.0654142  96.8978139 122.5269731  77.5956637  96.6601232 123.9249070
  69.4722767  85.9486364 126.7147692  69.5106866  85.4149955 127.5084810
  68.9663060  85.4221570 126.0958669  81.8749036  98.4475755 129.6088349
  82.4267344  98.6107376 130.3737435  82.2155229  99.0380193 128.9368374
  76.8513529  80.7950905 130.2110234  76.9154855  81.6565736 129.7987632
  76.7880649  80.1824906 129.4782593  76.3265802  82.8674037 133.8583268
  76.9537840  82.4851115 134.4720793  75.4693720  82.6488239 134.2238961
  86.7259910  93.2737012 135.4637004  87.2699814  93.8866971 134.9691959
  86.1446755  93.8316591 135.9804017  85.0117423  96.3957730 126.5952032
  84.8868562  95.5947470 126.0862977  85.6696514  96.8903924 126.1066002
  76.6325591  82.7506463 125.7729172  75.9112177  83.3642431 125.6336645
  77.4218847  83.2864228 125.6945818  87.0752331  94.1966751 128.2231582
  86.1282667  94.0772102 128.1509908  87.4235105  93.3089249 128.3057843
  79.4351905  80.0860889 132.0469824  79.9586307  80.3323186 132.8096133
  79.2164238  80.9180924 131.6272961  84.0798765  93.9919467 124.4235934
  83.9323727  93.0636174 124.6043504  84.9052258  94.0139557 123.9393009
  77.9461009  82.6437534 120.2816426  78.2857082  83.1723455 119.5595034
  78.3933129  82.9817940 121.0574993  87.6832887  94.8148025 125.5100807
  88.6079434  94.6090887 125.3725258  87.5148190  94.5664427 126.4190148
  80.6404450  81.0274585 129.7319494  80.3001270  80.2282398 130.1340174
  79.9343456  81.3276295 129.1596327  81.2920922  78.1123897 128.1846817
  82.1146991  77.6384375 128.0625707  81.5358985  78.8914381 128.6845503
  79.9329156  81.1412155 118.4809719  80.6537519  81.5193408 117.9773436
  79.3094460  81.8601032 118.5844697  84.0760279  81.8457304 119.4168051
  84.2923893  82.7281942 119.1156879  83.5954346  81.4543518 118.6873693
  78.8159500  84.8043018 125.9938796  78.6704081  85.1183321 126.8863077
  78.3384704  85.4227918 125.4409694  80.6755883  81.7945566 126.0419685
  80.6617452  80.8986659 125.7051983  81.3928311  81.8016229 126.6757971
  82.5282014  82.2282906 128.0872813  82.2699792  83.1499976 128.0857143
  81.9967054  81.8313340 128.7773277  87.4728203  95.3333693 120.8662898
  87.6465080  94.7680115 120.1136751  87.9657094  96.1334588 120.6842388
  73.2905163  87.3448362 128.9326457  72.7458631  88.1208170 129.0646731
  74.1684512  87.6919167 128.7745578  80.0792779  80.6759946 121.3107255
  80.2008690  79.7476592 121.5098143  79.7894822  80.6898632 120.3985571
  82.9483970  78.3614856 124.4473975  82.9705666  78.4254189 123.4925955
  83.3652029  77.5219365 124.6414481  93.3267594  88.0970116 122.4853198
  93.7698740  87.3477441 122.0872321  92.4494104  88.0880252 122.1026930
  88.4603375  94.6500457 117.9659796  89.1554280  95.2707150 118.1847111
  88.8026525  93.7995809 118.2412174  74.0771184  86.4718258 131.8256614
  73.3352920  86.6200894 132.4121244  73.7563929  86.7326524 130.9623363
  90.3594798  92.1000163 119.4947127  90.8846122  92.4387436 118.7696447
  90.2717151  91.1647178 119.3110262  82.0214847  96.0134237 131.6237004
  82.3301974  95.7683383 132.4959703  82.8190329  96.2180875 131.1355874
  82.0435459  98.1672146 123.8542380  81.6040449  97.6748525 124.5475237
  82.7943576  97.6245114 123.6134456  74.5227798  94.3583687 123.8567008
  75.3485818  94.0587459 123.4765652  74.1721850  93.5891309 124.3056797
  79.4909331  93.7110155 125.9264682  78.8689341  93.0480860 125.6266910
  80.1614198  93.7371287 125.2438330  72.7236403  92.2770013 124.8155942
  71.8868311  91.8492188 124.6339943  72.6960049  92.4702457 125.7526733
  79.5633859  82.1891943 135.5197188  79.6122014  83.0654066 135.1374958
  80.1056373  81.6469336 134.9468831  90.0488704  92.7333067 134.7998325
  89.2584248  92.7157205 134.2602825  89.8122059  93.2721360 135.5547362
  90.1686579  89.5825533 132.1131054  90.2184584  89.4175540 133.0546576
  90.0600503  88.7152792 131.7228934  79.0522838  92.2614079 119.4023143
  79.2010959  92.9449543 118.7489815  79.8589282  92.2419169 119.9172598
  87.4590342  85.5656461 133.4290360  88.3600205  85.4262926 133.1374358
  87.5338316  85.7310916 134.3688538  81.7933147  82.9423316 132.2743547
  80.9236457  83.2356882 132.0026135  82.0292628  83.5263761 132.9950810
  91.6704776  92.0022474 132.3573075  91.3789585  92.3652455 133.1936536
  91.0576908  91.2889483 132.1786407  92.8700459  89.5675354 124.8775645
  93.7047350  90.0065158 125.0413206  93.0059587  89.0914007 124.0583891
  89.9191965  87.1255089 130.8253133  90.3946086  87.3182735 130.0171985
  88.9957530  87.1814275 130.5796517  76.8075471  88.2879256 120.4084211
  76.5621513  87.3841586 120.6064422  76.9771386  88.2896407 119.4663689
  84.4972181  79.1602933 129.7908967  85.0154125  79.8963960 129.4655456
  84.1427314  79.4666926 130.6255726  84.7484775  75.5803215 125.3109864
  85.0286529  74.9126404 125.9370290  85.5335382  75.7732311 124.7984527
  82.5518244  94.7562209 116.8734890  81.9792211  95.3752396 116.4205362
  83.1251037  95.3061571 117.4074812  88.6193634  84.0020849 129.0581439
  89.5711056  84.1018947 129.0793663  88.4497084  83.2099118 129.5679523
  86.6408013  81.0876432 129.2440840  86.0457945  81.3681445 128.5487328
  86.3557710  81.5770333 130.0157581  85.7715503  95.0399359 118.0043472
  86.7046177  94.9744921 118.2076348  85.6838716  95.8755626 117.5458005
  88.4003520  94.3565230 114.9647420  88.3217152  94.0225093 115.8583178
  89.2213187  94.8486997 114.9638892  91.0981711  87.2226969 128.1723738
  91.0658031  86.2842970 128.3583422  91.7082335  87.3011006 127.4389563
  82.9365042  86.0923022 114.2150942  83.8824147  85.9629230 114.2839361
  82.5579287  85.3537684 114.6920371  91.2476200  84.0138012 128.2182022
  90.7315248  83.2296469 128.0311950  92.1316148  83.6856729 128.3828541
  88.9086927  77.7579028 124.1777834  88.7111748  77.4494116 125.0621166
  89.5186632  78.4840667 124.3075764  96.9158261  88.2842976 127.3129775
  97.6461650  88.0228264 127.8737479  96.3065207  87.5471698 127.3531843
  94.9973558  86.4250838 127.9104226  94.2706722  86.2906803 127.3020718
  94.5820845  86.7327667 128.7160944  82.8203735  90.1440768 135.6751599
  83.7406744  90.3219367 135.8691646  82.7853318  89.1996813 135.5231299
  72.0385900  85.3379362 124.6004874  71.7188684  84.4844670 124.3079248
  71.4919328  85.5527940 125.3562841  75.8165807  88.0541803 128.3174381
  76.0351817  88.9858910 128.3362414  76.2291581  87.6949777 129.1029184
  82.7370025  78.5609888 120.3050069  81.9270753  78.2156973 120.6805315
  83.4254442  78.2517432 120.8937681  84.6660573  77.6387935 121.9274366
  85.2191612  78.0583388 122.5864389  84.9030660  76.7123683 121.9697322
  80.6893673  83.6275008 137.7077130  80.5890400  84.5769365 137.6389221
  80.4715215  83.2993247 136.8353200  79.8906744  80.8759933 114.2917807
  80.7525908  81.2014832 114.5513624  80.0757088  80.0891429 113.7790873
  71.9074160  88.9582273 126.5697996  71.2137631  88.5436226 126.0567950
  72.6547151  89.0002810 125.9731415  88.0439380  79.7488460 121.4353030
  87.4638050  80.4073264 121.0531082  87.7775313  78.9265804 121.0240447
  86.4942947  79.1493518 123.6374350  86.9942725  79.2610052 122.8288669
  87.1378555  78.8454570 124.2775159  80.5524943  87.0572147 136.5242191
  80.0692024  87.8572507 136.7306080  80.6385882  87.0680092 135.5709635
  73.8210902  88.8900527 124.4464011  73.7981590  88.9888214 123.4945894
  74.1311539  89.7365678 124.7681177  76.4798280  90.9476682 128.5610625
  77.4341534  90.9160624 128.4940557  76.2810804  90.4867306 129.3760851
  77.0697662  89.5177798 131.1281423  77.8890551  90.0121877 131.1516260
  77.3434470  88.6009766 131.0998990  86.8264258  81.9088550 120.4909378
  85.9390114  82.1938201 120.2729573  87.2418248  81.7482314 119.6436655
  90.1778795  81.9335071 124.2063717  90.9539185  82.4231524 124.4788334
  89.4526929  82.3593125 124.6635587  92.6151353  82.6462690 125.2637658
  93.2095844  82.4058426 124.5530966  92.6877937  81.9269821 125.8911194
  74.8348509  96.4896301 125.5780823  74.7002977  95.7296702 125.0118821
  74.4180571  97.2137201 125.1109612  85.9707472  91.6733225 114.5857398
  86.6743322  91.8783227 115.2015054  85.2470121  92.2409987 114.8506482
  86.8005282  87.4243086 120.7059668  86.7440484  87.8811638 119.8667301
  87.3533625  86.6633771 120.5282511  90.6110088  83.2132818 121.5309788
  90.3547022  82.8129454 122.3617995  89.9862956  83.9276612 121.4059927
  94.9222426  85.9528891 124.0381079  94.3621984  86.0222081 124.8112641
  94.3165929  85.7769876 123.3180575  77.9917635  97.3865618 125.7899265
  77.8750019  98.3311051 125.6877956  77.1710081  97.0839180 126.1785065
  87.8794169  92.1115754 116.6355858  88.7139773  91.6796953 116.4533333
  87.7178512  91.9397768 117.5632753  87.5340062  88.6147867 118.0012198
  87.4788865  88.4492139 117.0600642  86.9086117  89.3223900 118.1574387
  72.3232577  83.8515932 131.8273620  72.9691440  83.3414886 132.3160845
  72.1149728  84.5884613 132.4017045  84.8485969  90.9196779 137.3265760
  85.7177128  91.0937432 136.9652395  84.3692720  91.7391196 137.2041490
  80.8436187  78.1155976 117.5797516  80.8314857  79.0597816 117.7365787
  81.7359609  77.9326122 117.2856977  79.0172149  98.0393880 129.0055194
  79.9199396  98.0717491 129.3221689  78.7909519  97.1094331 129.0201530
  80.7725751  96.7924867 125.6665273  79.8221382  96.7926728 125.5529645
  81.0758237  96.0457601 125.1501307  84.6588306  74.7098753 121.8343453
  83.8920702  74.1557240 121.9800135  85.0699011  74.7820622 122.6957604
  76.6630068  80.9983549 135.9248634  77.5261529  80.6420354 136.1351959
  76.0895478  80.6597444 136.6124038  96.5078444 102.6285405 126.7311035
  97.1456854 102.5092153 126.0274375  96.3899287 103.5766249 126.7898987
  93.3168151 102.5812833 126.6672560  92.9786662 102.4653898 125.7793094
  94.1857919 102.1803998 126.6473566  89.1754966 104.4348310 122.6569451
  88.6119832 104.3438247 121.8885738  89.0607361 103.6148214 123.1371943
  86.7219398 105.9299501 125.4953671  87.5140690 105.5890326 125.0799970
  86.9616049 106.0394476 126.4155824  94.7554525 108.1019277 117.9683915
  94.1042505 108.6873358 117.5817929  95.5498888 108.6325472 118.0278953
  88.6810152 105.1908415 118.3671050  89.4541028 104.6437402 118.2283926
  89.0335551 106.0552664 118.5785511  91.4451402 103.8961645 128.1639309
  92.0414974 103.6717668 127.4496272  91.5026373 103.1546391 128.7664757
  91.0176430 101.3501081 115.9989500  91.2701951 100.8282602 115.2372963
  90.0800989 101.1867226 116.1016183  96.0619713 100.3536859 123.8064243
  96.8482802  99.9356282 123.4554660  96.3258417 101.2582951 123.9745891
  96.2329790 105.7909709 118.5052900  95.5975623 105.8644336 119.2173804
  95.9027197 106.3803308 117.8271979 101.4628140 100.2912092 124.7097221
 102.1953312  99.7211309 124.9435051 100.7067496  99.9033693 125.1503727
  90.7372719 103.2529187 118.2013875  90.6208977 102.5774090 118.8694959
  90.8474979 102.7661561 117.3846028  93.0804260 102.7139334 121.9060564
  92.7162467 102.1869955 122.6173485  93.9371376 102.3237803 121.7327049
  98.9853560  94.0033666 129.1691830  98.6536885  94.8729077 128.9453045
  98.3899174  93.6869950 129.8485860  92.7209747  97.7429233 116.9021912
  92.8884149  98.6109470 117.2692384  92.5306916  97.9056515 115.9783202
  95.4785080 106.2046212 128.5687743  95.1785803 107.1071251 128.4603550
  95.1336139 105.9378396 129.4208896  88.9297561 102.6560009 124.6024447
  88.0048058 102.5236223 124.8102139  89.1781975 103.4354228 125.0994390
  98.8782224  98.7228753 126.2485180  97.9699101  98.6544161 125.9543941
  98.8269820  99.2000697 127.0767006  92.6998968 100.1986891 117.8868579
  92.5798593 100.6443942 118.7254060  92.0051556 100.5472209 117.3282117
  86.2906372 102.2993283 125.4368236  86.4198754 102.5527762 126.3507648
  85.6103824 102.8920991 125.1172891  90.4605860 112.9690533 121.5358711
  90.3829889 113.9198358 121.6147191  89.8567503 112.6236405 122.1933637
 100.7443870  96.9245191 128.0263054 100.1018250  97.2177724 127.3802849
 100.2398799  96.8098111 128.8316251  98.3984034 100.6708364 118.7148913
  99.3101890 100.9035751 118.5396611  97.8893681 101.2545408 118.1523992
  91.2069462 102.9503852 133.7538044  91.9484146 103.4888895 133.4772868
  90.5006447 103.5770140 133.9109596  93.0355872 100.0305599 129.7243763
  93.8817067 100.4545012 129.8678412  92.9754509  99.3739223 130.4182326
  97.0053616 105.6534183 126.1062495  96.3762479 105.8179897 125.4038563
  96.6179278 106.0675792 126.8773459 100.8842848 106.5888620 123.4606859
 100.1993886 106.9687522 122.9103892 100.9686697 107.1983947 124.1938806
  96.1855317  97.6909967 131.3824936  95.9416249  98.4452028 130.8459212
  96.4615247  98.0695315 132.2172184  98.1393780 104.2348579 130.0602202
  98.3510675 104.8780339 129.3836583  98.0923528 103.4010896 129.5924132
  95.7420009  96.8466400 126.9638774  94.8804488  97.1447654 127.2555512
  95.7682443  97.0636799 126.0319807  92.5581578 105.3908591 123.3712580
  93.0219924 105.6696294 122.5817202  92.2938376 104.4892035 123.1885671
  89.4505659 104.9380072 126.3092343  90.0207016 105.3667341 125.6709828
  90.0413771 104.6562657 127.0076529  91.4950464 101.5131743 120.1802145
  92.1974507 101.9652787 120.6476071  91.1631093 100.8715562 120.8082038
  89.9430826 100.1043500 134.5553354  89.3129486 100.7859781 134.7888751
  89.8366913  99.9926581 133.6106493  85.2375798  99.7715296 125.4819279
  84.4474852 100.0272824 125.0059389  85.7287045 100.5863634 125.5871319
  87.1890543 100.1359875 122.4402755  86.3921707 100.2478569 122.9586251
  86.9616136 100.4746527 121.5743646  83.5213501 100.0245786 127.9134269
  83.7721539 100.9092796 128.1791845  84.0573049  99.8450388 127.1409361
 107.3445601 103.4559283 124.5809531 106.5909309 102.8866681 124.4253535
 107.4793142 103.4221948 125.5280166  92.7344229 108.3272686 120.2564250
  92.5989903 109.1724221 120.6849098  93.2754041 108.5291963 119.4930184
  89.2211568  94.4064266 136.9178605  88.8278514  93.8530464 137.5926250
  90.0377709  94.7174844 137.3085123  86.1873626 105.8448124 120.8292175
  86.6998147 106.6391374 120.9797740  86.8396339 105.1474414 120.7625777
  87.9968511 108.9613880 122.9114929  88.1735139 109.8831845 122.7235912
  88.7925344 108.6472299 123.3409308  92.1379529  95.8222145 134.5098862
  92.8789243  96.4229298 134.4303324  92.3697452  95.0799782 133.9516905
  87.2820867 101.0078512 132.7877092  87.1674382 100.1063769 133.0884191
  86.4265385 101.2542209 132.4361908  89.1199826 110.4792054 128.9125271
  89.6707251 110.3509117 128.1402265  88.2811302 110.7786943 128.5620164
  96.0836692  91.8503248 128.7863144  95.7400962  92.7404889 128.7102254
  96.4515655  91.6604905 127.9232729  84.1522543 104.1736778 121.6051746
  84.9897765 104.5833786 121.3885454  84.3300811 103.2336220 121.5751940
  96.0486975 101.8411859 117.2935579  95.5333598 102.6116463 117.5323966
  95.7764283 101.1676995 117.9168640  93.6334086  96.6861559 122.3520817
  92.7775682  96.2968410 122.1726456  94.0461038  96.7653520 121.4920603
  95.1633233  94.2207903 126.7512377  94.6598028  94.1838038 125.9380182
  95.4563839  95.1300645 126.8109034  91.4076118  94.3046632 125.7578559
  92.2729115  94.1089441 125.3984448  91.4753627  94.0756984 126.6847915
 101.0221249 104.5944213 119.2288752 100.2450692 104.2555373 118.7843914
 101.7012730 104.5996836 118.5543717  95.8373278  99.7138951 119.1195360
  95.5323414 100.0285100 119.9705503  96.7903720  99.7920371 119.1622693
  94.2819710 105.8729174 120.7688314  93.7541072 105.1381934 120.4561551
  93.7807213 106.6503850 120.5228282  99.2612556 104.0678195 125.8855360
  98.6036230 104.7577456 125.9735489 100.0652955 104.4574627 126.2289347
  89.0138438  96.5348840 123.1294925  89.5882189  96.3124022 122.3968118
  89.6009420  96.6037535 123.8823527  98.0718015 102.4222567 123.9359302
  98.5849897 103.0552559 124.4381012  98.7219239 101.8223763 123.5702662
  89.3408025  98.5653301 117.1490811  88.5045337  98.9027988 117.4700085
  89.2012794  98.4302281 116.2117948  91.3161105  93.4090089 121.8569995
  90.6625518  93.0939106 121.2326610  91.2741579  92.7865830 122.5829818
  92.4272310 103.6909384 113.7723287  91.5199372 103.4598638 113.9714436
  92.9243342 102.8947004 113.9597269  95.3340389 112.4006892 116.6919973
  94.6602088 112.7038588 117.3004931  95.7206211 113.2035972 116.3425430
  94.5498846  99.8972023 126.1817643  93.6321407 100.1186970 126.0239331
  94.9658989  99.9718333 125.3229350  95.3333893 101.2963438 121.3120323
  96.0805712 101.8084836 121.0027445  95.6025483 100.9747491 122.1724716
  93.6060544 103.7921979 118.2947277  92.6971763 103.5081012 118.3919747
  93.6355627 104.2121058 117.4350584  98.8379811 107.4028569 122.0638445
  98.3842138 106.5619479 122.1203635  98.2073778 108.0389967 122.4013225
  97.7812731  98.3320555 123.2939112  97.0435487  97.8197941 123.6249355
  98.0339504  97.8920936 122.4822389  97.2812750 109.2405065 122.9988263
  97.5735725 109.8010123 122.2800628  97.7911371 109.5333626 123.7541422
  97.8824358  91.1096807 123.8880881  98.1883235  90.2494170 123.6006796
  98.6076963  91.7014427 123.6879875  84.1748714 101.5127493 122.2762479
  83.9773114 100.9196854 121.5513546  83.6195378 101.2079704 122.9938418
  92.1545438 101.4050600 124.3957072  92.2094047 100.4524436 124.3199549
  91.3436640 101.5610039 124.8798371  93.3036631 105.3330723 115.6335356
  92.8656061 104.6166582 115.1740993  94.0447072 105.5606838 115.0720447
  90.0937798 100.0227660 122.1547451  89.2805663 100.3221830 122.5612643
  90.5896792  99.6283348 122.8721934  92.2446375 110.0185416 124.0881716
  92.2022554 110.2446263 123.1590248  93.1609074 109.7848791 124.2367517
  95.6912009 100.4869484 130.9862345  96.0461397 100.7140957 131.8456811
  96.3384140 100.8187861 130.3639601 101.4209746 103.6087920 121.6911674
 101.2827645 103.7989516 120.7632863 101.0645965 104.3707303 122.1479725
  89.5851872  97.5946015 127.7708686  90.2251252  97.4534774 127.0731650
  88.7529403  97.3080528 127.3947288 101.4479126 105.6764447 126.7022946
 101.8815632 105.5839736 127.5506000 102.1610706 105.6521947 126.0642962
  90.3612176 106.8948446 123.8843679  91.1552775 106.3998766 123.6826254
  89.6503869 106.3666309 123.5211384  86.6694940 101.0391527 119.9603431
  85.7392528 100.9775983 120.1773394  86.7652412 100.5167480 119.1640073
  86.5880489  97.5646340 122.5481673  86.8487306  98.4791673 122.4390834
  87.4097661  97.0970783 122.6978286  88.0605414  98.9784097 129.7180498
  88.7328467  98.7701459 129.0693147  87.2335201  98.7806183 129.2785730
  93.9630986  95.6046038 131.7346158  93.3158901  96.3035988 131.6410635
  94.7332001  96.0382182 132.1022407  94.1395120 103.4426803 129.7942978
  95.0687180 103.5937963 129.6211946  93.7186150 103.5310824 128.9391625
  92.9383452 107.4677467 127.5641516  92.7994538 107.0996252 128.4367454
  92.1498048 107.9825107 127.3925474  93.5331604 112.5686564 118.9067052
  93.7083360 112.0974607 119.7212675  92.8464392 113.1952330 119.1348313
  94.4888667 106.8459070 124.9530354  94.1538500 106.8059840 125.8488004
  93.9892613 106.1803786 124.4800764  88.4632911 102.2526700 130.4782935
  88.3252709 101.5206939 131.0794474  89.3737835 102.1635600 130.1967123
  97.4247859 104.1915105 115.2267413  96.8077030 103.4661933 115.1300466
  96.9564347 104.9524465 114.8834488  91.0915212 101.9646660 129.9666614
  91.8014831 101.3239852 129.9253233  91.0484520 102.2159554 130.8892795
  89.8044146  98.9511877 131.7862254  89.2681503  98.5002616 132.4383850
  89.2160854  99.0857786 131.0432718  88.0992689 115.7175927 125.6806913
  88.3389288 116.3494451 126.3585931  87.2561886 115.3663967 125.9672272
  89.2146405  98.4100529 114.3488718  88.3375871  98.2889330 113.9850964
  89.6904158  97.6186607 114.0967606  80.7348545 103.1977689 124.4430225
  81.4219585 102.8839419 123.8551240  80.5796674 104.1019053 124.1697476
  85.5383267  98.0867885 128.8715248  85.4541456  97.4793555 128.1365658
  84.7165974  98.5776903 128.8724745  92.4010331 110.7626819 121.5951238
  91.6177853 111.3048499 121.6889463  93.1003076 111.2800799 121.9945479
  95.7106981  96.5721449 124.2385443  96.2075681  95.8191411 123.9186514
  94.9393963  96.6085765 123.6728653 103.5636738 102.2761814 125.8803735
 103.5526615 103.1586530 125.5097668 102.6954118 101.9233365 125.6858272
  96.7936762 105.3293136 121.8123867  95.8593040 105.4494598 121.6428571
  96.9713430 104.4265603 121.5483877  92.2941950  98.7138832 123.9657128
  91.9239737  98.1609872 124.6538034  92.7901042  98.1096965 123.4132128
 100.1809313 101.1710455 122.3473901 100.6469765 102.0038447 122.2734204
 100.6316814 100.7055437 123.0519159  98.2485544 107.5154276 119.3460053
  98.5245388 107.4010871 120.2553927  97.3790043 107.1171761 119.3072226
  98.1525976  93.5391042 126.3864802  97.2389056  93.7695269 126.5547009
  98.5819077  93.6229486 127.2378835  97.9232434 101.7280934 128.8864696
  97.2703885 101.9756842 128.2317149  98.3012814 100.9145072 128.5527174
  94.8839608 111.7640627 122.9892867  95.0662003 110.9462283 123.4520619
  95.7072594 111.9808320 122.5517757  95.2181774 110.6908812 120.2507915
  95.7469540 110.1801267 119.6378077  95.4809993 110.3751343 121.1153448
  85.7198866 108.7072682 127.9943249  86.3052303 107.9616370 128.1271153
  85.5223705 109.0176638 128.8779913  88.5737522 111.7423929 123.0105691
  87.9047897 112.2270057 122.5269731  88.4350391 111.9893150 123.9249070
  80.3116521 101.2778282 126.7147692  80.3500621 100.7441873 127.5084810
  79.8056814 100.7513487 126.0958669  87.6907283  96.1242822 130.2110234
  87.7548610  96.9857653 129.7987632  87.6274404  95.5116824 129.4782593
  87.1659556  98.1965955 133.8583268  87.7931595  97.8143032 134.4720793
  86.3087475  97.9780157 134.2238961  83.9425099 100.0042384 119.7901623
  84.2378540  99.0953062 119.7368677  83.0413135  99.9830124 119.4682626
  95.8511178 111.7249648 126.5952032  95.7262317 110.9239388 126.0862977
  96.5090269 112.2195842 126.1066002  87.4719346  98.0798381 125.7729172
  86.7505932  98.6934348 125.6336645  88.2612602  98.6156145 125.6945818
  90.2745659  95.4152807 132.0469824  90.7980061  95.6615104 132.8096133
  90.0557993  96.2472842 131.6272961  85.6712940  97.6856482 119.9140948
  85.3425646  96.8053861 119.7316054  86.0252311  97.6304150 120.8017338
  94.9192519 109.3211384 124.4235934  94.7717482 108.3928092 124.6043504
  95.7446013 109.3431475 123.9393009  88.7854763  97.9729452 120.2816426
  89.1250836  98.5015373 119.5595034  89.2326884  98.3109858 121.0574993
  98.5226641 110.1439943 125.5100807  99.4473189 109.9382805 125.3725258
  98.3541944 109.8956344 126.4190148  91.4798204  96.3566502 129.7319494
  91.1395025  95.5574315 130.1340174  90.7737211  96.6568213 129.1596327
  92.1314676  93.4415815 128.1846817  92.9540745  92.9676293 128.0625707
  92.3752740  94.2206298 128.6845503  90.7722911  96.4704073 118.4809719
  91.4931273  96.8485326 117.9773436  90.1488215  97.1892950 118.5844697
  94.9154034  97.1749222 119.4168051  95.1317648  98.0573860 119.1156879
  94.4348101  96.7835436 118.6873693  89.6553255 100.1334935 125.9938796
  89.5097836 100.4475238 126.8863077  89.1778459 100.7519836 125.4409694
  91.5149638  97.1237483 126.0419685  91.5011207  96.2278577 125.7051983
  92.2322066  97.1308147 126.6757971  93.3675768  97.5574824 128.0872813
  93.1093546  98.4791894 128.0857143  92.8360809  97.1605258 128.7773277
  98.3121957 110.6625611 120.8662898  98.4858835 110.0972033 120.1136751
  98.8050848 111.4626506 120.6842388  84.1298917 102.6740280 128.9326457
  83.5852385 103.4500088 129.0646731  85.0078267 103.0211084 128.7745578
  90.9186534  96.0051864 121.3107255  91.0402445  95.0768510 121.5098143
  90.6288576  96.0190550 120.3985571  93.7877724  93.6906774 124.4473975
  93.8099421  93.7546107 123.4925955  94.2045783  92.8511283 124.6414481
 104.1661348 103.4262034 122.4853198 104.6092494 102.6769359 122.0872321
 103.2887859 103.4172170 122.1026930  99.2997130 109.9792375 117.9659796
  99.9948034 110.5999068 118.1847111  99.6420280 109.1287726 118.2412174
  84.9164939 101.8010176 131.8256614  84.1746675 101.9492811 132.4121244
  84.5957683 102.0618442 130.9623363 101.1988553 107.4292081 119.4947127
 101.7239877 107.7679353 118.7696447 101.1110905 106.4939096 119.3110262
  92.8829214 113.4964064 123.8542380  92.4434204 113.0040443 124.5475237
  93.6337331 112.9537032 123.6134456  85.3621553 109.6875605 123.8567008
  86.1879573 109.3879377 123.4765652  85.0115605 108.9183227 124.3056797
  90.3303086 109.0402073 125.9264682  89.7083095 108.3772778 125.6266910
  91.0007953 109.0663205 125.2438330  83.5630158 107.6061931 124.8155942
  82.7262066 107.1784106 124.6339943  83.5353803 107.7994375 125.7526733
  90.4027613  97.5183861 135.5197188  90.4515769  98.3945984 135.1374958
  90.9450127  96.9761254 134.9468831  89.8916593 107.5905996 119.4023143
  90.0404713 108.2741461 118.7489815  90.6983036 107.5711086 119.9172598
  92.6326902  98.2715233 132.2743547  91.7630211  98.5648799 132.0026135
  92.8686382  98.8555678 132.9950810 103.7094213 104.8967272 124.8775645
 104.5441105 105.3357076 125.0413206 103.8453342 104.4205925 124.0583891
  87.6469226 103.6171174 120.4084211  87.4015268 102.7133504 120.6064422
  87.8165140 103.6188324 119.4663689  95.3365936  94.4894850 129.7908967
  95.8547879  95.2255877 129.4655456  94.9821068  94.7958844 130.6255726
  86.9164873  99.3499531 117.9070373  86.2234118  99.4243886 117.2510409
  86.6716625  98.5859875 118.4291890  95.5878530  90.9095133 125.3109864
  95.8680283  90.2418322 125.9370290  96.3729137  91.1024228 124.7984527
  93.3911998 110.0854127 116.8734890  92.8185965 110.7044314 116.4205362
  93.9644792 110.6353488 117.4074812  99.4587388  99.3312767 129.0581439
 100.4104811  99.4310864 129.0793663  99.2890838  98.5391035 129.5679523
  97.4801768  96.4168350 129.2440840  96.8851700  96.6973363 128.5487328
  97.1951464  96.9062251 130.0157581  96.6109258 110.3691277 118.0043472
  97.5439931 110.3036839 118.2076348  96.5232471 111.2047544 117.5458005
  99.2397275 109.6857147 114.9647420  99.1610906 109.3517011 115.8583178
 100.0606941 110.1778915 114.9638892 101.9375466 102.5518887 128.1723738
 101.9051786 101.6134887 128.3583422 102.5476089 102.6302923 127.4389563
  93.7758797 101.4214939 114.2150942  94.7217901 101.2921148 114.2839361
  93.3973042 100.6829601 114.6920371 102.0869954  99.3429930 128.2182022
 101.5709003  98.5588387 128.0311950 102.9709903  99.0148647 128.3828541
  99.7480681  93.0870946 124.1777834  99.5505502  92.7786034 125.0621166
 100.3580387  93.8132584 124.3075764 105.8367313 101.7542756 127.9104226
 105.1100476 101.6198721 127.3020718 105.4214600 102.0619585 128.7160944
  91.9601714  99.3464916 114.1505828  91.0533169  99.0498029 114.2268541
  92.2377695  99.0494734 113.2840114  82.8779654 100.6671279 124.6004874
  82.5582439  99.8136587 124.3079248  82.3313082 100.8819857 125.3562841
  86.6559562 103.3833720 128.3174381  86.8745572 104.3150828 128.3362414
  87.0685336 103.0241695 129.1029184  93.5763780  93.8901806 120.3050069
  92.7664508  93.5448891 120.6805315  94.2648197  93.5809349 120.8937681
  95.5054328  92.9679852 121.9274366  96.0585366  93.3875306 122.5864389
  95.7424414  92.0415600 121.9697322  90.7300498  96.2051851 114.2917807
  91.5919662  96.5306749 114.5513624  90.9150843  95.4183347 113.7790873
  82.7467914 104.2874191 126.5697996  82.0531386 103.8728144 126.0567950
  83.4940905 104.3294727 125.9731415  98.8833135  95.0780378 121.4353030
  98.3031804  95.7365182 121.0531082  98.6169068  94.2557722 121.0240447
  97.3336701  94.4785435 123.6374350  97.8336480  94.5901970 122.8288669
  97.9772309  94.1746488 124.2775159  84.6604657 104.2192445 124.4464011
  84.6375345 104.3180132 123.4945894  84.9705293 105.0657595 124.7681177
  87.3192035 106.2768600 128.5610625  88.2735288 106.2452542 128.4940557
  87.1204558 105.8159223 129.3760851  87.9091417 104.8469716 131.1281423
  88.7284306 105.3413794 131.1516260  88.1828224 103.9301684 131.0998990
  97.6658013  97.2380468 120.4909378  96.7783868  97.5230119 120.2729573
  98.0812002  97.0774231 119.6436655 101.0172549  97.2626989 124.2063717
 101.7932939  97.7523441 124.4788334 100.2920683  97.6885043 124.6635587
 103.4545108  97.9754608 125.2637658 104.0489599  97.7350344 124.5530966
 103.5271691  97.2561739 125.8911194  85.6742263 111.8188219 125.5780823
  85.5396731 111.0588620 125.0118821  85.2574326 112.5429119 125.1109612
  96.8101226 107.0025143 114.5857398  97.5137077 107.2075145 115.2015054
  96.0863875 107.5701904 114.8506482  97.6399037 102.7535004 120.7059668
  97.5834238 103.2103555 119.8667301  98.1927379 101.9925688 120.5282511
 101.4503843  98.5424736 121.5309788 101.1940777  98.1421371 122.3617995
 100.8256711  99.2568530 121.4059927 105.7616180 101.2820809 124.0381079
 105.2015738 101.3513998 124.8112641 105.1559684 101.1061794 123.3180575
  88.8311389 112.7157536 125.7899265  88.7143773 113.6602969 125.6877956
  88.0103836 112.4131098 126.1785065  98.7187924 107.4407672 116.6355858
  99.5533528 107.0088870 116.4533333  98.5572267 107.2689685 117.5632753
  98.3733816 103.9439785 118.0012198  98.3182620 103.7784057 117.0600642
  97.7479871 104.6515818 118.1574387  83.1626331  99.1807849 131.8273620
  83.8085195  98.6706803 132.3160845  82.9543482  99.9176531 132.4017045
  91.6829941  93.4447894 117.5797516  91.6708611  94.3889734 117.7365787
  92.5753363  93.2618040 117.2856977  91.6119505 112.1216785 125.6665273
  90.6615136 112.1218646 125.5529645  91.9151992 111.3749519 125.1501307
  95.4982061  90.0390671 121.8343453  94.7314457  89.4849157 121.9800135
  95.9092766  90.1112540 122.6957604  87.5023822  96.3275467 135.9248634
  88.3655284  95.9712271 136.1351959  86.9289233  95.9889361 136.6124038
  99.5203907 120.5200332 118.3671050 100.2934783 119.9729319 118.2283926
  99.8729306 121.3844582 118.5785511 101.8570185 116.6792998 115.9989500
 102.1095705 116.1574520 115.2372963 100.9194744 116.5159144 116.1016183
 101.5766473 118.5821104 118.2013875 101.4602731 117.9066008 118.8694959
 101.6868733 118.0953478 117.3846028 103.5603501 113.0721151 116.9021912
 103.7277904 113.9401388 117.2692384 103.3700670 113.2348433 115.9783202
 103.5392722 115.5278809 117.8868579 103.4192347 115.9735859 118.7254060
 102.8445311 115.8764126 117.3282117 109.2377788 116.0000282 118.7148913
 110.1495644 116.2327669 118.5396611 108.7287435 116.5837326 118.1523992
 102.3344219 116.8423661 120.1802145 103.0368262 117.2944704 120.6476071
 102.0024847 116.2007480 120.8082038  98.0284298 115.4651793 122.4402755
  97.2315461 115.5770487 122.9586251  97.8009890 115.8038445 121.5743646
  94.9916297 119.5028696 121.6051746  95.8291519 119.9125704 121.3885454
  95.1694565 118.5628138 121.5751940 106.8880729 117.1703776 117.2935579
 106.3727353 117.9408381 117.5323966 106.6158038 116.4968913 117.9168640
 104.4727840 112.0153477 122.3520817 103.6169437 111.6260328 122.1726456
 104.8854792 112.0945438 121.4920603 106.6767033 115.0430868 119.1195360
 106.3717168 115.3577018 119.9705503 107.6297475 115.1212288 119.1622693
  99.8532192 111.8640758 123.1294925 100.4275944 111.6415940 122.3968118
 100.4403175 111.9329453 123.8823527 100.1801779 113.8945219 117.1490811
  99.3439091 114.2319906 117.4700085 100.0406549 113.7594199 116.2117948
 102.1554860 108.7382007 121.8569995 101.5019272 108.4231024 121.2326610
 102.1135334 108.1157747 122.5829818 103.2666065 119.0201302 113.7723287
 102.3593126 118.7890555 113.9714436 103.7637097 118.2238921 113.9597269
 104.4454298 119.1213897 118.2947277 103.5365517 118.8372930 118.3919747
 104.4749382 119.5412975 117.4350584 108.7218112 106.4388724 123.8880881
 109.0276989 105.5786088 123.6006796 109.4470717 107.0306345 123.6879875
  95.0142468 116.8419411 122.2762479  94.8166868 116.2488772 121.5513546
  94.4589132 116.5371621 122.9938418 104.1430386 120.6622641 115.6335356
 103.7049816 119.9458499 115.1740993 104.8840827 120.8898755 115.0720447
 100.9331552 115.3519577 122.1547451 100.1199418 115.6513748 122.5612643
 101.4290546 114.9575266 122.8721934  97.5088694 116.3683445 119.9603431
  96.5786282 116.3067900 120.1773394  97.6046166 115.8459398 119.1640073
  97.4274243 112.8938258 122.5481673  97.6881061 113.8083591 122.4390834
  98.2491416 112.4262700 122.6978286 108.2641613 119.5207022 115.2267413
 107.6470784 118.7953850 115.1300466 107.7958102 120.2816382 114.8834488
 100.0540159 113.7392447 114.3488718  99.1769626 113.6181247 113.9850964
 100.5297912 112.9478525 114.0967606  91.5742300 118.5269606 124.4430225
  92.2613339 118.2131336 123.8551240  91.4190428 119.4310971 124.1697476
  94.7818853 115.3334302 119.7901623  95.0772294 114.4244980 119.7368677
  93.8806889 115.3122041 119.4682626  96.5106695 113.0148399 119.9140948
  96.1819401 112.1345778 119.7316054  96.8646066 112.9596068 120.8017338
  99.6248518 113.3021369 120.2816426  99.9644590 113.8307290 119.5595034
 100.0720638 113.6401775 121.0574993 101.6116665 111.7995991 118.4809719
 102.3325028 112.1777244 117.9773436 100.9881969 112.5184868 118.5844697
 105.7547788 112.5041140 119.4168051 105.9711402 113.3865778 119.1156879
 105.2741855 112.1127353 118.6873693 101.7580288 111.3343781 121.3107255
 101.8796199 110.4060427 121.5098143 101.4682331 111.3482467 120.3985571
 104.6271479 109.0198692 124.4473975 104.6493175 109.0838025 123.4925955
 105.0439538 108.1803200 124.6414481  98.4862980 118.9463092 120.4084211
  98.2409022 118.0425422 120.6064422  98.6558895 118.9480242 119.4663689
  97.7558628 114.6791449 117.9070373  97.0627873 114.7535804 117.2510409
  97.5110380 113.9151793 118.4291890 106.4272284 106.2387051 125.3109864
 106.7074038 105.5710240 125.9370290 107.2122891 106.4316146 124.7984527
 104.6152551 116.7506857 114.2150942 105.5611656 116.6213065 114.2839361
 104.2366796 116.0121519 114.6920371 102.7995468 114.6756834 114.1505828
 101.8926924 114.3789946 114.2268541 103.0771449 114.3786652 113.2840114
  93.7173409 115.9963197 124.6004874  93.3976193 115.1428505 124.3079248
  93.1706837 116.2111775 125.3562841 104.4157534 109.2193723 120.3050069
 103.6058262 108.8740808 120.6805315 105.1041951 108.9101267 120.8937681
 106.3448082 108.2971770 121.9274366 106.8979121 108.7167223 122.5864389
 106.5818169 107.3707518 121.9697322 101.5694253 111.5343769 114.2917807
 102.4313417 111.8598667 114.5513624 101.7544597 110.7475265 113.7790873
 109.7226889 110.4072295 121.4353030 109.1425558 111.0657099 121.0531082
 109.4562822 109.5849640 121.0240447 108.5051767 112.5672386 120.4909378
 107.6177622 112.8522036 120.2729573 108.9205757 112.4066149 119.6436655
 107.6494981 122.3317060 114.5857398 108.3530831 122.5367063 115.2015054
 106.9257630 122.8993822 114.8506482 102.5223696 108.7739812 117.5797516
 102.5102366 109.7181652 117.7365787 103.4147118 108.5909957 117.2856977
 106.3375815 105.3682588 121.8343453 105.5708211 104.8141075 121.9800135
 106.7486520 105.4404457 122.6957604  40.5585754   8.4621812 104.6929222
  39.9073734   9.0475892 104.3063236  41.3530117   8.9928007 104.7524260
  34.4841381   5.5510949 105.0916356  35.2572257   5.0039936 104.9529232
  34.8366780   6.4155198 105.3030818  36.8207659   1.7103615 102.7234806
  37.0733180   1.1885136 101.9618269  35.8832218   1.5469760 102.8261490
  42.0361019   6.1512244 105.2298206  41.4006852   6.2246870 105.9419111
  41.7058426   6.7405842 104.5517286  36.2637089  13.3293067 108.2604017
  36.1861118  14.2800892 108.3392498  35.6598732  12.9838939 108.9178943
  44.2015263   1.0310898 105.4394220  45.1133119   1.2638285 105.2641918
  43.6924910   1.6147943 104.8769299  46.6874077   6.9491155 110.1852165
  46.0025115   7.3290056 109.6349198  46.7717926   7.5586481 110.9184113
  53.1476829   3.8161818 111.3054838  52.3940538   3.2469216 111.1498842
  53.2824371   3.7824482 112.2525472  38.5375457   8.6875220 106.9809557
  38.4021132   9.5326756 107.4094405  39.0785270   8.8894498 106.2175491
  41.8518204   2.2014393 104.0180885  41.3364827   2.9718998 104.2569273
  41.5795512   1.5279529 104.6413947  46.8252478   4.9546748 105.9534059
  46.0481921   4.6157907 105.5089221  47.5043959   4.9599371 105.2789024
  40.0850939   6.2331708 107.4933621  39.5572300   5.4984468 107.1806858
  39.5838441   7.0106385 107.2473589  38.2303539   4.0511919 100.4968594
  37.3230601   3.8201172 100.6959743  38.7274571   3.2549538 100.6842575
  41.1371618  12.7609426 103.4165280  40.4633317  13.0641123 104.0250238
  41.5237440  13.5638506 103.0670737  39.4091772   4.1524513 105.0192584
  38.5002992   3.8683546 105.1165053  39.4386856   4.5723592 104.1595891
  44.6411040   7.7631103 108.7883751  44.1873367   6.9222013 108.8448942
  44.0105007   8.3992501 109.1258531  43.0843979   9.6007600 109.7233569
  43.3766953  10.1612657 109.0045935  43.5942600   9.8936161 110.4786729
  39.1067860   5.6933257 102.3580662  38.6687290   4.9769116 101.8986300
  39.8478301   5.9209372 101.7965754  47.2240975   3.9690454 108.4156981
  47.0858874   4.1592050 107.4878170  46.8677194   4.7309837 108.8725032
  39.3362833  12.9289098 105.6312359  39.5114589  12.4577141 106.4457982
  38.6495621  13.5554864 105.8593620  43.2279088   4.5517639 101.9512720
  42.6108258   3.8264467 101.8545773  42.7595576   5.3126999 101.6079794
  35.0177634  -1.2296937 101.0734024  34.1407100  -1.3508136 100.7096271
  35.4935387  -2.0210859 100.8212913  38.2041560  11.1229353 108.3196545
  37.4209082  11.6651034 108.4134769  38.9034305  11.6403333 108.7190786
  42.5967991   5.6895670 108.5369173  41.6624269   5.8097133 108.3673878
  42.7744659   4.7868137 108.2729183  44.0516773   7.8756811 106.0705360
  44.3276617   7.7613405 106.9799234  43.1821272   7.4774296 106.0317533
  40.6870837  12.1243162 109.7138173  40.8693232  11.3064817 110.1765926
  41.5103823  12.3410854 109.2763063  41.0213003  11.0511347 106.9753222
  41.5500769  10.5403801 106.3623384  41.2841222  10.7353877 107.8398755
  44.1153186  11.0228145 107.5908205  44.2890064  10.4574567 106.8382057
  44.6082077  11.8229040 107.4087695  49.9692577   3.7864568 109.2098504
  50.4123723   3.0371893 108.8117628  49.0919088   3.7774704 108.8272236
  45.1028359  10.3394909 104.6905103  45.7979263  10.9601602 104.9092418
  45.4451509   9.4890260 104.9657481  47.0019782   7.7894615 106.2192434
  47.5271106   8.1281888 105.4941754  46.9142134   6.8541630 106.0355568
  38.6860442  13.8566598 110.5787687  38.2465433  13.3642977 111.2720544
  39.4368559  13.3139566 110.3379762  35.6947821   7.9508530 106.1268449
  35.8435942   8.6343995 105.4735122  36.5014265   7.9313621 106.6417905
  49.5125442   5.2569806 111.6020952  50.3472333   5.6959610 111.7658512
  49.6484571   4.7808459 110.7829198  39.1943227  10.4456661 103.5980197
  38.6217194  11.0646848 103.1450668  39.7676021  10.9956023 104.1320119
  42.4140487  10.7293811 104.7288779  43.3471160  10.6639373 104.9321654
  42.3263700  11.5650078 104.2703312  45.0428503  10.0459681 101.6892726
  44.9642135   9.7119545 102.5828484  45.8638170  10.5381449 101.6884199
  39.5790025   1.7817474 100.9396249  40.5249130   1.6523682 101.0084667
  39.2004270   1.0432136 101.4165677  37.7632943  -0.2932550 100.8751134
  36.8564398  -0.5899437 100.9513848  38.0408924  -0.5902732 100.0085421
  36.5331727  -3.4345615 101.0163114  37.3950891  -3.1090716 101.2758931
  36.7182071  -4.2214119 100.5036179  42.6132455   7.3627677 101.3102705
  43.3168305   7.5677679 101.9260360  41.8895104   7.9304439 101.5751788
  43.4430266   3.1137538 107.4304975  43.3865467   3.5706090 106.5912607
  43.9958608   2.3528223 107.2527818  44.5219153   7.8010206 103.3601165
  45.3564757   7.3691404 103.1778640  44.3603496   7.6292220 104.2878059
  44.1765045   4.3042319 104.7257504  44.1213849   4.1386591 103.7845948
  43.5511100   5.0118352 104.8819694  53.1503428  18.3179857 113.4556342
  53.7881838  18.1986604 112.7519682  53.0324271  19.2660701 113.5144294
  49.9593134  18.2707285 113.3917866  49.6211646  18.1548350 112.5038401
  50.8282902  17.8698450 113.3718872  45.8179950  20.1242762 109.3814757
  45.2544815  20.0332699 108.6131045  45.7032345  19.3042666 109.8617250
  50.4412917  19.4242137 119.3504072  50.4301558  19.0294935 118.4784575
  50.6033556  18.6908210 119.9437843  43.3644382  21.6193953 112.2198978
  44.1565674  21.2784778 111.8045277  43.6041032  21.7288928 113.1401131
  51.3979508  23.7913729 104.6929222  50.7467488  24.3767810 104.3063236
  52.1923871  24.3219924 104.7524260  45.3235136  20.8802866 105.0916356
  46.0966012  20.3331854 104.9529232  45.6760534  21.7447116 105.3030818
  47.1620178  22.2079249 118.2983256  46.8710044  23.1124880 118.1829922
  47.7977163  22.2495776 119.0127325  48.0876385  19.5856097 114.8884615
  48.6839957  19.3612120 114.1741578  48.1451357  18.8440843 115.4910063
  47.6601413  17.0395533 102.7234806  47.9126934  16.5177054 101.9618269
  46.7225972  16.8761678 102.8261490  52.7044696  16.0431311 110.5309550
  53.4907785  15.6250734 110.1799967  52.9683401  16.9477403 110.6991198
  52.8754774  21.4804161 105.2298206  52.2400607  21.5538788 105.9419111
  52.5452180  22.0697760 104.5517286  58.1053123  15.9806544 111.4342528
  58.8378295  15.4105761 111.6680358  57.3492479  15.5928145 111.8749034
  47.3797702  18.9423639 104.9259181  47.2633960  18.2668542 105.5940266
  47.4899962  18.4556012 104.1091334  49.7229243  18.4033786 108.6305871
  49.3587450  17.8764407 109.3418792  50.5796359  18.0132255 108.4572356
  55.6278544   9.6928118 115.8937137  55.2961868  10.5623529 115.6698352
  55.0324157   9.3764402 116.5731167  49.3634730  13.4323685 103.6267219
  49.5309132  14.3003922 103.9937690  49.1731899  13.5950967 102.7028508
  52.1210063  21.8940664 115.2933049  51.8210786  22.7965703 115.1848857
  51.7761123  21.6272847 116.1454202  45.5722545  18.3454461 111.3269754
  44.6473041  18.2130675 111.5347446  45.8206958  19.1248680 111.8239696
  55.5207207  14.4123204 112.9730487  54.6124084  14.3438613 112.6789248
  55.4694803  14.8895149 113.8012312  49.3423951  15.8881343 104.6113886
  49.2223576  16.3338394 105.4499366  48.6476539  16.2366661 104.0527424
  42.9331356  17.9887735 112.1613543  43.0623737  18.2422214 113.0752955
  42.2528807  18.5815443 111.8418198  47.1030843  28.6584985 108.2604017
  47.0254873  29.6092810 108.3392498  46.4992487  28.3130857 108.9178943
  57.3868853  12.6139643 114.7508361  56.7443234  12.9072176 114.1048155
  56.8823782  12.4992563 115.5561557  55.0409017  16.3602816 105.4394220
  55.9526873  16.5930203 105.2641918  54.5318664  16.9439860 104.8769299
  53.3249785  20.7827444 119.0755513  53.7333141  20.3409854 118.3310145
  52.6027046  20.2080071 119.3289705  49.6780855  15.7200051 116.4489069
  50.5242050  16.1439464 116.5923718  49.6179492  15.0633675 117.1427633
  53.6478599  21.3428634 112.8307801  53.0187462  21.5074349 112.1283869
  53.2604261  21.7570244 113.6018765  57.5267831  22.2783072 110.1852165
  56.8418869  22.6581974 109.6349198  57.6111681  22.8878399 110.9184113
  54.7818763  19.9243031 116.7847509  54.9935658  20.5674791 116.1081890
  54.7348511  19.0905348 116.3169439  52.3844992  12.5360852 113.6884081
  51.5229471  12.8342106 113.9800818  52.4107427  12.7531251 112.7565113
  49.2006561  21.0803043 110.0957887  49.6644907  21.3590746 109.3062509
  48.9363359  20.1786487 109.9130977  46.0930642  20.6274524 113.0337650
  46.6631999  21.0561792 112.3955134  46.6838754  20.3457109 113.7321835
  48.1375447  17.2026195 106.9047452  48.8399491  17.6547239 107.3721378
  47.8056076  16.5610014 107.5327345  41.8800781  15.4609748 112.2064585
  41.0899835  15.7167276 111.7304696  42.3712029  16.2758085 112.3116626
  55.8964591  22.8014987 114.9569866  56.7182035  22.3995174 114.6752548
  55.8926994  22.6983221 115.9085982  43.8315527  15.8254327 109.1648062
  43.0346690  15.9373021 109.6831558  43.6041119  16.1640979 108.2988952
  49.6621194  22.3499030 117.1130577  49.7265627  22.8119437 117.9488748
  48.9532118  21.7196395 117.2412886  63.9870584  19.1453735 111.3054838
  63.2334292  18.5761133 111.1498842  64.1218125  19.1116400 112.2525472
  49.3769212  24.0167138 106.9809557  49.2414887  24.8618673 107.4094405
  49.9179024  24.2186415 106.2175491  42.8298609  21.5342576 107.5537482
  43.3423130  22.3285826 107.7043047  43.4821322  20.8368866 107.4871083
  44.6393494  24.6508332 109.6360235  44.8160122  25.5726297 109.4481219
  45.4350328  24.3366751 110.0654615  51.0037688  24.6390704 121.1109899
  50.5601543  23.8527083 120.7930803  51.6654902  24.8269855 120.4453790
  45.7624810  26.1686506 115.6370577  46.3132235  26.0403569 114.8647571
  44.9236285  26.4681395 115.2865470  53.1018926  24.9193504 119.1391300
  53.0837402  25.7402385 118.6471569  54.0238846  24.7947579 119.3641441
  49.5591981  22.4337634 119.9814809  50.0920317  21.6725922 119.7514117
  49.0306062  22.1411285 120.7238963  40.7947526  19.8631230 108.3297052
  41.6322748  20.2728238 108.1130760  40.9725794  18.9230672 108.2997246
  52.6911958  17.5306311 104.0180885  52.1758582  18.3010915 104.2569273
  52.4189267  16.8571447 104.6413947  50.2759069  12.3756011 109.0766124
  49.4200666  11.9862862 108.8971763  50.6886021  12.4547972 108.2165909
  51.8058216   9.9102355 113.4757684  51.3023011   9.8732490 112.6625489
  52.0988823  10.8195097 113.5354340  48.0501102   9.9941084 112.4823865
  48.9154099   9.7983893 112.1229755  48.1178611   9.7651436 113.4093222
  57.6646232  20.2838665 105.9534059  56.8875675  19.9449825 105.5089221
  58.3437713  20.2891288 105.2789024  52.4798261  15.4033403 105.8440667
  52.1748397  15.7179552 106.6950810  53.4328704  15.4814823 105.8868000
  50.9244693  21.5623626 107.4933621  50.3966055  20.8276386 107.1806858
  50.4232196  22.3398302 107.2473589  55.9037539  19.7572646 112.6100667
  55.2461214  20.4471908 112.6980796  56.7077938  20.1469078 112.9534653
  45.6563421  12.2243292 109.8540232  46.2307173  12.0018474 109.1213425
  46.2434403  12.2931987 110.6068833  54.7142998  18.1117019 110.6604609
  55.2274880  18.7447011 111.1626318  55.3644222  17.5118215 110.2947969
  45.9833008  14.2547753 103.8736117  45.1470320  14.5922440 104.1945392
  45.8437778  14.1196733 102.9363254  47.9586089   9.0984541 108.5815302
  47.3050501   8.7833558 107.9571916  47.9166563   8.4760282 109.3075124
  49.0697293  19.3803836 100.4968594  48.1624355  19.1493090 100.6959743
  49.5668325  18.5841455 100.6842575  51.9765372  28.0901343 103.4165280
  51.3027071  28.3933040 104.0250238  52.3631194  28.8930424 103.0670737
  51.1923829  15.5866475 112.9062949  50.2746390  15.8081422 112.7484637
  51.6083973  15.6612785 112.0474657  51.9758877  16.9857890 108.0365629
  52.7230696  17.4979288 107.7272751  52.2450466  16.6641943 108.8970023
  50.2485527  19.4816431 105.0192584  49.3396746  19.1975464 105.1165053
  50.2780611  19.9015510 104.1595891  55.4804794  23.0923021 108.7883751
  55.0267121  22.2513930 108.8448942  54.8498761  23.7284419 109.1258531
  54.4237714  14.0215007 110.0184419  53.6860471  13.5092393 110.3494661
  54.6764487  13.5815388 109.2067696  53.9237734  24.9299517 109.7233569
  54.2160708  25.4904574 109.0045935  54.4336354  25.2228078 110.4786729
  54.5249341   6.7991259 110.6126188  54.8308218   5.9388622 110.3252103
  55.2501946   7.3908879 110.4125182  40.8173697  17.2021945 109.0007786
  40.6198097  16.6091306 108.2758853  40.2620361  16.8974155 109.7183725
  48.7970421  17.0945052 111.1202379  48.8519031  16.1418888 111.0444856
  47.9861623  17.2504491 111.6043678  49.9461615  21.0225175 102.3580662
  49.5081045  20.3061034 101.8986300  50.6872056  21.2501290 101.7965754
  46.7362781  15.7122111 108.8792758  45.9230646  16.0116282 109.2857950
  47.2321775  15.3177800 109.5967240  48.8871359  25.7079868 110.8127023
  48.8447538  25.9340715 109.8835555  49.8034058  25.4743243 110.9612824
  52.3336993  16.1763936 117.7107652  52.6886380  16.4035409 118.5702118
  52.9809124  16.5082313 117.0884907  58.0634729  19.2982372 108.4156981
  57.9252628  19.4883968 107.4878170  57.7070948  20.0601755 108.8725032
  46.2276856  13.2840467 114.4953993  46.8676235  13.1429226 113.7976956
  45.3954386  12.9974980 114.1192595  58.0904109  21.3658899 113.4268252
  58.5240616  21.2734188 114.2751306  58.8035690  21.3416399 112.7888268
  47.0037160  22.5842897 110.6088985  47.7977758  22.0893218 110.4071560
  46.2928852  22.0560761 110.2456691  51.8232004  24.9660993 114.9601353
  51.8769026  25.5351929 115.7279069  50.9546785  25.1362878 114.5955390
  43.3119923  16.7285979 106.6848738  42.3817511  16.6670435 106.9018700
  43.4077395  16.2061932 105.8885379  43.2305472  13.2540792 109.2726980
  43.4912289  14.1686125 109.1636140  44.0522644  12.7865235 109.4223593
  58.9519659  21.4082599 115.9601138  59.1455549  22.3128410 116.2060413
  58.8520277  20.9490019 116.7939723  54.0134767  21.5589342 121.5342018
  53.8620274  21.3299894 120.6172102  54.0039447  22.5159944 121.5473363
  50.7820104  19.1321255 116.5188285  51.7112164  19.2832415 116.3457252
  50.3611134  19.2205276 115.6636931  49.5808435  23.1571919 114.2886822
  49.4419521  22.7890704 115.1612761  48.7923032  23.6719559 114.1170780
  50.1756587  28.2581016 105.6312359  50.3508343  27.7869059 106.4457982
  49.4889375  28.8846782 105.8593620  51.1313651  22.5353522 111.6775660
  50.7963483  22.4954292 112.5733310  50.6317596  21.8698238 111.2046070
  54.0672842  19.8809556 101.9512720  53.4502013  19.1556385 101.8545773
  53.5989331  20.6418917 101.6079794  47.7340195  17.6541111 116.6911921
  48.4439814  17.0134304 116.6498539  47.6909503  17.9054006 117.6138102
  55.7226974  24.5908465 119.6118500  55.6639520  23.9067685 118.9449083
  56.1246492  25.3327455 119.1599126  44.7417673  31.4070379 112.4052219
  44.9814271  32.0388903 113.0831238  43.8986869  31.0558419 112.6917578
  45.8571388  14.0994981 101.0734024  44.9800855  13.9783782 100.7096271
  46.3329141  13.3081059 100.8212913  55.7244381  22.5548049 117.8432480
  54.8371160  22.2173971 117.9658879  56.2942932  21.8231080 118.0801245
  37.3773528  18.8872140 111.1675531  38.0644568  18.5733870 110.5796547
  37.2221657  19.7913505 110.8942783  49.2545535  27.2149501 114.8093723
  49.1815706  28.0204473 115.3213028  48.8122928  27.4141467 113.9841745
  49.0435314  26.4521271 108.3196545  48.2602836  26.9942951 108.4134769
  49.7428059  26.9695251 108.7190786  52.3531964  12.2615901 110.9630750
  52.8500664  11.5085863 110.6431820  51.5818946  12.2980217 110.3973959
  60.2061722  17.9656266 112.6049042  60.1951598  18.8480982 112.2342975
  59.3379101  17.6127817 112.4103579  51.7144218  27.1136335 116.9651882
  52.4272190  27.7483800 116.8927783  51.2234247  27.2100201 116.1491884
  53.4361745  21.0187588 108.5369173  52.5018024  21.1389050 108.3673878
  53.6138414  20.1160055 108.2729183  48.9366933  14.4033284 110.6902435
  48.5664721  13.8504324 111.3783340  49.4326026  13.7991417 110.1377435
  56.8234296  16.8604907 109.0719208  57.2894749  17.6932899 108.9979510
  57.2741797  16.3949889 109.7764466  46.7656132  24.8630779 117.7857453
  47.4665591  25.4967262 117.9386847  46.2951247  25.2045510 117.0253092
  54.8910528  23.2048728 106.0705360  55.1670371  23.0905323 106.9799234
  54.0215026  22.8066213 106.0317533  54.7950959   9.2285494 113.1110109
  53.8814039   9.4589721 113.2792316  55.2244061   9.3123938 113.9624141
  54.5657418  17.4175386 115.6110003  53.9128868  17.6651293 114.9562456
  54.9437798  16.6039524 115.2772480  51.5264592  27.4535079 109.7138173
  51.7086986  26.6356735 110.1765926  52.3497578  27.6702771 109.2763063
  51.8606757  26.3803264 106.9753222  52.3894523  25.8695719 106.3623384
  52.1234977  26.0645795 107.8398755  42.3623850  24.3967134 114.7188555
  42.9477287  23.6510822 114.8516460  42.1648688  24.7071090 115.6025219
  45.2162505  27.4318381 109.7350998  44.5472880  27.9164509 109.2515038
  45.0775375  27.6787601 110.6494376  49.3567774  29.4662125 116.3333656
  49.9086082  29.6293746 117.0982741  49.6973967  30.0566562 115.6613681
  54.2078648  24.2923382 122.1882310  54.7518552  24.9053340 121.6937265
  53.6265493  24.8502960 122.7049323  40.5850082  15.6936836 106.5146930
  40.8803523  14.7847514 106.4613984  39.6838118  15.6724575 106.1927932
  52.4936161  27.4144100 113.3197338  52.3687300  26.6133840 112.8108284
  53.1515252  27.9090293 112.8311308  44.1144329  13.7692833 112.4974478
  43.3930915  14.3828800 112.3581952  44.9037585  14.3050597 112.4191124
  54.5571069  25.2153120 114.9476888  53.6101405  25.0958471 114.8755215
  54.9053842  24.3275618 115.0303150  42.3137924  13.3750934 106.6386255
  41.9850630  12.4948313 106.4561361  42.6677294  13.3198602 107.5262644
  51.5617503  25.0105836 111.1481241  51.4142465  24.0822544 111.3288811
  52.3870996  25.0325927 110.6638316  45.4279747  13.6623903 107.0061733
  45.7675819  14.1909825 106.2840341  45.8751867  14.0004310 107.7820299
  55.1651624  25.8334395 112.2346113  56.0898172  25.6277256 112.0970564
  54.9966928  25.5850796 113.1435455  47.4147894  12.1598525 105.2055025
  48.1356256  12.5379778 104.7018742  46.7913198  12.8787402 105.3090003
  51.5579017  12.8643674 106.1413358  51.7742631  13.7468312 105.8402186
  51.0773084  12.4729887 105.4119000  46.2978238  15.8229387 112.7184102
  46.1522819  16.1369690 113.6108384  45.8203442  16.4414288 112.1655001
  48.1574621  12.8131935 112.7664992  48.1436190  11.9173029 112.4297290
  48.8747049  12.8202599 113.4003278  50.0100752  13.2469275 114.8118119
  49.7518530  14.1686346 114.8102450  49.4785792  12.8499710 115.5018583
  54.9546941  26.3520063 107.5908205  55.1283818  25.7866485 106.8382057
  55.4475832  27.1520957 107.4087695  40.7723900  18.3634732 115.6571764
  40.2277368  19.1394540 115.7892038  41.6503250  18.7105536 115.4990885
  47.5611517  11.6946315 108.0352562  47.6827428  10.7662962 108.2343450
  47.2713559  11.7085001 107.1230877  50.4302707   9.3801226 111.1719282
  50.4524404   9.4440559 110.2171261  50.8470766   8.5405735 111.3659788
  60.8086332  19.1156485 109.2098504  61.2517478  18.3663811 108.8117628
  59.9312842  19.1066622 108.8272236  55.9422113  25.6686827 104.6905103
  56.6373018  26.2893520 104.9092418  56.2845263  24.8182178 104.9657481
  57.8413536  23.1186532 106.2192434  58.3664860  23.4573805 105.4941754
  57.7535889  22.1833548 106.0355568  49.5033585  27.0320606 118.3482310
  49.8120711  26.7869753 119.2205010  50.3009067  27.2367245 117.8601181
  49.5254197  29.1858516 110.5787687  49.0859187  28.6934894 111.2720544
  50.2762314  28.6431483 110.3379762  42.0046536  25.3770057 110.5812315
  42.8304556  25.0773828 110.2010959  41.6540588  24.6077679 111.0302104
  46.9728069  24.7296525 112.6509989  46.3508078  24.0667230 112.3512217
  47.6432936  24.7557657 111.9683636  40.2055141  23.2956383 111.5401249
  39.3687049  22.8678557 111.3585250  40.1778786  23.4888826 112.4772040
  57.5307442  23.7519436 121.5243632  56.7402986  23.7343575 120.9848131
  57.2940797  24.2907730 122.2792668  57.6505317  20.6011902 118.8376360
  57.7003322  20.4361910 119.7791883  57.5419241  19.7339161 118.4474241
  46.5341576  23.2800448 106.1268449  46.6829696  23.9635913 105.4735122
  47.3408019  23.2605538 106.6417905  59.1523514  23.0208844 119.0818382
  58.8608322  23.3838825 119.9181843  58.5395645  22.3075852 118.9031714
  60.3519196  20.5861724 111.6020952  61.1866088  21.0251528 111.7658512
  60.4878325  20.1100377 110.7829198  57.4010702  18.1441459 117.5498440
  57.8764824  18.3369105 116.7417291  56.4776268  18.2000644 117.3041823
  44.2894209  19.3065626 107.1329518  44.0440251  18.4027956 107.3309728
  44.4590123  19.3082776 106.1908996  43.5589856  15.0393983 104.6315680
  42.8659101  15.1138338 103.9755716  43.3141608  14.2754327 105.1537196
  52.2303513   6.5989585 112.0355170  52.5105267   5.9312774 112.6615597
  53.0154120   6.7918680 111.5229834  50.0336981  25.7748579 103.5980197
  49.4610949  26.3938766 103.1450668  50.6069775  26.3247940 104.1320119
  56.1012371  15.0207219 115.7826745  57.0529794  15.1205316 115.8038969
  55.9315822  14.2285487 116.2924830  54.1226751  12.1062802 115.9686146
  53.5276683  12.3867815 115.2732635  53.8376448  12.5956703 116.7402887
  53.2534241  26.0585729 104.7288779  54.1864914  25.9931290 104.9321654
  53.1657454  26.8941996 104.2703312  55.8822258  25.3751599 101.6892726
  55.8035889  25.0411463 102.5828484  56.7031925  25.8673367 101.6884199
  58.5800449  18.2413338 114.8969045  58.5476769  17.3029339 115.0828729
  59.1901073  18.3197375 114.1634870  50.4183780  17.1109391 100.9396249
  51.3642885  16.9815599 101.0084667  50.0398025  16.3724053 101.4165677
  58.7294938  15.0324382 114.9427328  58.2133986  14.2482838 114.7557257
  59.6134886  14.7043098 115.1073848  56.3905665   8.7765397 110.9023141
  56.1930486   8.4680486 111.7866473  57.0005370   9.5027036 111.0321071
  64.3976999  19.3029345 114.0375082  65.1280387  19.0414633 114.5982785
  63.7883944  18.5658067 114.0777150  62.4792296  17.4437208 114.6349533
  61.7525460  17.3093173 114.0266025  62.0639583  17.7514036 115.4406251
  48.6026697  15.0359368 100.8751134  47.6958153  14.7392480 100.9513848
  48.8802678  14.7389186 100.0085421  39.5204638  16.3565731 111.3250181
  39.2007422  15.5031039 111.0324555  38.9738066  16.5714309 112.0808148
  43.2984545  19.0728172 115.0419687  43.5170555  20.0045280 115.0607721
  43.7110319  18.7136147 115.8274491  50.2188763   9.5796257 107.0295376
  49.4089491   9.2343342 107.4050622  50.9073180   9.2703801 107.6182987
  52.1479311   8.6574304 108.6519672  52.7010350   9.0769758 109.3109695
  52.3849398   7.7310052 108.6942628  47.3725482  11.8946303 101.0163114
  48.2344646  12.2201201 101.2758931  47.5575826  11.1077799 100.5036179
  39.3892898  19.9768643 113.2943302  38.6956369  19.5622595 112.7813257
  40.1365889  20.0189179 112.6976721  55.5258118  10.7674829 108.1598337
  54.9456787  11.4259633 107.7776389  55.2594051   9.9452174 107.7485754
  53.9761685  10.1679887 110.3619657  54.4761463  10.2796422 109.5533976
  54.6197293   9.8640940 111.0020465  41.3029640  19.9086896 111.1709317
  41.2800328  20.0074584 110.2191200  41.6130277  20.7552047 111.4926483
  43.9617018  21.9663051 115.2855932  44.9160271  21.9346994 115.2185863
  43.7629542  21.5053675 116.1006158  44.5516400  20.5364168 117.8526729
  45.3709289  21.0308246 117.8761567  44.8253208  19.6196136 117.8244297
  54.3082996  12.9274920 107.2154685  53.4208851  13.2124570 106.9974880
  54.7236985  12.7668683 106.3681962  57.6597532  12.9521441 110.9309024
  58.4357923  13.4417893 111.2033641  56.9345667  13.3779495 111.3880894
  60.0970091  13.6649060 111.9882965  60.6914582  13.4244796 111.2776273
  60.1696675  12.9456191 112.6156501  42.3167247  27.5082671 112.3026129
  42.1821715  26.7483072 111.7364128  41.8999309  28.2323571 111.8354918
  53.4526210  22.6919594 101.3102705  54.1562060  22.8969597 101.9260360
  52.7288858  23.2596356 101.5751788  54.2824020  18.4429456 107.4304975
  54.2259221  18.8998007 106.5912607  54.8352362  17.6820140 107.2527818
  58.0928826  14.2319188 108.2555094  57.8365760  13.8315823 109.0863302
  57.4681694  14.9462982 108.1305234  62.4041164  16.9715261 110.7626386
  61.8440722  17.0408450 111.5357948  61.7984667  16.7956245 110.0425882
  45.4736373  28.4051988 112.5144572  45.3568757  29.3497420 112.4123262
  44.6528819  28.1025550 112.9030371  55.3612907  23.1302124 103.3601165
  56.1958511  22.6983322 103.1778640  55.1997250  22.9584137 104.2878059
  55.0158799  19.6334237 104.7257504  54.9607603  19.4678508 103.7845948
  54.3904855  20.3410270 104.8819694  48.3254925   9.1342346 104.3042823
  48.3133595  10.0784186 104.4611093  49.2178347   8.9512491 104.0102284
  46.4990887  29.0580250 115.7300501  47.4018133  29.0903860 116.0466996
  46.2728257  28.1280701 115.7446836  48.2544489  27.8111236 112.3910579
  47.3040120  27.8113098 112.2774951  48.5576975  27.0643971 111.8746614
  52.1407044   5.7285123 108.5588759  51.3739440   5.1743609 108.7045442
  52.5517749   5.8006991 109.4202911  63.9897182  33.6471775 113.4556342
  64.6275592  33.5278522 112.7519682  63.8718025  34.5952619 113.5144294
  60.7986889  33.5999203 113.3917866  60.4605400  33.4840268 112.5038401
  61.6676657  33.1990368 113.3718872  56.6573704  35.4534679 109.3814757
  56.0938569  35.3624616 108.6131045  56.5426099  34.6334584 109.8617250
  61.2806672  34.7534055 119.3504072  61.2695312  34.3586853 118.4784575
  61.4427311  34.0200127 119.9437843  54.2038136  36.9485871 112.2198978
  54.9959428  36.6076696 111.8045277  54.4434786  37.0580846 113.1401131
  62.2373263  39.1205647 104.6929222  61.5861243  39.7059727 104.3063236
  63.0317626  39.6511842 104.7524260  56.1628890  36.2094784 105.0916356
  56.9359766  35.6623771 104.9529232  56.5154289  37.0739033 105.3030818
  58.0013933  37.5371166 118.2983256  57.7103799  38.4416797 118.1829922
  58.6370917  37.5787694 119.0127325  58.9270140  34.9148015 114.8884615
  59.5233712  34.6904037 114.1741578  58.9845111  34.1732760 115.4910063
  58.4995168  32.3687450 102.7234806  58.7520689  31.8468972 101.9618269
  57.5619727  32.2053596 102.8261490  63.5438451  31.3723229 110.5309550
  64.3301540  30.9542652 110.1799967  63.8077155  32.2769321 110.6991198
  63.7148528  36.8096079 105.2298206  63.0794361  36.8830705 105.9419111
  63.3845934  37.3989678 104.5517286  68.9446878  31.3098462 111.4342528
  69.6772050  30.7397679 111.6680358  68.1886234  30.9220062 111.8749034
  58.2191457  34.2715556 104.9259181  58.1027715  33.5960460 105.5940266
  58.3293717  33.7847930 104.1091334  60.5622998  33.7325703 108.6305871
  60.1981205  33.2056324 109.3418792  61.4190113  33.3424172 108.4572356
  66.4672298  25.0220036 115.8937137  66.1355623  25.8915447 115.6698352
  65.8717912  24.7056320 116.5731167  60.2028485  28.7615603 103.6267219
  60.3702887  29.6295839 103.9937690  60.0125654  28.9242885 102.7028508
  62.9603818  37.2232582 115.2933049  62.6604541  38.1257621 115.1848857
  62.6154877  36.9564765 116.1454202  56.4116299  33.6746379 111.3269754
  55.4866796  33.5422593 111.5347446  56.6600712  34.4540598 111.8239696
  66.3600962  29.7415122 112.9730487  65.4517839  29.6730531 112.6789248
  66.3088557  30.2187067 113.8012312  60.1817705  31.2173261 104.6113886
  60.0617331  31.6630311 105.4499366  59.4870294  31.5658578 104.0527424
  53.7725110  33.3179652 112.1613543  53.9017491  33.5714131 113.0752955
  53.0922562  33.9107360 111.8418198  57.9424598  43.9876902 108.2604017
  57.8648627  44.9384727 108.3392498  57.3386241  43.6422775 108.9178943
  60.4341827  31.1604768 120.9165384  59.6575161  31.7198688 120.9068249
  61.0732390  31.6461551 121.4380254  68.2262608  27.9431561 114.7508361
  67.5836988  28.2364094 114.1048155  67.7217536  27.8284481 115.5561557
  65.8802772  31.6894734 105.4394220  66.7920628  31.9222120 105.2641918
  65.3712419  32.2731778 104.8769299  58.6888200  33.9690221 120.4783351
  59.4302884  34.5075265 120.2018175  57.9825185  34.5956510 120.6354903
  64.1643539  36.1119362 119.0755513  64.5726895  35.6701772 118.3310145
  63.4420801  35.5371989 119.3289705  60.5174609  31.0491968 116.4489069
  61.3635804  31.4731382 116.5923718  60.4573247  30.3925593 117.1427633
  64.4872354  36.6720552 112.8307801  63.8581216  36.8366266 112.1283869
  64.0998016  37.0862162 113.6018765  68.3661586  37.6074990 110.1852165
  67.6812624  37.9873891 109.6349198  68.4505435  38.2170317 110.9184113
  63.6674055  28.7096337 118.1070243  63.4234987  29.4638397 117.5704519
  63.9433985  29.0881684 118.9417490  65.6212517  35.2534949 116.7847509
  65.8329413  35.8966709 116.1081890  65.5742266  34.4197266 116.3169439
  63.2238746  27.8652770 113.6884081  62.3623225  28.1634023 113.9800818
  63.2501181  28.0823169 112.7565113  60.0400316  36.4094960 110.0957887
  60.5038661  36.6882663 109.3062509  59.7757114  35.5078405 109.9130977
  56.9324397  35.9566442 113.0337650  57.5025754  36.3853710 112.3955134
  57.5232509  35.6749027 113.7321835  58.9769202  32.5318113 106.9047452
  59.6793245  32.9839156 107.3721378  58.6449830  31.8901931 107.5327345
  57.4249563  31.1229869 121.2798661  56.7948224  31.8046150 121.5134058
  57.3185651  31.0112951 120.3351799  52.7194536  30.7901665 112.2064585
  51.9293590  31.0459194 111.7304696  53.2105783  31.6050003 112.3116626
  66.7358345  38.1306904 114.9569866  67.5575789  37.7287092 114.6752548
  66.7320748  38.0275139 115.9085982  54.6709281  31.1546245 109.1648062
  53.8740444  31.2664939 109.6831558  54.4434873  31.4932897 108.2988952
  60.5014949  37.6790948 117.1130577  60.5659381  38.1411355 117.9488748
  59.7925873  37.0488313 117.2412886  51.0032239  31.0432156 114.6379576
  51.2540277  31.9279166 114.9037152  51.5391787  30.8636757 113.8654668
  74.8264338  34.4745653 111.3054838  74.0728047  33.9053051 111.1498842
  74.9611880  34.4408317 112.2525472  60.2162966  39.3459055 106.9809557
  60.0808641  40.1910591 107.4094405  60.7572779  39.5478333 106.2175491
  56.7030306  25.4250635 123.6423912  56.3097252  24.8716834 124.3171556
  57.5196446  25.7361214 124.0330430  53.6692364  36.8634493 107.5537482
  54.1816884  37.6577744 107.7043047  54.3215077  36.1660784 107.4871083
  55.4787249  39.9800250 109.6360235  55.6553877  40.9018214 109.4481219
  56.2744082  39.6658669 110.0654615  59.6198267  26.8408514 121.2344169
  60.3607980  27.4415667 121.1548631  59.8516190  26.0986152 120.6762211
  54.7639605  32.0264881 119.5122398  54.6493120  31.1250139 119.8129497
  53.9084123  32.2728578 119.1607215  61.8431443  39.9682622 121.1109899
  61.3995297  39.1819000 120.7930803  62.5048656  40.1561772 120.4453790
  56.6018564  41.4978423 115.6370577  57.1525989  41.3695487 114.8647571
  55.7630040  41.7973312 115.2865470  63.9412681  40.2485422 119.1391300
  63.9231156  41.0694303 118.6471569  64.8632601  40.1239497 119.3641441
  60.3985735  37.7629551 119.9814809  60.9314072  37.0017839 119.7514117
  59.8699816  37.4703203 120.7238963  63.5655430  22.8689617 115.5108450
  63.2219699  23.7591259 115.4347561  63.9334393  22.6791275 114.6478035
  51.6341281  35.1923148 108.3297052  52.4716503  35.6020156 108.1130760
  51.8119548  34.2522590 108.2997246  63.5305713  32.8598228 104.0180885
  63.0152336  33.6302833 104.2569273  63.2583021  32.1863364 104.6413947
  61.1152824  27.7047929 109.0766124  60.2594420  27.3154779 108.8971763
  61.5279776  27.7839890 108.2165909  62.6451970  25.2394272 113.4757684
  62.1416766  25.2024407 112.6625489  62.9382577  26.1487015 113.5354340
  58.8894856  25.3233002 112.4823865  59.7547853  25.1275811 112.1229755
  58.9572365  25.0943354 113.4093222  68.5039987  35.6130583 105.9534059
  67.7269430  35.2741742 105.5089221  69.1831468  35.6183206 105.2789024
  63.3192016  30.7325320 105.8440667  63.0142151  31.0471470 106.6950810
  64.2722458  30.8106740 105.8868000  61.7638448  36.8915544 107.4933621
  61.2359809  36.1568303 107.1806858  61.2625950  37.6690220 107.2473589
  66.7431294  35.0864564 112.6100667  66.0854968  35.7763826 112.6980796
  67.5471693  35.4760996 112.9534653  56.4957175  27.5535210 109.8540232
  57.0700927  27.3310391 109.1213425  57.0828158  27.6223904 110.6068833
  65.5536753  33.4408937 110.6604609  66.0668634  34.0738929 111.1626318
  66.2037976  32.8410132 110.2947969  56.8226762  29.5839671 103.8736117
  55.9864075  29.9214358 104.1945392  56.6831532  29.4488651 102.9363254
  58.7979843  24.4276459 108.5815302  58.1444255  24.1125476 107.9571916
  58.7560317  23.8052199 109.3075124  59.9091048  34.7095754 100.4968594
  59.0018110  34.4785007 100.6959743  60.4062080  33.9133373 100.6842575
  62.0317583  30.9158392 112.9062949  61.1140145  31.1373339 112.7484637
  62.4477727  30.9904703 112.0474657  62.8152631  32.3149808 108.0365629
  63.5624450  32.8271205 107.7272751  63.0844221  31.9933861 108.8970023
  61.0879281  34.8108349 105.0192584  60.1790501  34.5267382 105.1165053
  61.1174365  35.2307427 104.1595891  66.3198549  38.4214938 108.7883751
  65.8660876  37.5805848 108.8448942  65.6892515  39.0576337 109.1258531
  65.2631468  29.3506924 110.0184419  64.5254225  28.8384311 110.3494661
  65.5158242  28.9107306 109.2067696  64.7631488  40.2591435 109.7233569
  65.0554462  40.8196492 109.0045935  65.2730109  40.5519996 110.4786729
  65.3643096  22.1283176 110.6126188  65.6701972  21.2680540 110.3252103
  66.0895700  22.7200797 110.4125182  51.6567452  32.5313863 109.0007786
  51.4591852  31.9383224 108.2758853  51.1014116  32.2266073 109.7183725
  59.6364175  32.4236969 111.1202379  59.6912785  31.4710806 111.0444856
  58.8255377  32.5796408 111.6043678  60.7855369  36.3517092 102.3580662
  60.3474799  35.6352951 101.8986300  61.5265810  36.5793207 101.7965754
  57.5756535  31.0414029 108.8792758  56.7624401  31.3408200 109.2857950
  58.0715530  30.6469718 109.5967240  59.7265113  41.0371786 110.8127023
  59.6841292  41.2632632 109.8835555  60.6427812  40.8035161 110.9612824
  63.1730747  31.5055854 117.7107652  63.5280135  31.7327327 118.5702118
  63.8202878  31.8374230 117.0884907  68.9028484  34.6274289 108.4156981
  68.7646383  34.8175885 107.4878170  68.5464703  35.3893672 108.8725032
  57.0670610  28.6132385 114.4953993  57.7069989  28.4721144 113.7976956
  56.2348141  28.3266898 114.1192595  68.9297864  36.6950816 113.4268252
  69.3634370  36.6026106 114.2751306  69.6429444  36.6708317 112.7888268
  57.8430914  37.9134815 110.6088985  58.6371512  37.4185135 110.4071560
  57.1322606  37.3852678 110.2456691  62.6625758  40.2952911 114.9601353
  62.7162781  40.8643847 115.7279069  61.7940540  40.4654796 114.5955390
  54.1513677  32.0577897 106.6848738  53.2211266  31.9962352 106.9018700
  54.2471149  31.5353850 105.8885379  54.0699227  28.5832710 109.2726980
  54.3306044  29.4978043 109.1636140  54.8916399  28.1157152 109.4223593
  55.5424152  29.9970467 116.4425804  56.2147205  29.7887829 115.7938453
  54.7153938  29.7992553 116.0031037  69.7913413  36.7374517 115.9601138
  69.9849303  37.6420328 116.2060413  69.6914031  36.2781936 116.7939723
  61.4449724  26.6232408 118.4591465  60.7977639  27.3222357 118.3655942
  62.2150739  27.0568552 118.8267713  64.8528522  36.8881260 121.5342018
  64.7014028  36.6591812 120.6172102  64.8433201  37.8451861 121.5473363
  61.6213858  34.4613173 116.5188285  62.5505918  34.6124332 116.3457252
  61.2004888  34.5497193 115.6636931  60.4202190  38.4863837 114.2886822
  60.2813276  38.1182621 115.1612761  59.6316786  39.0011476 114.1170780
  61.9707405  37.8645440 111.6775660  61.6357238  37.8246210 112.5733310
  61.4711351  37.1990156 111.2046070  55.9451649  33.2713070 117.2028241
  55.8071447  32.5393309 117.8039780  56.8556573  33.1821970 116.9212429
  64.9066597  35.2101474 101.9512720  64.2895767  34.4848302 101.8545773
  64.4383085  35.9710834 101.6079794  58.5733950  32.9833029 116.6911921
  59.2833568  32.3426221 116.6498539  58.5303258  33.2345924 117.6138102
  66.5620728  39.9200382 119.6118500  66.5033275  39.2359603 118.9449083
  66.9640247  40.6619372 119.1599126  57.2862884  29.9698247 118.5107561
  56.7500241  29.5188985 119.1629157  56.6979592  30.1044156 117.7678025
  55.5811427  46.7362296 112.4052219  55.8208025  47.3680820 113.0831238
  54.7380624  46.3850336 112.6917578  56.6965143  29.4286898 101.0734024
  55.8194609  29.3075699 100.7096271  57.1722896  28.6372977 100.8212913
  66.5638136  37.8839966 117.8432480  65.6764914  37.5465888 117.9658879
  67.1336687  37.1522998 118.0801245  48.2167283  34.2164058 111.1675531
  48.9038323  33.9025788 110.5796547  48.0615412  35.1205423 110.8942783
  53.0202005  29.1054255 115.5960555  52.9360194  28.4979924 114.8610965
  52.1984711  29.5963273 115.5970051  60.0939289  42.5441419 114.8093723
  60.0209461  43.3496390 115.3213028  59.6516682  42.7433385 113.9841745
  59.8829069  41.7813189 108.3196545  59.0996591  42.3234869 108.4134769
  60.5821814  42.2987168 108.7190786  63.1925719  27.5907818 110.9630750
  63.6894418  26.8377781 110.6431820  62.4212700  27.6272135 110.3973959
  71.0455476  33.2948184 112.6049042  71.0345352  34.1772899 112.2342975
  70.1772856  32.9419735 112.4103579  62.5537973  42.4428253 116.9651882
  63.2665945  43.0775718 116.8927783  62.0628001  42.5392119 116.1491884
  64.2755500  36.3479505 108.5369173  63.3411778  36.4680968 108.3673878
  64.4532168  35.4451972 108.2729183  59.7760688  29.7325201 110.6902435
  59.4058475  29.1796242 111.3783340  60.2719780  29.1283335 110.1377435
  67.6628051  32.1896825 109.0719208  68.1288503  33.0224816 108.9979510
  68.1135551  31.7241806 109.7764466  57.6049886  40.1922696 117.7857453
  58.3059346  40.8259179 117.9386847  57.1345001  40.5337428 117.0253092
  65.7304282  38.5340646 106.0705360  66.0064126  38.4197241 106.9799234
  64.8608781  38.1358131 106.0317533  65.6344714  24.5577412 113.1110109
  64.7207793  24.7881639 113.2792316  66.0637815  24.6415856 113.9624141
  65.4051172  32.7467304 115.6110003  64.7522622  32.9943211 114.9562456
  65.7831552  31.9331442 115.2772480  62.3658346  42.7826997 109.7138173
  62.5480741  41.9648653 110.1765926  63.1891332  42.9994689 109.2763063
  62.7000512  41.7095182 106.9753222  63.2288278  41.1987637 106.3623384
  62.9628731  41.3937712 107.8398755  61.4538745  33.4887115 122.0976040
  60.7779382  33.3881244 122.7678415  62.2766379  33.3326328 122.5612037
  53.2017604  39.7259051 114.7188555  53.7871041  38.9802739 114.8516460
  53.0042443  40.0363008 115.6025219  56.0556259  42.7610299 109.7350998
  55.3866635  43.2456426 109.2515038  55.9169129  43.0079519 110.6494376
  47.7935259  32.2964651 113.4392998  47.8319358  31.7628242 114.2330117
  47.2875552  31.7699857 112.8203976  60.1961528  44.7954042 116.3333656
  60.7479836  44.9585664 117.0982741  60.5367721  45.3858480 115.6613681
  55.1726021  27.1429192 116.9355541  55.2367348  28.0044023 116.5232938
  55.1093142  26.5303194 116.2027899  54.6478294  29.2152325 120.5828575
  55.2750333  28.8329402 121.1966099  53.7906213  28.9966526 120.9484268
  65.0472402  39.6215300 122.1882310  65.5912306  40.2345258 121.6937265
  64.4659247  40.1794878 122.7049323  51.4243837  31.0228754 106.5146930
  51.7197278  30.1139432 106.4613984  50.5231872  31.0016493 106.1927932
  63.3329915  42.7436018 113.3197338  63.2081055  41.9425758 112.8108284
  63.9909006  43.2382211 112.8311308  54.9538084  29.0984750 112.4974478
  54.2324669  29.7120718 112.3581952  55.7431339  29.6342515 112.4191124
  65.3964824  40.5445038 114.9476888  64.4495159  40.4250389 114.8755215
  65.7447597  39.6567536 115.0303150  57.7564397  26.4339177 118.7715130
  58.2798799  26.6801473 119.5341440  57.5376730  27.2659212 118.3518268
  53.1531678  28.7042851 106.6386255  52.8244384  27.8240230 106.4561361
  53.5071049  28.6490520 107.5262644  62.4011257  40.3397754 111.1481241
  62.2536219  39.4114461 111.3288811  63.2264750  40.3617845 110.6638316
  56.2673501  28.9915821 107.0061733  56.6069574  29.5201742 106.2840341
  56.7145622  29.3296227 107.7820299  66.0045379  41.1626313 112.2346113
  66.9291926  40.9569174 112.0970564  65.8360682  40.9142714 113.1435455
  58.9616942  27.3752872 116.4564801  58.6213762  26.5760685 116.8585481
  58.2555948  27.6754583 115.8841634  59.6133414  24.4602184 114.9092124
  60.4359483  23.9862662 114.7871014  59.8571477  25.2392668 115.4090810
  58.2541648  27.4890443 105.2055025  58.9750011  27.8671695 104.7018742
  57.6306953  28.2079320 105.3090003  62.3972771  28.1935592 106.1413358
  62.6136386  29.0760230 105.8402186  61.9166838  27.8021805 105.4119000
  57.1371993  31.1521305 112.7184102  56.9916573  31.4661608 113.6108384
  56.6597196  31.7706205 112.1655001  58.9968376  28.1423853 112.7664992
  58.9829944  27.2464946 112.4297290  59.7140804  28.1494517 113.4003278
  60.8494506  28.5761193 114.8118119  60.5912284  29.4978264 114.8102450
  60.3179547  28.1791628 115.5018583  65.7940695  41.6811980 107.5908205
  65.9677573  41.1158403 106.8382057  66.2869586  42.4812875 107.4087695
  51.6117655  33.6926649 115.6571764  51.0671123  34.4686457 115.7892038
  52.4897005  34.0397454 115.4990885  58.4005272  27.0238233 108.0352562
  58.5221183  26.0954879 108.2343450  58.1107314  27.0376919 107.1230877
  61.2696462  24.7093144 111.1719282  61.2918159  24.7732477 110.2171261
  61.6864521  23.8697652 111.3659788  71.6480086  34.4448403 109.2098504
  72.0911232  33.6955728 108.8117628  70.7706597  34.4358540 108.8272236
  66.7815868  40.9978745 104.6905103  67.4766772  41.6185437 104.9092418
  67.1239018  40.1474096 104.9657481  52.3983677  32.8196546 118.5501920
  51.6565413  32.9679181 119.1366551  52.0776421  33.0804811 117.6868670
  68.6807291  38.4478450 106.2192434  69.2058615  38.7865723 105.4941754
  68.5929643  37.5125465 106.0355568  60.3427339  42.3612524 118.3482310
  60.6514466  42.1161671 119.2205010  61.1402821  42.5659162 117.8601181
  60.3647951  44.5150433 110.5787687  59.9252942  44.0226812 111.2720544
  61.1156068  43.9723401 110.3379762  52.8440290  40.7061974 110.5812315
  53.6698310  40.4065746 110.2010959  52.4934342  39.9369597 111.0302104
  57.8121824  40.0588443 112.6509989  57.1901833  39.3959148 112.3512217
  58.4826690  40.0849574 111.9683636  51.0448895  38.6248301 111.5401249
  50.2080804  38.1970475 111.3585250  51.0172541  38.8180744 112.4772040
  57.8846351  28.5370231 122.2442495  57.9334507  29.4132353 121.8620264
  58.4268865  27.9947624 121.6714138  68.3701197  39.0811354 121.5243632
  67.5796740  39.0635493 120.9848131  68.1334551  39.6199647 122.2792668
  68.4899072  35.9303820 118.8376360  68.5397077  35.7653828 119.7791883
  68.3812995  35.0631079 118.4474241  57.3735330  38.6092366 106.1268449
  57.5223451  39.2927830 105.4735122  58.1801774  38.5897456 106.6417905
  65.7802834  31.9134748 120.1535667  66.6812697  31.7741213 119.8619665
  65.8550809  32.0789203 121.0933844  60.1145639  29.2901603 118.9988853
  59.2448949  29.5835169 118.7271442  60.3505120  29.8742048 119.7196117
  69.9917269  38.3500762 119.0818382  69.7002077  38.7130742 119.9181843
  69.3789400  37.6367770 118.9031714  71.1912951  35.9153641 111.6020952
  72.0259842  36.3543446 111.7658512  71.3272080  35.4392295 110.7829198
  68.2404457  33.4733376 117.5498440  68.7158578  33.6661023 116.7417291
  67.3170022  33.5292562 117.3041823  55.1287963  34.6357543 107.1329518
  54.8834005  33.7319873 107.3309728  55.2983878  34.6374694 106.1908996
  62.8184673  25.5081220 116.5154274  63.3366617  26.2442247 116.1900762
  62.4639806  25.8145213 117.3501033  54.3983611  30.3685901 104.6315680
  53.7052856  30.4430256 103.9755716  54.1535363  29.6046245 105.1537196
  63.0697267  21.9281502 112.0355170  63.3499021  21.2604691 112.6615597
  63.8547874  22.1210598 111.5229834  66.9406126  30.3499136 115.7826745
  67.8923549  30.4497234 115.8038969  66.7709576  29.5577405 116.2924830
  64.9620505  27.4354720 115.9686146  64.3670437  27.7159732 115.2732635
  64.6770202  27.9248621 116.7402887  64.0927996  41.3877646 104.7288779
  65.0258669  41.3223208 104.9321654  64.0051209  42.2233913 104.2703312
  66.7216012  40.7043517 101.6892726  66.6429644  40.3703380 102.5828484
  67.5425679  41.1965285 101.6884199  69.4194204  33.5705256 114.8969045
  69.3870524  32.6321257 115.0828729  70.0294827  33.6489293 114.1634870
  61.2577534  32.4401309 100.9396249  62.2036639  32.3107517 101.0084667
  60.8791779  31.7015971 101.4165677  69.5688692  30.3616299 114.9427328
  69.0527741  29.5774756 114.7557257  70.4528641  30.0335016 115.1073848
  67.2299419  24.1057315 110.9023141  67.0324240  23.7972403 111.7866473
  67.8399125  24.8318954 111.0321071  75.2370753  34.6321263 114.0375082
  75.9674142  34.3706551 114.5982785  74.6277699  33.8949985 114.0777150
  73.3186051  32.7729125 114.6349533  72.5919214  32.6385090 114.0266025
  72.9033337  33.0805954 115.4406251  61.1416227  36.4919055 122.3996906
  62.0619236  36.6697654 122.5936953  61.1065810  35.5475101 122.2476605
  59.4420452  30.3651285 100.8751134  58.5351907  30.0684398 100.9513848
  59.7196433  30.0681104 100.0085421  50.3598392  31.6857649 111.3250181
  50.0401176  30.8322957 111.0324555  49.8131820  31.9006227 112.0808148
  54.1378300  34.4020090 115.0419687  54.3564309  35.3337198 115.0607721
  54.5504073  34.0428064 115.8274491  61.0582517  24.9088175 107.0295376
  60.2483246  24.5635260 107.4050622  61.7466934  24.5995719 107.6182987
  62.9873066  23.9866222 108.6519672  63.5404104  24.4061675 109.3109695
  63.2243152  23.0601970 108.6942628  59.0106165  29.9753296 124.4322436
  58.9102892  30.9247653 124.3634527  58.7927707  29.6471534 123.5598506
  58.2119236  27.2238221 101.0163114  59.0738400  27.5493119 101.2758931
  58.3969580  26.4369717 100.5036179  50.2286652  35.3060560 113.2943302
  49.5350123  34.8914513 112.7813257  50.9759643  35.3481097 112.6976721
  66.3651873  26.0966747 108.1598337  65.7850542  26.7551551 107.7776389
  66.0987805  25.2744092 107.7485754  64.8155439  25.4971805 110.3619657
  65.3155217  25.6088339 109.5533976  65.4591047  25.1932858 111.0020465
  58.8737435  33.4050434 123.2487498  58.3904517  34.2050795 123.4551387
  58.9598374  33.4158379 122.2954942  52.1423395  35.2378814 111.1709317
  52.1194083  35.3366501 110.2191200  52.4524031  36.0843965 111.4926483
  54.8010772  37.2954969 115.2855932  55.7554026  37.2638911 115.2185863
  54.6023296  36.8345593 116.1006158  55.3910155  35.8656085 117.8526729
  56.2103044  36.3600164 117.8761567  55.6646962  34.9488053 117.8244297
  65.1476751  28.2566837 107.2154685  64.2602606  28.5416488 106.9974880
  65.5630740  28.0960601 106.3681962  68.4991287  28.2813358 110.9309024
  69.2751677  28.7709811 111.2033641  67.7739421  28.7071413 111.3880894
  70.9363846  28.9940978 111.9882965  71.5308336  28.7536714 111.2776273
  71.0090429  28.2748108 112.6156501  53.1561001  42.8374589 112.3026129
  53.0215469  42.0774990 111.7364128  52.7393063  43.5615488 111.8354918
  64.2919964  38.0211512 101.3102705  64.9955814  38.2261515 101.9260360
  63.5682613  38.5888274 101.5751788  65.1217774  33.7721373 107.4304975
  65.0652976  34.2289925 106.5912607  65.6746117  33.0112058 107.2527818
  68.9322580  29.5611105 108.2555094  68.6759515  29.1607741 109.0863302
  68.3075448  30.2754899 108.1305234  73.2434918  32.3007179 110.7626386
  72.6834476  32.3700368 111.5357948  72.6378422  32.1248163 110.0425882
  56.3130127  43.7343906 112.5144572  56.1962511  44.6789338 112.4123262
  55.4922573  43.4317467 112.9030371  66.2006662  38.4594041 103.3601165
  67.0352266  38.0275240 103.1778640  66.0391005  38.2876055 104.2878059
  65.8552554  34.9626155 104.7257504  65.8001358  34.7970426 103.7845948
  65.2298609  35.6702188 104.8819694  50.6445069  30.1994219 118.5518926
  51.2903932  29.6893173 119.0406152  50.4362220  30.9362901 119.1262352
  63.1698461  37.2675067 124.0511067  64.0389621  37.4415719 123.6897702
  62.6905212  38.0869483 123.9286796  59.1648679  24.4634264 104.3042823
  59.1527349  25.4076104 104.4611093  60.0572101  24.2804409 104.0102284
  57.3384641  44.3872168 115.7300501  58.2411888  44.4195778 116.0466996
  57.1122011  43.4572618 115.7446836  59.0938243  43.1403154 112.3910579
  58.1433874  43.1405016 112.2774951  59.3970729  42.3935889 111.8746614
  62.9800799  21.0577040 108.5588759  62.2133195  20.5035527 108.7045442
  63.3911504  21.1298909 109.4202911  54.9842560  27.3461836 122.6493941
  55.8474021  26.9898641 122.8597265  54.4107970  27.0075731 123.3369345
  74.8290937  48.9763692 113.4556342  75.4669347  48.8570440 112.7519682
  74.7111780  49.9244536 113.5144294  71.6380643  48.9291121 113.3917866
  71.2999155  48.8132185 112.5038401  72.5070411  48.5282286 113.3718872
  67.4967459  50.7826597 109.3814757  66.9332324  50.6916534 108.6131045
  67.3819854  49.9626501 109.8617250  72.1200426  50.0825972 119.3504072
  72.1089067  49.6878771 118.4784575  72.2821065  49.3492045 119.9437843
  65.0431891  52.2777789 112.2198978  65.8353183  51.9368613 111.8045277
  65.2828541  52.3872764 113.1401131  67.0022645  51.5386702 105.0916356
  67.7753521  50.9915689 104.9529232  67.3548043  52.4030951 105.3030818
  68.8407687  52.8663084 118.2983256  68.5497553  53.7708715 118.1829922
  69.4764671  52.9079612 119.0127325  69.7663894  50.2439933 114.8884615
  70.3627466  50.0195955 114.1741578  69.8238866  49.5024678 115.4910063
  69.3388922  47.6979368 102.7234806  69.5914443  47.1760889 101.9618269
  68.4013481  47.5345513 102.8261490  74.3832205  46.7015146 110.5309550
  75.1695294  46.2834569 110.1799967  74.6470910  47.6061239 110.6991198
  79.7840632  46.6390380 111.4342528  80.5165804  46.0689596 111.6680358
  79.0279988  46.2511980 111.8749034  69.0585211  49.6007474 104.9259181
  68.9421469  48.9252377 105.5940266  69.1687471  49.1139848 104.1091334
  71.4016752  49.0617621 108.6305871  71.0374959  48.5348242 109.3418792
  72.2583868  48.6716090 108.4572356  77.3066053  40.3511954 115.8937137
  76.9749377  41.2207365 115.6698352  76.7111666  40.0348238 116.5731167
  71.0422239  44.0907521 103.6267219  71.2096641  44.9587757 103.9937690
  70.8519408  44.2534802 102.7028508  73.7997572  52.5524500 115.2933049
  73.4998295  53.4549538 115.1848857  73.4548632  52.2856683 116.1454202
  67.2510054  49.0038296 111.3269754  66.3260550  48.8714511 111.5347446
  67.4994467  49.7832516 111.8239696  77.1994716  45.0707040 112.9730487
  76.2911593  45.0022448 112.6789248  77.1482312  45.5478985 113.8012312
  71.0211460  46.5465178 104.6113886  70.9011085  46.9922229 105.4499366
  70.3264048  46.8950496 104.0527424  64.6118865  48.6471570 112.1613543
  64.7411246  48.9006049 113.0752955  63.9316316  49.2399278 111.8418198
  71.2735582  46.4896685 120.9165384  70.4968916  47.0490606 120.9068249
  71.9126145  46.9753468 121.4380254  79.0656362  43.2723478 114.7508361
  78.4230743  43.5656011 114.1048155  78.5611291  43.1576399 115.5561557
  76.7196526  47.0186651 105.4394220  77.6314382  47.2514038 105.2641918
  76.2106173  47.6023696 104.8769299  69.5281954  49.2982139 120.4783351
  70.2696638  49.8367183 120.2018175  68.8218940  49.9248428 120.6354903
  75.0037294  51.4411279 119.0755513  75.4120650  50.9993690 118.3310145
  74.2814555  50.8663907 119.3289705  71.3568364  46.3783886 116.4489069
  72.2029559  46.8023300 116.5923718  71.2967001  45.7217510 117.1427633
  75.3266108  52.0012470 112.8307801  74.6974971  52.1658184 112.1283869
  74.9391770  52.4154079 113.6018765  79.2055340  52.9366908 110.1852165
  78.5206378  53.3165809 109.6349198  79.2899190  53.5462234 110.9184113
  74.5067809  44.0388254 118.1070243  74.2628741  44.7930315 117.5704519
  74.7827740  44.4173602 118.9417490  76.4606272  50.5826867 116.7847509
  76.6723167  51.2258627 116.1081890  76.4136020  49.7489183 116.3169439
  74.0632501  43.1944687 113.6884081  73.2016980  43.4925941 113.9800818
  74.0894935  43.4115086 112.7565113  70.8794070  51.7386878 110.0957887
  71.3432416  52.0174581 109.3062509  70.6150868  50.8370323 109.9130977
  67.7718151  51.2858359 113.0337650  68.3419508  51.7145628 112.3955134
  68.3626263  51.0040944 113.7321835  69.8162956  47.8610030 106.9047452
  70.5187000  48.3131074 107.3721378  69.4843585  47.2193849 107.5327345
  68.2643318  46.4521787 121.2798661  67.6341978  47.1338068 121.5134058
  68.1579406  46.3404869 120.3351799  63.5588290  46.1193583 112.2064585
  62.7687344  46.3751112 111.7304696  64.0499538  46.9341921 112.3116626
  77.5752100  53.4598822 114.9569866  78.3969544  53.0579009 114.6752548
  77.5714503  53.3567056 115.9085982  65.5103036  46.4838162 109.1648062
  64.7134199  46.5956856 109.6831558  65.2828628  46.8224814 108.2988952
  71.3408703  53.0082865 117.1130577  71.4053136  53.4703273 117.9488748
  70.6319627  52.3780230 117.2412886  61.8425993  46.3724073 114.6379576
  62.0934032  47.2571083 114.9037152  62.3785542  46.1928675 113.8654668
  85.6658093  49.8037571 111.3054838  84.9121801  49.2344969 111.1498842
  85.8005634  49.7700235 112.2525472  67.5424061  40.7542553 123.6423912
  67.1491006  40.2008751 124.3171556  68.3590201  41.0653131 124.0330430
  64.5086118  52.1926411 107.5537482  65.0210639  52.9869661 107.7043047
  65.1608831  51.4952701 107.4871083  66.3181003  55.3092167 109.6360235
  66.4947631  56.2310132 109.4481219  67.1137837  54.9950586 110.0654615
  70.4592022  42.1700432 121.2344169  71.2001735  42.7707585 121.1548631
  70.6909944  41.4278070 120.6762211  65.6033360  47.3556799 119.5122398
  65.4886875  46.4542056 119.8129497  64.7477877  47.6020496 119.1607215
  72.6825197  55.2974539 121.1109899  72.2389052  54.5110918 120.7930803
  73.3442411  55.4853690 120.4453790  67.4412318  56.8270341 115.6370577
  67.9919744  56.6987404 114.8647571  66.6023794  57.1265230 115.2865470
  74.7806435  55.5777339 119.1391300  74.7624911  56.3986220 118.6471569
  75.7026355  55.4531415 119.3641441  71.2379490  53.0921469 119.9814809
  71.7707826  52.3309757 119.7514117  70.7093571  52.7995121 120.7238963
  74.4049185  38.1981535 115.5108450  74.0613454  39.0883176 115.4347561
  74.7728147  38.0083192 114.6478035  62.4735035  50.5215065 108.3297052
  63.3110257  50.9312074 108.1130760  62.6513303  49.5814507 108.2997246
  74.3699467  48.1890146 104.0180885  73.8546091  48.9594751 104.2569273
  74.0976776  47.5155282 104.6413947  71.9546578  43.0339847 109.0766124
  71.0988175  42.6446697 108.8971763  72.3673530  43.1131808 108.2165909
  73.4845725  40.5686190 113.4757684  72.9810520  40.5316325 112.6625489
  73.7776332  41.4778933 113.5354340  69.7288611  40.6524920 112.4823865
  70.5941608  40.4567728 112.1229755  69.7966120  40.4235271 113.4093222
  74.1585770  46.0617238 105.8440667  73.8535906  46.3763387 106.6950810
  75.1116213  46.1398658 105.8868000  72.6032202  52.2207461 107.4933621
  72.0753564  51.4860221 107.1806858  72.1019705  52.9982138 107.2473589
  77.5825048  50.4156482 112.6100667  76.9248723  51.1055743 112.6980796
  78.3865447  50.8052914 112.9534653  67.3350930  42.8827128 109.8540232
  67.9094682  42.6602309 109.1213425  67.9221912  42.9515822 110.6068833
  76.3930507  48.7700855 110.6604609  76.9062389  49.4030846 111.1626318
  77.0431731  48.1702050 110.2947969  67.6620517  44.9131589 103.8736117
  66.8257829  45.2506275 104.1945392  67.5225287  44.7780568 102.9363254
  69.6373598  39.7568377 108.5815302  68.9838010  39.4417394 107.9571916
  69.5954072  39.1344117 109.3075124  72.8711338  46.2450310 112.9062949
  71.9533899  46.4665257 112.7484637  73.2871482  46.3196621 112.0474657
  73.6546386  47.6441726 108.0365629  74.4018205  48.1563123 107.7272751
  73.9237975  47.3225778 108.8970023  71.9273036  50.1400266 105.0192584
  71.0184255  49.8559299 105.1165053  71.9568120  50.5599345 104.1595891
  76.1025223  44.6798842 110.0184419  75.3647980  44.1676228 110.3494661
  76.3551996  44.2399224 109.2067696  76.2036850  37.4575094 110.6126188
  76.5095727  36.5972457 110.3252103  76.9289455  38.0492714 110.4125182
  62.4961206  47.8605781 109.0007786  62.2985606  47.2675141 108.2758853
  61.9407870  47.5557991 109.7183725  70.4757930  47.7528887 111.1202379
  70.5306540  46.8002723 111.0444856  69.6649132  47.9088326 111.6043678
  68.4150290  46.3705947 108.8792758  67.6018155  46.6700117 109.2857950
  68.9109284  45.9761636 109.5967240  74.0124502  46.8347771 117.7107652
  74.3673889  47.0619244 118.5702118  74.6596633  47.1666148 117.0884907
  79.7422238  49.9566207 108.4156981  79.6040137  50.1467803 107.4878170
  79.3858457  50.7185590 108.8725032  67.9064365  43.9424302 114.4953993
  68.5463744  43.8013061 113.7976956  67.0741895  43.6558816 114.1192595
  79.7691618  52.0242734 113.4268252  80.2028125  51.9318023 114.2751306
  80.4823199  52.0000235 112.7888268  68.6824668  53.2426733 110.6088985
  69.4765267  52.7477053 110.4071560  67.9716361  52.7144596 110.2456691
  73.5019513  55.6244828 114.9601353  73.5556535  56.1935765 115.7279069
  72.6334294  55.7946713 114.5955390  64.9907432  47.3869814 106.6848738
  64.0605020  47.3254270 106.9018700  65.0864904  46.8645767 105.8885379
  64.9092981  43.9124627 109.2726980  65.1699798  44.8269961 109.1636140
  65.7310153  43.4449070 109.4223593  66.3817906  45.3262384 116.4425804
  67.0540960  45.1179747 115.7938453  65.5547693  45.1284470 116.0031037
  80.6307168  52.0666435 115.9601138  80.8243058  52.9712245 116.2060413
  80.5307786  51.6073854 116.7939723  72.2843478  41.9524325 118.4591465
  71.6371393  42.6514275 118.3655942  73.0544494  42.3860469 118.8267713
  75.6922276  52.2173178 121.5342018  75.5407783  51.9883729 120.6172102
  75.6826956  53.1743779 121.5473363  72.4607613  49.7905090 116.5188285
  73.3899673  49.9416250 116.3457252  72.0398643  49.8789111 115.6636931
  71.2595944  53.8155755 114.2886822  71.1207030  53.4474539 115.1612761
  70.4710541  54.3303394 114.1170780  72.8101160  53.1937357 111.6775660
  72.4750992  53.1538127 112.5733310  72.3105105  52.5282073 111.2046070
  66.7845404  48.6004987 117.2028241  66.6465202  47.8685226 117.8039780
  67.6950327  48.5113888 116.9212429  75.7460351  50.5393392 101.9512720
  75.1289522  49.8140220 101.8545773  75.2776840  51.3002752 101.6079794
  69.4127704  48.3124947 116.6911921  70.1227323  47.6718139 116.6498539
  69.3697012  48.5637842 117.6138102  77.4014483  55.2492300 119.6118500
  77.3427029  54.5651520 118.9449083  77.8034001  55.9911290 119.1599126
  68.1256638  45.2990165 118.5107561  67.5893995  44.8480903 119.1629157
  67.5373347  45.4336074 117.7678025  66.4205182  62.0654214 112.4052219
  66.6601780  62.6972738 113.0831238  65.5774378  61.7142254 112.6917578
  67.5358897  44.7578816 101.0734024  66.6588364  44.6367617 100.7096271
  68.0116650  43.9664894 100.8212913  77.4031890  53.2131884 117.8432480
  76.5158669  52.8757806 117.9658879  77.9730441  52.4814915 118.0801245
  59.0561037  49.5455976 111.1675531  59.7432077  49.2317706 110.5796547
  58.9009166  50.4497340 110.8942783  63.8595759  44.4346172 115.5960555
  63.7753948  43.8271842 114.8610965  63.0378466  44.9255191 115.5970051
  70.9333044  57.8733336 114.8093723  70.8603215  58.6788308 115.3213028
  70.4910437  58.0725302 113.9841745  74.0319473  42.9199736 110.9630750
  74.5288173  42.1669698 110.6431820  73.2606455  42.9564053 110.3973959
  81.8849231  48.6240101 112.6049042  81.8739107  49.5064817 112.2342975
  81.0166610  48.2711652 112.4103579  73.3931727  57.7720170 116.9651882
  74.1059699  58.4067635 116.8927783  72.9021756  57.8684036 116.1491884
  75.1149254  51.6771423 108.5369173  74.1805533  51.7972886 108.3673878
  75.2925922  50.7743890 108.2729183  70.6154442  45.0617119 110.6902435
  70.2452230  44.5088159 111.3783340  71.1113535  44.4575252 110.1377435
  78.5021805  47.5188742 109.0719208  78.9682258  48.3516734 108.9979510
  78.9529306  47.0533724 109.7764466  68.4443641  55.5214614 117.7857453
  69.1453100  56.1551097 117.9386847  67.9738756  55.8629345 117.0253092
  76.4738468  39.8869329 113.1110109  75.5601548  40.1173556 113.2792316
  76.9031570  39.9707773 113.9624141  76.2444927  48.0759221 115.6110003
  75.5916377  48.3235129 114.9562456  76.6225307  47.2623360 115.2772480
  72.2932500  48.8179032 122.0976040  71.6173137  48.7173162 122.7678415
  73.1160134  48.6618246 122.5612037  64.0411359  55.0550969 114.7188555
  64.6264796  54.3094657 114.8516460  63.8436197  55.3654926 115.6025219
  58.6329013  47.6256569 113.4392998  58.6713113  47.0920160 114.2330117
  58.1269306  47.0991775 112.8203976  71.0355283  60.1245960 116.3333656
  71.5873591  60.2877581 117.0982741  71.3761476  60.7150398 115.6613681
  66.0119776  42.4721110 116.9355541  66.0761102  43.3335941 116.5232938
  65.9486896  41.8595111 116.2027899  65.4872048  44.5444242 120.5828575
  66.1144087  44.1621320 121.1966099  64.6299967  44.3258444 120.9484268
  75.8866157  54.9507217 122.1882310  76.4306061  55.5637176 121.6937265
  75.3053002  55.5086796 122.7049323  65.7931838  44.4276668 112.4974478
  65.0718424  45.0412636 112.3581952  66.5825094  44.9634433 112.4191124
  76.2358578  55.8736955 114.9476888  75.2888914  55.7542307 114.8755215
  76.5841351  54.9859454 115.0303150  68.5958152  41.7631094 118.7715130
  69.1192553  42.0093391 119.5341440  68.3770485  42.5951129 118.3518268
  63.9925433  44.0334769 106.6386255  63.6638139  43.1532148 106.4561361
  64.3464803  43.9782438 107.5262644  73.2405011  55.6689672 111.1481241
  73.0929974  54.7406379 111.3288811  74.0658505  55.6909762 110.6638316
  67.1067256  44.3207739 107.0061733  67.4463328  44.8493660 106.2840341
  67.5539376  44.6588145 107.7820299  69.8010697  42.7044790 116.4564801
  69.4607517  41.9052603 116.8585481  69.0949703  43.0046500 115.8841634
  70.4527168  39.7894102 114.9092124  71.2753238  39.3154580 114.7871014
  70.6965232  40.5684586 115.4090810  69.0935403  42.8182360 105.2055025
  69.8143765  43.1963613 104.7018742  68.4700707  43.5371237 105.3090003
  73.2366526  43.5227509 106.1413358  73.4530140  44.4052147 105.8402186
  72.7560593  43.1313723 105.4119000  67.9765747  46.4813223 112.7184102
  67.8310328  46.7953526 113.6108384  67.4990951  47.0998123 112.1655001
  69.8362130  43.4715771 112.7664992  69.8223699  42.5756864 112.4297290
  70.5534558  43.4786434 113.4003278  71.6888261  43.9053111 114.8118119
  71.4306039  44.8270181 114.8102450  71.1573301  43.5083545 115.5018583
  62.4511409  49.0218567 115.6571764  61.9064877  49.7978375 115.7892038
  63.3290759  49.3689371 115.4990885  69.2399026  42.3530151 108.0352562
  69.3614937  41.4246797 108.2343450  68.9501068  42.3668837 107.1230877
  72.1090216  40.0385061 111.1719282  72.1311913  40.1024394 110.2171261
  72.5258275  39.1989570 111.3659788  82.4873841  49.7740321 109.2098504
  82.9304987  49.0247646 108.8117628  81.6100351  49.7650457 108.8272236
  63.2377431  48.1488463 118.5501920  62.4959167  48.2971099 119.1366551
  62.9170175  48.4096729 117.6868670  71.1821094  57.6904441 118.3482310
  71.4908220  57.4453588 119.2205010  71.9796576  57.8951080 117.8601181
  63.6834045  56.0353892 110.5812315  64.5092065  55.7357664 110.2010959
  63.3328097  55.2661514 111.0302104  68.6515578  55.3880360 112.6509989
  68.0295587  54.7251065 112.3512217  69.3220445  55.4141492 111.9683636
  61.8842650  53.9540218 111.5401249  61.0474558  53.5262393 111.3585250
  61.8566295  54.1472662 112.4772040  68.7240106  43.8662148 122.2442495
  68.7728261  44.7424271 121.8620264  69.2662620  43.3239541 121.6714138
  79.2094951  54.4103271 121.5243632  78.4190495  54.3927410 120.9848131
  78.9728306  54.9491565 122.2792668  79.3292826  51.2595738 118.8376360
  79.3790831  51.0945745 119.7791883  79.2206750  50.3922997 118.4474241
  76.6196589  47.2426666 120.1535667  77.5206451  47.1033131 119.8619665
  76.6944563  47.4081121 121.0933844  70.9539394  44.6193521 118.9988853
  70.0842703  44.9127087 118.7271442  71.1898874  45.2033966 119.7196117
  80.8311023  53.6792679 119.0818382  80.5395831  54.0422660 119.9181843
  80.2183154  52.9659688 118.9031714  82.0306705  51.2445559 111.6020952
  82.8653597  51.6835363 111.7658512  82.1665834  50.7684212 110.7829198
  79.0798211  48.8025294 117.5498440  79.5552333  48.9952940 116.7417291
  78.1563777  48.8584480 117.3041823  65.9681718  49.9649461 107.1329518
  65.7227760  49.0611791 107.3309728  66.1377632  49.9666612 106.1908996
  73.6578428  40.8373138 116.5154274  74.1760372  41.5734164 116.1900762
  73.3033561  41.1437131 117.3501033  73.9091022  37.2573420 112.0355170
  74.1892776  36.5896609 112.6615597  74.6941629  37.4502516 111.5229834
  77.7799880  45.6791054 115.7826745  78.7317303  45.7789152 115.8038969
  77.6103331  44.8869323 116.2924830  75.8014260  42.7646637 115.9686146
  75.2064192  43.0451650 115.2732635  75.5163956  43.2540538 116.7402887
  80.2587958  48.8997174 114.8969045  80.2264278  47.9613174 115.0828729
  80.8688582  48.9781210 114.1634870  72.0971289  47.7693227 100.9396249
  73.0430394  47.6399435 101.0084667  71.7185534  47.0307889 101.4165677
  80.4082447  45.6908217 114.9427328  79.8921495  44.9066674 114.7557257
  81.2922395  45.3626934 115.1073848  78.0693174  39.4349233 110.9023141
  77.8717995  39.1264321 111.7866473  78.6792879  40.1610872 111.0321071
  86.0764508  49.9613181 114.0375082  86.8067896  49.6998469 114.5982785
  85.4671453  49.2241903 114.0777150  84.1579805  48.1021043 114.6349533
  83.4312969  47.9677008 114.0266025  83.7427092  48.4097872 115.4406251
  71.9809982  51.8210973 122.3996906  72.9012991  51.9989572 122.5936953
  71.9459565  50.8767018 122.2476605  70.2814206  45.6943203 100.8751134
  69.3745662  45.3976316 100.9513848  70.5590187  45.3973021 100.0085421
  61.1992147  47.0149567 111.3250181  60.8794931  46.1614875 111.0324555
  60.6525575  47.2298145 112.0808148  64.9772054  49.7312008 115.0419687
  65.1958064  50.6629115 115.0607721  65.3897828  49.3719982 115.8274491
  71.8976272  40.2380093 107.0295376  71.0877000  39.8927178 107.4050622
  72.5860689  39.9287637 107.6182987  73.8266820  39.3158140 108.6519672
  74.3797859  39.7353593 109.3109695  74.0636906  38.3893888 108.6942628
  69.8499919  45.3045213 124.4322436  69.7496646  46.2539570 124.3634527
  69.6321461  44.9763452 123.5598506  69.0512991  42.5530138 101.0163114
  69.9132155  42.8785037 101.2758931  69.2363335  41.7661634 100.5036179
  61.0680407  50.6352478 113.2943302  60.3743878  50.2206431 112.7813257
  61.8153398  50.6773015 112.6976721  77.2045627  41.4258665 108.1598337
  76.6244296  42.0843469 107.7776389  76.9381560  40.6036009 107.7485754
  75.6549194  40.8263722 110.3619657  76.1548972  40.9380257 109.5533976
  76.2984802  40.5224775 111.0020465  69.7131189  48.7342352 123.2487498
  69.2298271  49.5342712 123.4551387  69.7992128  48.7450297 122.2954942
  62.9817149  50.5670732 111.1709317  62.9587837  50.6658419 110.2191200
  63.2917786  51.4135883 111.4926483  65.6404527  52.6246887 115.2855932
  66.5947780  52.5930829 115.2185863  65.4417050  52.1637511 116.1006158
  66.2303909  51.1948003 117.8526729  67.0496798  51.6892082 117.8761567
  66.5040717  50.2779971 117.8244297  75.9870505  43.5858755 107.2154685
  75.0996360  43.8708406 106.9974880  76.4024494  43.4252519 106.3681962
  79.3385041  43.6105276 110.9309024  80.1145431  44.1001729 111.2033641
  78.6133176  44.0363330 111.3880894  81.7757600  44.3232895 111.9882965
  82.3702091  44.0828631 111.2776273  81.8484184  43.6040026 112.6156501
  63.9954756  58.1666506 112.3026129  63.8609224  57.4066907 111.7364128
  63.5786818  58.8907406 111.8354918  75.9611529  49.1013291 107.4304975
  75.9046730  49.5581843 106.5912607  76.5139871  48.3403976 107.2527818
  79.7716335  44.8903023 108.2555094  79.5153269  44.4899659 109.0863302
  79.1469203  45.6046817 108.1305234  84.0828673  47.6299096 110.7626386
  83.5228231  47.6992286 111.5357948  83.4772176  47.4540081 110.0425882
  67.1523882  59.0635823 112.5144572  67.0356266  60.0081256 112.4123262
  66.3316328  58.7609385 112.9030371  76.6946308  50.2918072 104.7257504
  76.6395112  50.1262344 103.7845948  76.0692364  50.9994105 104.8819694
  61.4838823  45.5286137 118.5518926  62.1297687  45.0185091 119.0406152
  61.2755974  46.2654818 119.1262352  74.0092215  52.5966984 124.0511067
  74.8783375  52.7707637 123.6897702  73.5298967  53.4161401 123.9286796
  70.0042434  39.7926181 104.3042823  69.9921104  40.7368021 104.4611093
  70.8965856  39.6096327 104.0102284  68.1778396  59.7164085 115.7300501
  69.0805642  59.7487695 116.0466996  67.9515766  58.7864536 115.7446836
  73.8194553  36.3868958 108.5588759  73.0526949  35.8327445 108.7045442
  74.2305258  36.4590827 109.4202911  65.8236314  42.6753754 122.6493941
  66.6867776  42.3190559 122.8597265  65.2501725  42.3367649 123.3369345
  85.6684691  64.3055610 113.4556342  86.3063101  64.1862358 112.7519682
  85.5505534  65.2536454 113.5144294  82.4774397  64.2583038 113.3917866
  82.1392909  64.1424103 112.5038401  83.3464166  63.8574203 113.3718872
  82.9594180  65.4117890 119.3504072  82.9482821  65.0170688 118.4784575
  83.1214820  64.6783963 119.9437843  79.6801442  68.1955002 118.2983256
  79.3891308  69.1000633 118.1829922  80.3158426  68.2371529 119.0127325
  80.6057648  65.5731850 114.8884615  81.2021221  65.3487873 114.1741578
  80.6632620  64.8316596 115.4910063  85.2225960  62.0307064 110.5309550
  86.0089049  61.6126487 110.1799967  85.4864664  62.9353156 110.6991198
  85.3936037  67.4679914 105.2298206  84.7581870  67.5414541 105.9419111
  85.0633443  68.0573513 104.5517286  90.6234387  61.9682297 111.4342528
  91.3559559  61.3981514 111.6680358  89.8673743  61.5803898 111.8749034
  82.2410507  64.3909539 108.6305871  81.8768714  63.8640160 109.3418792
  83.0977622  64.0008008 108.4572356  88.1459807  55.6803871 115.8937137
  87.8143132  56.5499282 115.6698352  87.5505421  55.3640155 116.5731167
  81.8815994  59.4199438 103.6267219  82.0490396  60.2879675 103.9937690
  81.6913163  59.5826720 102.7028508  84.6391327  67.8816417 115.2933049
  84.3392050  68.7841456 115.1848857  84.2942386  67.6148601 116.1454202
  88.0388471  60.3998957 112.9730487  87.1305348  60.3314366 112.6789248
  87.9876066  60.8770902 113.8012312  81.8605214  61.8757096 104.6113886
  81.7404840  62.3214147 105.4499366  81.1657803  62.2242414 104.0527424
  82.1129336  61.8188603 120.9165384  81.3362670  62.3782523 120.9068249
  82.7519899  62.3045386 121.4380254  89.9050117  58.6015396 114.7508361
  89.2624497  58.8947929 114.1048155  89.4005045  58.4868316 115.5561557
  87.5590281  62.3478569 105.4394220  88.4708137  62.5805956 105.2641918
  87.0499928  62.9315613 104.8769299  80.3675709  64.6274056 120.4783351
  81.1090393  65.1659100 120.2018175  79.6612694  65.2540345 120.6354903
  85.8431048  66.7703197 119.0755513  86.2514404  66.3285607 118.3310145
  85.1208310  66.1955824 119.3289705  82.1962118  61.7075804 116.4489069
  83.0423313  62.1315217 116.5923718  82.1360756  61.0509428 117.1427633
  86.1659863  67.3304388 112.8307801  85.5368725  67.4950102 112.1283869
  85.7785525  67.7445997 113.6018765  90.0449095  68.2658825 110.1852165
  89.3600133  68.6457727 109.6349198  90.1292944  68.8754152 110.9184113
  85.3461564  59.3680172 118.1070243  85.1022495  60.1222233 117.5704519
  85.6221494  59.7465520 118.9417490  87.3000026  65.9118784 116.7847509
  87.5116922  66.5550544 116.1081890  87.2529775  65.0781101 116.3169439
  84.9026255  58.5236605 113.6884081  84.0410734  58.8217859 113.9800818
  84.9288690  58.7407004 112.7565113  79.1037072  61.7813705 121.2798661
  78.4735733  62.4629985 121.5134058  78.9973160  61.6696786 120.3351799
  88.4145854  68.7890740 114.9569866  89.2363298  68.3870927 114.6752548
  88.4108257  68.6858974 115.9085982  82.1802458  68.3374783 117.1130577
  82.2446890  68.7995190 117.9488748  81.4713382  67.7072148 117.2412886
  96.5051847  65.1329488 111.3054838  95.7515556  64.5636886 111.1498842
  96.6399389  65.0992153 112.2525472  78.3817815  56.0834470 123.6423912
  77.9884761  55.5300669 124.3171556  79.1983955  56.3945049 124.0330430
  81.2985776  57.4992350 121.2344169  82.0395489  58.0999503 121.1548631
  81.5303699  56.7569987 120.6762211  76.4427114  62.6848717 119.5122398
  76.3280629  61.7833974 119.8129497  75.5871632  62.9312414 119.1607215
  83.5218952  70.6266457 121.1109899  83.0782806  69.8402836 120.7930803
  84.1836165  70.8145608 120.4453790  78.2806073  72.1562259 115.6370577
  78.8313498  72.0279322 114.8647571  77.4417549  72.4557148 115.2865470
  85.6200190  70.9069257 119.1391300  85.6018665  71.7278138 118.6471569
  86.5420110  70.7823332 119.3641441  82.0773244  68.4213387 119.9814809
  82.6101581  67.6601675 119.7514117  81.5487325  68.1287038 120.7238963
  85.2442939  53.5273452 115.5108450  84.9007208  54.4175094 115.4347561
  85.6121902  53.3375110 114.6478035  85.2093222  63.5182064 104.0180885
  84.6939845  64.2886668 104.2569273  84.9370530  62.8447200 104.6413947
  82.7940333  58.3631764 109.0766124  81.9381929  57.9738615 108.8971763
  83.2067285  58.4423725 108.2165909  84.3239479  55.8978108 113.4757684
  83.8204275  55.8608243 112.6625489  84.6170086  56.8070850 113.5354340
  80.5682365  55.9816837 112.4823865  81.4335362  55.7859646 112.1229755
  80.6359874  55.7527189 113.4093222  90.1827496  66.2714418 105.9534059
  89.4056939  65.9325578 105.5089221  90.8618977  66.2767041 105.2789024
  84.9979525  61.3909156 105.8440667  84.6929660  61.7055305 106.6950810
  85.9509967  61.4690576 105.8868000  88.4218803  65.7448399 112.6100667
  87.7642477  66.4347661 112.6980796  89.2259202  66.1344831 112.9534653
  87.2324262  64.0992772 110.6604609  87.7456143  64.7322764 111.1626318
  87.8825485  63.4993968 110.2947969  83.7105092  61.5742228 112.9062949
  82.7927654  61.7957175 112.7484637  84.1265236  61.6488538 112.0474657
  84.4940140  62.9733643 108.0365629  85.2411959  63.4855041 107.7272751
  84.7631730  62.6517696 108.8970023  87.9986058  69.0798774 108.7883751
  87.5448385  68.2389684 108.8448942  87.3680024  69.7160172 109.1258531
  86.9418977  60.0090760 110.0184419  86.2041734  59.4968146 110.3494661
  87.1945751  59.5691141 109.2067696  86.4418997  70.9175270 109.7233569
  86.7341971  71.4780327 109.0045935  86.9517618  71.2103831 110.4786729
  87.0430605  52.7867012 110.6126188  87.3489481  51.9264375 110.3252103
  87.7683209  53.3784632 110.4125182  81.4052622  71.6955621 110.8127023
  81.3628801  71.9216468 109.8835555  82.3215321  71.4618996 110.9612824
  84.8518256  62.1639689 117.7107652  85.2067644  62.3911162 118.5702118
  85.4990387  62.4958066 117.0884907  90.5815993  65.2858125 108.4156981
  90.4433892  65.4759721 107.4878170  90.2252212  66.0477508 108.8725032
  90.6085373  67.3534652 113.4268252  91.0421879  67.2609941 114.2751306
  91.3216953  67.3292152 112.7888268  84.3413267  70.9536746 114.9601353
  84.3950290  71.5227682 115.7279069  83.4728049  71.1238631 114.5955390
  91.4700922  67.3958353 115.9601138  91.6636812  68.3004163 116.2060413
  91.3701540  66.9365772 116.7939723  83.1237233  57.2816243 118.4591465
  82.4765148  57.9806193 118.3655942  83.8938248  57.7152387 118.8267713
  86.5316031  67.5465095 121.5342018  86.3801537  67.3175647 120.6172102
  86.5220710  68.5035697 121.5473363  83.3001367  65.1197008 116.5188285
  84.2293427  65.2708168 116.3457252  82.8792397  65.2081029 115.6636931
  82.0989699  69.1447672 114.2886822  81.9600785  68.7766457 115.1612761
  81.3104295  69.6595312 114.1170780  83.6494914  68.5229275 111.6775660
  83.3144747  68.4830045 112.5733310  83.1498860  67.8573991 111.2046070
  77.6239158  63.9296905 117.2028241  77.4858956  63.1977144 117.8039780
  78.5344082  63.8405805 116.9212429  86.5854106  65.8685309 101.9512720
  85.9683276  65.1432138 101.8545773  86.1170594  66.6294670 101.6079794
  80.2521459  63.6416864 116.6911921  80.9621077  63.0010057 116.6498539
  80.2090767  63.8929759 117.6138102  88.2408237  70.5784218 119.6118500
  88.1820784  69.8943438 118.9449083  88.6427756  71.3203208 119.1599126
  78.9650393  60.6282082 118.5107561  78.4287750  60.1772821 119.1629157
  78.3767101  60.7627991 117.7678025  77.2598936  77.3946132 112.4052219
  77.4995534  78.0264656 113.0831238  76.4168133  77.0434172 112.6917578
  88.2425645  68.5423802 117.8432480  87.3552423  68.2049724 117.9658879
  88.8124196  67.8106833 118.0801245  81.7726798  73.2025254 114.8093723
  81.6996970  74.0080226 115.3213028  81.3304191  73.4017220 113.9841745
  84.8713228  58.2491654 110.9630750  85.3681927  57.4961616 110.6431820
  84.1000209  58.2855970 110.3973959  92.7242985  63.9532019 112.6049042
  92.7132861  64.8356735 112.2342975  91.8560365  63.6003570 112.4103579
  84.2325482  73.1012088 116.9651882  84.9453454  73.7359553 116.8927783
  83.7415510  73.1975954 116.1491884  85.9543009  67.0063341 108.5369173
  85.0199287  67.1264803 108.3673878  86.1319677  66.1035808 108.2729183
  89.3415560  62.8480660 109.0719208  89.8076012  63.6808652 108.9979510
  89.7923060  62.3825642 109.7764466  79.2837395  70.8506532 117.7857453
  79.9846855  71.4843015 117.9386847  78.8132510  71.1921263 117.0253092
  87.4091791  69.1924481 106.0705360  87.6851635  69.0781076 106.9799234
  86.5396290  68.7941966 106.0317533  87.3132223  55.2161247 113.1110109
  86.3995302  55.4465474 113.2792316  87.7425324  55.2999691 113.9624141
  87.0838681  63.4051139 115.6110003  86.4310131  63.6527046 114.9562456
  87.4619061  62.5915277 115.2772480  84.0445855  73.4410832 109.7138173
  84.2268250  72.6232488 110.1765926  84.8678841  73.6578524 109.2763063
  84.3788020  72.3679017 106.9753222  84.9075787  71.8571472 106.3623384
  84.6416240  72.0521548 107.8398755  83.1326254  64.1470950 122.0976040
  82.4566891  64.0465079 122.7678415  83.9553888  63.9910164 122.5612037
  74.8805113  70.3842887 114.7188555  75.4658550  69.6386575 114.8516460
  74.6829952  70.6946843 115.6025219  81.8749037  75.4537878 116.3333656
  82.4267345  75.6169499 117.0982741  82.2155230  76.0442315 115.6613681
  76.8513530  57.8013027 116.9355541  76.9154857  58.6627858 116.5232938
  76.7880650  57.1887029 116.2027899  76.3265803  59.8736160 120.5828575
  76.9537842  59.4913237 121.1966099  75.4693722  59.6550362 120.9484268
  86.7259911  70.2799135 122.1882310  87.2699815  70.8929093 121.6937265
  86.1446756  70.8378713 122.7049323  85.0117424  73.4019853 113.3197338
  84.8868564  72.6009593 112.8108284  85.6696515  73.8966046 112.8311308
  87.0752333  71.2028873 114.9476888  86.1282668  71.0834224 114.8755215
  87.4235106  70.3151371 115.0303150  79.4351906  57.0923012 118.7715130
  79.9586308  57.3385309 119.5341440  79.2164239  57.9243047 118.3518268
  84.0798766  70.9981589 111.1481241  83.9323728  70.0698297 111.3288811
  84.9052259  71.0201680 110.6638316  87.6832888  71.8210148 112.2346113
  88.6079435  71.6153009 112.0970564  87.5148191  71.5726549 113.1435455
  80.6404451  58.0336707 116.4564801  80.3001271  57.2344520 116.8585481
  79.9343457  58.3338418 115.8841634  81.2920923  55.1186020 114.9092124
  82.1146992  54.6446498 114.7871014  81.5358986  55.8976503 115.4090810
  79.9329157  58.1474278 105.2055025  80.6537520  58.5255531 104.7018742
  79.3094462  58.8663155 105.3090003  84.0760280  58.8519427 106.1413358
  84.2923895  59.7344065 105.8402186  83.5954347  58.4605640 105.4119000
  82.5282015  59.2345028 114.8118119  82.2699793  60.1562099 114.8102450
  81.9967056  58.8375463 115.5018583  87.4728204  72.3395816 107.5908205
  87.6465082  71.7742238 106.8382057  87.9657095  73.1396710 107.4087695
  73.2905164  64.3510485 115.6571764  72.7458632  65.1270293 115.7892038
  74.1684514  64.6981289 115.4990885  80.0792780  57.6822069 108.0352562
  80.2008692  56.7538715 108.2343450  79.7894823  57.6960754 107.1230877
  82.9483971  55.3676979 111.1719282  82.9705668  55.4316312 110.2171261
  83.3652030  54.5281488 111.3659788  93.3267595  65.1032238 109.2098504
  93.7698741  64.3539564 108.8117628  92.4494105  65.0942375 108.8272236
  88.4603377  71.6562580 104.6905103  89.1554281  72.2769273 104.9092418
  88.8026527  70.8057931 104.9657481  74.0771186  63.4780381 118.5501920
  73.3352922  63.6263016 119.1366551  73.7563930  63.7388647 117.6868670
  90.3594800  69.1062285 106.2192434  90.8846124  69.4449558 105.4941754
  90.2717152  68.1709301 106.0355568  82.0214848  73.0196359 118.3482310
  82.3301975  72.7745506 119.2205010  82.8190330  73.2242998 117.8601181
  82.0435460  75.1734269 110.5787687  81.6040451  74.6810647 111.2720544
  82.7943577  74.6307236 110.3379762  79.4909333  70.7172278 112.6509989
  78.8689342  70.0542983 112.3512217  80.1614199  70.7433410 111.9683636
  72.7236404  69.2832136 111.5401249  71.8868313  68.8554310 111.3585250
  72.6960050  69.4764579 112.4772040  79.5633860  59.1954066 122.2442495
  79.6122015  60.0716189 121.8620264  80.1056374  58.6531459 121.6714138
  90.0488706  69.7395189 121.5243632  89.2584249  69.7219328 120.9848131
  89.8122060  70.2783483 122.2792668  90.1686581  66.5887656 118.8376360
  90.2184586  66.4237663 119.7791883  90.0600504  65.7214915 118.4474241
  87.4590343  62.5718584 120.1535667  88.3600206  62.4325048 119.8619665
  87.5338318  62.7373038 121.0933844  81.7933148  59.9485438 118.9988853
  80.9236458  60.2419004 118.7271442  82.0292629  60.5325883 119.7196117
  91.6704778  69.0084597 119.0818382  91.3789586  69.3714578 119.9181843
  91.0576909  68.2951605 118.9031714  92.8700460  66.5737477 111.6020952
  93.7047351  67.0127281 111.7658512  93.0059589  66.0976130 110.7829198
  89.9191966  64.1317212 117.5498440  90.3946087  64.3244858 116.7417291
  88.9957531  64.1876397 117.3041823  84.4972182  56.1665055 116.5154274
  85.0154126  56.9026082 116.1900762  84.1427315  56.4729049 117.3501033
  84.7484776  52.5865338 112.0355170  85.0286530  51.9188527 112.6615597
  85.5335383  52.7794433 111.5229834  88.6193635  61.0082972 115.7826745
  89.5711058  61.1081069 115.8038969  88.4497085  60.2161240 116.2924830
  86.6408014  58.0938555 115.9686146  86.0457946  58.3743568 115.2732635
  86.3557711  58.5832456 116.7402887  88.4003521  71.3627352 101.6892726
  88.3217153  71.0287216 102.5828484  89.2213188  71.8549120 101.6884199
  91.0981713  64.2289091 114.8969045  91.0658033  63.2905092 115.0828729
  91.7082336  64.3073128 114.1634870  82.9365043  63.0985144 100.9396249
  83.8824148  62.9691353 101.0084667  82.5579288  62.3599806 101.4165677
  91.2476201  61.0200135 114.9427328  90.7315250  60.2358591 114.7557257
  92.1316150  60.6918851 115.1073848  88.9086928  54.7641150 110.9023141
  88.7111749  54.4556239 111.7866473  89.5186634  55.4902789 111.0321071
  96.9158262  65.2905098 114.0375082  97.6461651  65.0290386 114.5982785
  96.3065208  64.5533820 114.0777150  94.9973560  63.4312961 114.6349533
  94.2706723  63.2968926 114.0266025  94.5820846  63.7389789 115.4406251
  82.8203736  67.1502891 122.3996906  83.7406745  67.3281490 122.5936953
  82.7853319  66.2058936 122.2476605  81.1207961  61.0235121 100.8751134
  80.2139416  60.7268233 100.9513848  81.3983942  60.7264939 100.0085421
  75.8165809  65.0603925 115.0419687  76.0351818  65.9921033 115.0607721
  76.2291582  64.7011900 115.8274491  82.7370026  55.5672010 107.0295376
  81.9270755  55.2219095 107.4050622  83.4254443  55.2579554 107.6182987
  84.6660575  54.6450057 108.6519672  85.2191613  55.0645511 109.3109695
  84.9030661  53.7185805 108.6942628  80.6893674  60.6337131 124.4322436
  80.5890401  61.5831488 124.3634527  80.4715216  60.3055370 123.5598506
  71.9074161  65.9644396 113.2943302  71.2137632  65.5498348 112.7813257
  72.6547152  66.0064932 112.6976721  88.0439382  56.7550582 108.1598337
  87.4638051  57.4135386 107.7776389  87.7775314  55.9327927 107.7485754
  86.4942948  56.1555640 110.3619657  86.9942726  56.2672175 109.5533976
  87.1378556  55.8516693 111.0020465  80.5524944  64.0634270 123.2487498
  80.0692026  64.8634630 123.4551387  80.6385883  64.0742215 122.2954942
  76.4798281  67.9538804 115.2855932  77.4341535  67.9222747 115.2185863
  76.2810805  67.4929428 116.1006158  77.0697664  66.5239921 117.8526729
  77.8890553  67.0183999 117.8761567  77.3434471  65.6071889 117.8244297
  86.8264260  58.9150673 107.2154685  85.9390115  59.2000323 106.9974880
  87.2418249  58.7544436 106.3681962  90.1778796  58.9397194 110.9309024
  90.9539186  59.4293646 111.2033641  89.4526930  59.3655248 111.3880894
  92.6151354  59.6524813 111.9882965  93.2095845  59.4120549 111.2776273
  92.6877938  58.9331944 112.6156501  74.8348510  73.4958424 112.3026129
  74.7002978  72.7358825 111.7364128  74.4180572  74.2199324 111.8354918
  85.9707473  68.6795348 101.3102705  86.6743323  68.8845350 101.9260360
  85.2470122  69.2472109 101.5751788  86.8005283  64.4305209 107.4304975
  86.7440485  64.8873760 106.5912607  87.3533626  63.6695893 107.2527818
  90.6110089  60.2194941 108.2555094  90.3547024  59.8191576 109.0863302
  89.9862957  60.9338735 108.1305234  94.9222427  62.9591014 110.7626386
  94.3621985  63.0284203 111.5357948  94.3165931  62.7831999 110.0425882
  77.9917636  74.3927741 112.5144572  77.8750020  75.3373173 112.4123262
  77.1710082  74.0901303 112.9030371  87.8794171  69.1177877 103.3601165
  88.7139775  68.6859075 103.1778640  87.7178514  68.9459890 104.2878059
  87.5340063  65.6209990 104.7257504  87.4788867  65.4554261 103.7845948
  86.9086118  66.3286023 104.8819694  72.3232578  60.8578054 118.5518926
  72.9691441  60.3477008 119.0406152  72.1149729  61.5946736 119.1262352
  84.8485970  67.9258902 124.0511067  85.7177130  68.0999554 123.6897702
  84.3692721  68.7453319 123.9286796  79.0172150  75.0456003 115.7300501
  79.9199397  75.0779613 116.0466996  78.7909520  74.1156454 115.7446836
  80.7725752  73.7986989 112.3910579  79.8221383  73.7988851 112.2774951
  81.0758238  73.0519724 111.8746614  84.6588308  51.7160876 108.5588759
  83.8920704  51.1619362 108.7045442  85.0699013  51.7882744 109.4202911
  76.6630069  58.0045671 122.6493941  77.5261530  57.6482476 122.8597265
  76.0895479  57.6659566 123.3369345  96.5078446  79.6347528 113.4556342
  97.1456856  79.5154275 112.7519682  96.3899289  80.5828372 113.5144294
  93.3168152  79.5874956 113.3917866  92.9786664  79.4716021 112.5038401
  94.1857920  79.1866121 113.3718872  89.1754968  81.4410432 109.3814757
  88.6119833  81.3500369 108.6131045  89.0607363  80.6210337 109.8617250
  93.7987935  80.7409808 119.3504072  93.7876576  80.3462606 118.4784575
  93.9608574  80.0075880 119.9437843  86.7219400  82.9361624 112.2198978
  87.5140692  82.5952449 111.8045277  86.9616050  83.0456599 113.1401131
  94.7554526  85.1081400 104.6929222  94.1042506  85.6935480 104.3063236
  95.5498889  85.6387595 104.7524260  88.6810154  82.1970537 105.0916356
  89.4541030  81.6499524 104.9529232  89.0335552  83.0614787 105.3030818
  90.5195196  83.5246919 118.2983256  90.2285062  84.4292550 118.1829922
  91.1552180  83.5663447 119.0127325  91.4451403  80.9023768 114.8884615
  92.0414975  80.6779790 114.1741578  91.5026375  80.1608513 115.4910063
  91.0176431  78.3563203 102.7234806  91.2701952  77.8344725 101.9618269
  90.0800990  78.1929349 102.8261490  96.0619714  77.3598982 110.5309550
  96.8482803  76.9418405 110.1799967  96.3258419  78.2645074 110.6991198
  96.2329792  82.7971832 105.2298206  95.5975625  82.8706459 105.9419111
  95.9027198  83.3865431 104.5517286 101.4628141  77.2974215 111.4342528
 102.1953313  76.7273432 111.6680358 100.7067497  76.9095815 111.8749034
  90.7372720  80.2591309 104.9259181  90.6208978  79.5836213 105.5940266
  90.8474980  79.7723683 104.1091334  93.0804261  79.7201456 108.6305871
  92.7162468  79.1932077 109.3418792  93.9371377  79.3299925 108.4572356
  98.9853562  71.0095789 115.8937137  98.6536886  71.8791200 115.6698352
  98.3899175  70.6932073 116.5731167  92.7209748  74.7491356 103.6267219
  92.8884150  75.6171592 103.9937690  92.5306917  74.9118638 102.7028508
  95.4785081  83.2108335 115.2933049  95.1785804  84.1133374 115.1848857
  95.1336141  82.9440518 116.1454202  88.9297563  79.6622132 111.3269754
  88.0048059  79.5298346 111.5347446  89.1781976  80.4416351 111.8239696
  98.8782225  75.7290875 112.9730487  97.9699102  75.6606284 112.6789248
  98.8269821  76.2062820 113.8012312  92.6998969  77.2049014 104.6113886
  92.5798594  77.6506064 105.4499366  92.0051557  77.5534331 104.0527424
  86.2906374  79.3055405 112.1613543  86.4198755  79.5589884 113.0752955
  85.6103825  79.8983113 111.8418198  90.4605861  89.9752655 108.2604017
  90.3829891  90.9260480 108.3392498  89.8567505  89.6298528 108.9178943
  92.9523091  77.1480521 120.9165384  92.1756425  77.7074441 120.9068249
  93.5913654  77.6337304 121.4380254 100.7443871  73.9307314 114.7508361
 100.1018252  74.2239847 114.1048155 100.2398800  73.8160234 115.5561557
  98.3984035  77.6770487 105.4394220  99.3101891  77.9097874 105.2641918
  97.8893682  78.2607531 104.8769299  91.2069463  79.9565974 120.4783351
  91.9484147  80.4951018 120.2018175  90.5006449  80.5832263 120.6354903
  96.6824803  82.0995115 119.0755513  97.0908159  81.6577525 118.3310145
  95.9602064  81.5247742 119.3289705  93.0355873  77.0367721 116.4489069
  93.8817068  77.4607135 116.5923718  92.9754510  76.3801346 117.1427633
  97.0053617  82.6596305 112.8307801  96.3762480  82.8242019 112.1283869
  96.6179279  83.0737915 113.6018765 100.8842849  83.5950743 110.1852165
 100.1993887  83.9749644 109.6349198 100.9686699  84.2046070 110.9184113
  96.1855318  74.6972090 118.1070243  95.9416250  75.4514150 117.5704519
  96.4615249  75.0757437 118.9417490  98.1393781  81.2410702 116.7847509
  98.3510676  81.8842462 116.1081890  98.0923529  80.4073019 116.3169439
  95.7420010  73.8528523 113.6884081  94.8804489  74.1509776 113.9800818
  95.7682444  74.0698922 112.7565113  92.5581579  82.3970713 110.0957887
  93.0219925  82.6758416 109.3062509  92.2938377  81.4954158 109.9130977
  89.4505660  81.9442195 113.0337650  90.0207017  82.3729463 112.3955134
  90.0413772  81.6624780 113.7321835  91.4950465  78.5193866 106.9047452
  92.1974509  78.9714909 107.3721378  91.1631094  77.8777685 107.5327345
  89.9430827  77.1105622 121.2798661  89.3129487  77.7921903 121.5134058
  89.8366915  76.9988704 120.3351799  85.2375799  76.7777418 112.2064585
  84.4474853  77.0334947 111.7304696  85.7287047  77.5925756 112.3116626
  99.2539609  84.1182658 114.9569866 100.0757053  83.7162845 114.6752548
  99.2502012  84.0150892 115.9085982  87.1890545  77.1421998 109.1648062
  86.3921708  77.2540692 109.6831558  86.9616137  77.4808650 108.2988952
  93.0196212  83.6666701 117.1130577  93.0840645  84.1287108 117.9488748
  92.3107136  83.0364066 117.2412886  83.5213502  77.0307909 114.6379576
  83.7721541  77.9154919 114.9037152  84.0573051  76.8512510 113.8654668
 107.3445602  80.4621406 111.3054838 106.5909310  79.8928804 111.1498842
 107.4793143  80.4284070 112.2525472  92.7344230  85.3334808 106.9809557
  92.5989905  86.1786344 107.4094405  93.2754042  85.5354086 106.2175491
  89.2211570  71.4126388 123.6423912  88.8278515  70.8592587 124.3171556
  90.0377710  71.7236967 124.0330430  86.1873627  82.8510246 107.5537482
  86.6998148  83.6453497 107.7043047  86.8396340  82.1536537 107.4871083
  87.9968512  85.9676003 109.6360235  88.1735140  86.8893967 109.4481219
  88.7925346  85.6534422 110.0654615  92.1379531  72.8284267 121.2344169
  92.8789244  73.4291420 121.1548631  92.3697453  72.0861905 120.6762211
  87.2820869  78.0140634 119.5122398  87.1674384  77.1125892 119.8129497
  86.4265386  78.2604331 119.1607215  94.3612706  85.9558375 121.1109899
  93.9176560  85.1694753 120.7930803  95.0229920  86.1437525 120.4453790
  89.1199827  87.4854176 115.6370577  89.6707253  87.3571240 114.8647571
  88.2811303  87.7849065 115.2865470  96.4593944  86.2361175 119.1391300
  96.4412420  87.0570056 118.6471569  97.3813864  86.1115250 119.3641441
  92.9166999  83.7505304 119.9814809  93.4495335  82.9893592 119.7514117
  92.3881080  83.4578956 120.7238963  96.0836693  68.8565370 115.5108450
  95.7400963  69.7467012 115.4347561  96.4515656  68.6667028 114.6478035
  96.0486976  78.8473981 104.0180885  95.5333600  79.6178586 104.2569273
  95.7764285  78.1739117 104.6413947  93.6334087  73.6923682 109.0766124
  92.7775684  73.3030532 108.8971763  94.0461039  73.7715643 108.2165909
  95.1633234  71.2270025 113.4757684  94.6598029  71.1900160 112.6625489
  95.4563841  72.1362768 113.5354340  91.4076120  71.3108755 112.4823865
  92.2729117  71.1151564 112.1229755  91.4753629  71.0819107 113.4093222
 101.0221250  81.6006336 105.9534059 100.2450693  81.2617495 105.5089221
 101.7012731  81.6058959 105.2789024  95.8373279  76.7201073 105.8440667
  95.5323415  77.0347223 106.6950810  96.7903722  76.7982493 105.8868000
  94.2819711  82.8791297 107.4933621  93.7541073  82.1444056 107.1806858
  93.7807214  83.6565973 107.2473589  99.2612557  81.0740317 112.6100667
  98.6036232  81.7639579 112.6980796 100.0652956  81.4636749 112.9534653
  89.0138439  73.5410963 109.8540232  89.5882191  73.3186144 109.1213425
  89.6009421  73.6099657 110.6068833  98.0718016  79.4284690 110.6604609
  98.5849898  80.0614682 111.1626318  98.7219240  78.8285885 110.2947969
  89.3408026  75.5715424 103.8736117  88.5045338  75.9090111 104.1945392
  89.2012796  75.4364404 102.9363254  91.3161107  70.4152212 108.5815302
  90.6625519  70.1001229 107.9571916  91.2741581  69.7927952 109.3075124
  92.4272311  80.6971507 100.4968594  91.5199373  80.4660760 100.6959743
  92.9243343  79.9009126 100.6842575  95.3340390  89.4069014 103.4165280
  94.6602089  89.7100711 104.0250238  95.7206212  90.2098094 103.0670737
  94.5498847  76.9034145 112.9062949  93.6321408  77.1249092 112.7484637
  94.9658991  76.9780456 112.0474657  95.3333895  78.3025561 108.0365629
  96.0805714  78.8146958 107.7272751  95.6025484  77.9809614 108.8970023
  93.6060545  80.7984102 105.0192584  92.6971764  80.5143135 105.1165053
  93.6355629  81.2183180 104.1595891  98.8379812  84.4090691 108.7883751
  98.3842139  83.5681601 108.8448942  98.2073779  85.0452090 109.1258531
  97.7812732  75.3382677 110.0184419  97.0435489  74.8260064 110.3494661
  98.0339505  74.8983059 109.2067696  97.2812752  86.2467188 109.7233569
  97.5735726  86.8072245 109.0045935  97.7911372  86.5395749 110.4786729
  97.8824359  68.1158929 110.6126188  98.1883236  67.2556293 110.3252103
  98.6076964  68.7076550 110.4125182  92.1545439  78.4112722 111.1202379
  92.2094049  77.4586559 111.0444856  91.3436641  78.5672162 111.6043678
  93.3036633  82.3392845 102.3580662  92.8656063  81.6228704 101.8986300
  94.0447074  82.5668960 101.7965754  90.0937799  77.0289782 108.8792758
  89.2805664  77.3283953 109.2857950  90.5896793  76.6345471 109.5967240
  92.2446377  87.0247539 110.8127023  92.2022555  87.2508385 109.8835555
  93.1609076  86.7910914 110.9612824  95.6912010  77.4931607 117.7107652
  96.0461398  77.7203080 118.5702118  96.3384142  77.8249983 117.0884907
 101.4209747  80.6150043 108.4156981 101.2827646  80.8051638 107.4878170
 101.0645966  81.3769425 108.8725032  89.5851874  74.6008138 114.4953993
  90.2251253  74.4596897 113.7976956  88.7529404  74.3142651 114.1192595
 101.4479127  82.6826570 113.4268252 101.8815634  82.5901859 114.2751306
 102.1610708  82.6584070 112.7888268  90.3612177  83.9010568 110.6088985
  91.1552776  83.4060888 110.4071560  89.6503870  83.3728431 110.2456691
  95.1807022  86.2828664 114.9601353  95.2344044  86.8519600 115.7279069
  94.3121803  86.4530549 114.5955390  86.6694941  78.0453650 106.6848738
  85.7392529  77.9838105 106.9018700  86.7652413  77.5229603 105.8885379
  86.5880490  74.5708463 109.2726980  86.8487307  75.4853796 109.1636140
  87.4097662  74.1032905 109.4223593  88.0605415  75.9846220 116.4425804
  88.7328469  75.7763582 115.7938453  87.2335202  75.7868306 116.0031037
 102.3094677  82.7250270 115.9601138 102.5030567  83.6296081 116.2060413
 102.2095295  82.2657689 116.7939723  93.9630987  72.6108161 118.4591465
  93.3158902  73.3098110 118.3655942  94.7332003  73.0444305 118.8267713
  97.3709785  82.8757013 121.5342018  97.2195292  82.6467565 120.6172102
  97.3614465  83.8327614 121.5473363  94.1395122  80.4488926 116.5188285
  95.0687182  80.6000085 116.3457252  93.7186152  80.5372946 115.6636931
  92.9383453  84.4739590 114.2886822  92.7994539  84.1058374 115.1612761
  92.1498050  84.9887230 114.1170780  93.5331605  89.5748687 105.6312359
  93.7083361  89.1036730 106.4457982  92.8464393  90.2014453 105.8593620
  94.4888669  83.8521193 111.6775660  94.1538501  83.8121963 112.5733310
  93.9892614  83.1865909 111.2046070  88.4632913  79.2588823 117.2028241
  88.3252711  78.5269062 117.8039780  89.3737836  79.1697723 116.9212429
  97.4247860  81.1977227 101.9512720  96.8077031  80.4724055 101.8545773
  96.9564349  81.9586587 101.6079794  91.0915213  78.9708782 116.6911921
  91.8014832  78.3301974 116.6498539  91.0484521  79.2221677 117.6138102
  99.0801992  85.9076135 119.6118500  99.0214538  85.2235356 118.9449083
  99.4821510  86.6495125 119.1599126  89.8044147  75.9574000 118.5107561
  89.2681504  75.5064738 119.1629157  89.2160856  76.0919909 117.7678025
  88.0992691  92.7238049 112.4052219  88.3389289  93.3556573 113.0831238
  87.2561887  92.3726089 112.6917578  89.2146406  75.4162651 101.0734024
  88.3375872  75.2951452 100.7096271  89.6904159  74.6248730 100.8212913
  99.0819399  83.8715719 117.8432480  98.1946178  83.5341641 117.9658879
  99.6517950  83.1398751 118.0801245  85.5383268  75.0930008 115.5960555
  85.4541457  74.4855677 114.8610965  84.7165975  75.5839026 115.5970051
  92.6120553  88.5317172 114.8093723  92.5390724  89.3372143 115.3213028
  92.1697946  88.7309138 113.9841745  92.4010332  87.7688942 108.3196545
  91.6177854  88.3110622 108.4134769  93.1003077  88.2862921 108.7190786
  95.7106982  73.5783571 110.9630750  96.2075682  72.8253534 110.6431820
  94.9393964  73.6147888 110.3973959 103.5636740  79.2823937 112.6049042
 103.5526616  80.1648652 112.2342975 102.6954119  78.9295488 112.4103579
  95.0719236  88.4304006 116.9651882  95.7847208  89.0651471 116.8927783
  94.5809265  88.5267872 116.1491884  96.7936763  82.3355258 108.5369173
  95.8593042  82.4556721 108.3673878  96.9713431  81.4327725 108.2729183
  92.2941951  75.7200954 110.6902435  91.9239739  75.1671995 111.3783340
  92.7901044  75.1159088 110.1377435 100.1809314  78.1772578 109.0719208
 100.6469767  79.0100569 108.9979510 100.6316815  77.7117559 109.7764466
  90.1231150  86.1798449 117.7857453  90.8240609  86.8134932 117.9386847
  89.6526265  86.5213181 117.0253092  98.2485545  84.5216399 106.0705360
  98.5245389  84.4072994 106.9799234  97.3790044  84.1233884 106.0317533
  98.1525977  70.5453165 113.1110109  97.2389057  70.7757392 113.2792316
  98.5819079  70.6291609 113.9624141  97.9232436  78.7343057 115.6110003
  97.2703886  78.9818964 114.9562456  98.3012816  77.9207195 115.2772480
  94.8839609  88.7702750 109.7138173  95.0662004  87.9524406 110.1765926
  95.7072595  88.9870442 109.2763063  95.2181775  87.6970935 106.9753222
  95.7469541  87.1863390 106.3623384  95.4809995  87.3813465 107.8398755
  93.9720009  79.4762868 122.0976040  93.2960646  79.3756997 122.7678415
  94.7947643  79.3202082 122.5612037  85.7198868  85.7134804 114.7188555
  86.3052305  84.9678492 114.8516460  85.5223706  86.0238761 115.6025219
  88.5737523  88.7486052 109.7350998  87.9047898  89.2332179 109.2515038
  88.4350393  88.9955272 110.6494376  92.7142792  90.7829795 116.3333656
  93.2661100  90.9461417 117.0982741  93.0548985  91.3734233 115.6613681
  87.6907285  73.1304945 116.9355541  87.7548611  73.9919776 116.5232938
  87.6274405  72.5178947 116.2027899  87.1659557  75.2028078 120.5828575
  87.7931596  74.8205155 121.1966099  86.3087476  74.9842280 120.9484268
  97.5653666  85.6091053 122.1882310  98.1093570  86.2221011 121.6937265
  96.9840511  86.1670631 122.7049323  95.8511179  88.7311771 113.3197338
  95.7262318  87.9301511 112.8108284  96.5090270  89.2257964 112.8311308
  87.4719347  75.0860503 112.4974478  86.7505933  75.6996471 112.3581952
  88.2612603  75.6218268 112.4191124  97.9146087  86.5320791 114.9476888
  96.9676423  86.4126142 114.8755215  98.2628860  85.6443289 115.0303150
  90.2745661  72.4214930 118.7715130  90.7980062  72.6677226 119.5341440
  90.0557994  73.2534965 118.3518268  85.6712942  74.6918604 106.6386255
  85.3425648  73.8115983 106.4561361  86.0252312  74.6366273 107.5262644
  94.9192520  86.3273507 111.1481241  94.7717483  85.3990214 111.3288811
  95.7446014  86.3493598 110.6638316  88.7854765  74.9791574 107.0061733
  89.1250837  75.5077495 106.2840341  89.2326885  75.3171980 107.7820299
  98.5226642  87.1502066 112.2346113  99.4473190  86.9444927 112.0970564
  98.3541946  86.9018467 113.1435455  91.4798206  73.3628625 116.4564801
  91.1395026  72.5636438 116.8585481  90.7737212  73.6630336 115.8841634
  92.1314677  70.4477937 114.9092124  92.9540747  69.9738415 114.7871014
  92.3752741  71.2268421 115.4090810  90.7722912  73.4766196 105.2055025
  91.4931274  73.8547449 104.7018742  90.1488216  74.1955073 105.3090003
  94.9154035  74.1811345 106.1413358  95.1317649  75.0635983 105.8402186
  94.4348102  73.7897558 105.4119000  89.6553256  77.1397058 112.7184102
  89.5097837  77.4537361 113.6108384  89.1778460  77.7581958 112.1655001
  91.5149639  74.1299606 112.7664992  91.5011208  73.2340699 112.4297290
  92.2322067  74.1370270 113.4003278  93.3675770  74.5636946 114.8118119
  93.1093548  75.4854017 114.8102450  92.8360810  74.1667381 115.5018583
  98.3121959  87.6687733 107.5908205  98.4858836  87.1034156 106.8382057
  98.8050850  88.4688628 107.4087695  84.1298918  79.6802402 115.6571764
  83.5852386  80.4562210 115.7892038  85.0078268  80.0273207 115.4990885
  90.9186535  73.0113986 108.0352562  91.0402446  72.0830632 108.2343450
  90.6288577  73.0252672 107.1230877  93.7877725  70.6968897 111.1719282
  93.8099422  70.7608230 110.2171261  94.2045784  69.8573405 111.3659788
 104.1661350  80.4324156 109.2098504 104.6092496  79.6831481 108.8117628
 103.2887860  80.4234293 108.8272236  99.2997131  86.9854498 104.6905103
  99.9948036  87.6061190 104.9092418  99.6420281  86.1349849 104.9657481
  84.9164940  78.8072299 118.5501920  84.1746676  78.9554934 119.1366551
  84.5957684  79.0680564 117.6868670 101.1988554  84.4354203 106.2192434
 101.7239878  84.7741476 105.4941754 101.1110907  83.5001218 106.0355568
  92.8608603  88.3488277 118.3482310  93.1695729  88.1037424 119.2205010
  93.6584085  88.5534915 117.8601181  92.8829215  90.5026186 110.5787687
  92.4434205  90.0102565 111.2720544  93.6337332  89.9599154 110.3379762
  85.3621554  86.6937727 110.5812315  86.1879574  86.3941499 110.2010959
  85.0115606  85.9245350 111.0302104  90.3303087  86.0464196 112.6509989
  89.7083096  85.3834901 112.3512217  91.0007954  86.0725327 111.9683636
  83.5630159  84.6124054 111.5401249  82.7262067  84.1846228 111.3585250
  83.5353804  84.8056497 112.4772040  90.4027615  74.5245984 122.2442495
  90.4515770  75.4008106 121.8620264  90.9450129  73.9823377 121.6714138
 100.8882460  85.0687107 121.5243632 100.0978004  85.0511246 120.9848131
 100.6515815  85.6075400 122.2792668 101.0080335  81.9179573 118.8376360
 101.0578340  81.7529581 119.7791883 100.8994259  81.0506832 118.4474241
  89.8916594  84.5968119 106.1268449  90.0404714  85.2803583 105.4735122
  90.6983037  84.5773209 106.6417905  98.2984098  77.9010501 120.1535667
  99.1993960  77.7616966 119.8619665  98.3732072  78.0664956 121.0933844
  92.6326903  75.2777356 118.9988853  91.7630212  75.5710922 118.7271442
  92.8686383  75.8617801 119.7196117 102.5098532  84.3376515 119.0818382
 102.2183340  84.7006495 119.9181843 101.8970663  83.6243523 118.9031714
 103.7094214  81.9029394 111.6020952 104.5441106  82.3419199 111.7658512
 103.8453343  81.4268048 110.7829198 100.7585720  79.4609129 117.5498440
 101.2339842  79.6536776 116.7417291  99.8351286  79.5168315 117.3041823
  87.6469227  80.6233297 107.1329518  87.4015269  79.7195627 107.3309728
  87.8165141  80.6250447 106.1908996  95.3365937  71.4956973 116.5154274
  95.8547881  72.2318000 116.1900762  94.9821070  71.8020966 117.3501033
  86.9164874  76.3561654 104.6315680  86.2234119  76.4306009 103.9755716
  86.6716626  75.5921998 105.1537196  95.5878531  67.9157255 112.0355170
  95.8680285  67.2480444 112.6615597  96.3729138  68.1086351 111.5229834
  93.3911999  87.0916249 103.5980197  92.8185967  87.7106436 103.1450668
  93.9644793  87.6415611 104.1320119  99.4587389  76.3374889 115.7826745
 100.4104812  76.4372987 115.8038969  99.2890840  75.5453158 116.2924830
  97.4801769  73.4230473 115.9686146  96.8851701  73.7035485 115.2732635
  97.1951465  73.9124374 116.7402887  96.6109259  87.3753399 104.7288779
  97.5439932  87.3098961 104.9321654  96.5232472  88.2109666 104.2703312
  99.2397276  86.6919270 101.6892726  99.1610907  86.3579133 102.5828484
 100.0606943  87.1841038 101.6884199 101.9375467  79.5581009 114.8969045
 101.9051787  78.6197010 115.0828729 102.5476091  79.6365046 114.1634870
  93.7758798  78.4277062 100.9396249  94.7217903  78.2983270 101.0084667
  93.3973043  77.6891724 101.4165677 102.0869956  76.3492053 114.9427328
 101.5709004  75.5650509 114.7557257 102.9709904  76.0210769 115.1073848
  99.7480682  70.0933068 110.9023141  99.5505504  69.7848156 111.7866473
 100.3580388  70.8194707 111.0321071 107.7552017  80.6197016 114.0375082
 108.4855405  80.3582304 114.5982785 107.1458962  79.8825738 114.0777150
 105.8367314  78.7604879 114.6349533 105.1100478  78.6260843 114.0266025
 105.4214601  79.0681707 115.4406251  93.6597490  82.4794808 122.3996906
  94.5800500  82.6573407 122.5936953  93.6247074  81.5350854 122.2476605
  91.9601715  76.3527038 100.8751134  91.0533171  76.0560151 100.9513848
  92.2377696  76.0556857 100.0085421  86.6559563  80.3895843 115.0419687
  86.8745573  81.3212951 115.0607721  87.0685337  80.0303817 115.8274491
  93.5763781  70.8963928 107.0295376  92.7664509  70.5511013 107.4050622
  94.2648198  70.5871472 107.6182987  95.5054329  69.9741975 108.6519672
  96.0585368  70.3937428 109.3109695  95.7424415  69.0477723 108.6942628
  91.5287428  75.9629049 124.4322436  91.4284155  76.9123406 124.3634527
  91.3108970  75.6347288 123.5598506  90.7300500  73.2113974 101.0163114
  91.5919664  73.5368872 101.2758931  90.9150844  72.4245470 100.5036179
  98.8833136  72.0842500 108.1598337  98.3031805  72.7427304 107.7776389
  98.6169069  71.2619845 107.7485754  97.3336703  71.4847558 110.3619657
  97.8336481  71.5964092 109.5533976  97.9772311  71.1808611 111.0020465
  91.3918698  79.3926187 123.2487498  90.9085780  80.1926548 123.4551387
  91.4779637  79.4034132 122.2954942  87.3192036  83.2830722 115.2855932
  88.2735289  83.2514665 115.2185863  87.1204559  82.8221346 116.1006158
  87.9091418  81.8531838 117.8526729  88.7284307  82.3475917 117.8761567
  88.1828226  80.9363806 117.8244297  97.6658014  74.2442591 107.2154685
  96.7783869  74.5292241 106.9974880  98.0812003  74.0836354 106.3681962
 101.0172550  74.2689112 110.9309024 101.7932940  74.7585564 111.2033641
 100.2920685  74.6947166 111.3880894 103.4545109  74.9816731 111.9882965
 104.0489600  74.7412467 111.2776273 103.5271693  74.2623861 112.6156501
  85.6742265  88.8250342 112.3026129  85.5396733  88.0650743 111.7364128
  85.2574327  89.5491242 111.8354918  96.8101228  84.0087265 101.3102705
  97.5137078  84.2137268 101.9260360  96.0863876  84.5764027 101.5751788
  97.6399038  79.7597126 107.4304975  97.5834239  80.2165678 106.5912607
  98.1927380  78.9987811 107.2527818 101.4503844  75.5486858 108.2555094
 101.1940778  75.1483494 109.0863302 100.8256712  76.2630652 108.1305234
 105.7616182  78.2882932 110.7626386 105.2015740  78.3576121 111.5357948
 105.1559685  78.1123916 110.0425882  88.8311391  89.7219659 112.5144572
  88.7143775  90.6665091 112.4123262  88.0103837  89.4193220 112.9030371
  98.7187925  84.4469794 103.3601165  99.5533529  84.0150993 103.1778640
  98.5572268  84.2751808 104.2878059  98.3733817  80.9501908 104.7257504
  98.3182621  80.7846179 103.7845948  97.7479873  81.6577941 104.8819694
  83.1626332  76.1869972 118.5518926  83.8085196  75.6768926 119.0406152
  82.9543483  76.9238654 119.1262352  95.6879724  83.2550820 124.0511067
  96.5570884  83.4291472 123.6897702  95.2086476  84.0745236 123.9286796
  91.6829943  70.4510017 104.3042823  91.6708613  71.3951857 104.4611093
  92.5753365  70.2680162 104.0102284  89.8565905  90.3747921 115.7300501
  90.7593151  90.4071531 116.0466996  89.6303275  89.4448372 115.7446836
  91.6119507  89.1278907 112.3910579  90.6615138  89.1280769 112.2774951
  91.9151993  88.3811642 111.8746614  95.4982062  67.0452793 108.5588759
  94.7314458  66.4911280 108.7045442  95.9092767  67.1174662 109.4202911
  87.5023823  73.3337589 122.6493941  88.3655285  72.9774394 122.8597265
  86.9289234  72.9951484 123.3369345 107.3472200  94.9639446 113.4556342
 107.9850610  94.8446193 112.7519682 107.2293043  95.9120289 113.5144294
 104.1561906  94.9166874 113.3917866 103.8180418  94.8007938 112.5038401
 105.0251675  94.5158039 113.3718872 100.0148722  96.7702350 109.3814757
  99.4513587  96.6792287 108.6131045  99.9001117  95.9502254 109.8617250
 104.6381689  96.0701725 119.3504072 104.6270330  95.6754524 118.4784575
 104.8002329  95.3367798 119.9437843  97.5613154  98.2653542 112.2198978
  98.3534446  97.9244366 111.8045277  97.8009804  98.3748517 113.1401131
 105.5948281 100.4373318 104.6929222 104.9436261 101.0227398 104.3063236
 106.3892644 100.9679513 104.7524260  99.5203908  97.5262455 105.0916356
 100.2934784  96.9791442 104.9529232  99.8729307  98.3906704 105.3030818
 101.3588951  98.8538837 118.2983256 101.0678817  99.7584468 118.1829922
 101.9945935  98.8955365 119.0127325 102.2845157  96.2315686 114.8884615
 102.8808730  96.0071708 114.1741578 102.3420129  95.4900431 115.4910063
 101.8570186  93.6855121 102.7234806 102.1095707  93.1636642 101.9618269
 100.9194745  93.5221266 102.8261490 106.9013469  92.6890899 110.5309550
 107.6876558  92.2710323 110.1799967 107.1652173  93.5936992 110.6991198
 107.0723546  98.1263750 105.2298206 106.4369379  98.1998376 105.9419111
 106.7420952  98.7157348 104.5517286 112.3021896  92.6266133 111.4342528
 113.0347068  92.0565349 111.6680358 111.5461252  92.2387733 111.8749034
 101.5766475  95.5883227 104.9259181 101.4602733  94.9128130 105.5940266
 101.6868734  95.1015601 104.1091334 103.9198016  95.0493374 108.6305871
 103.5556223  94.5223995 109.3418792 104.7765131  94.6591843 108.4572356
 109.8247316  86.3387707 115.8937137 109.4930641  87.2083118 115.6698352
 109.2292930  86.0223991 116.5731167 103.5603503  90.0783274 103.6267219
 103.7277905  90.9463510 103.9937690 103.3700672  90.2410555 102.7028508
 106.3178836  98.5400253 115.2933049 106.0179559  99.4425291 115.1848857
 105.9729895  98.2732436 116.1454202  99.7691317  94.9914049 111.3269754
  98.8441814  94.8590264 111.5347446 100.0175730  95.7708269 111.8239696
 109.7175979  91.0582793 112.9730487 108.8092857  90.9898201 112.6789248
 109.6663575  91.5354738 113.8012312 103.5392723  92.5340931 104.6113886
 103.4192349  92.9797982 105.4499366 102.8445312  92.8826249 104.0527424
  97.1300128  94.6347323 112.1613543  97.2592509  94.8881802 113.0752955
  96.4497580  95.2275031 111.8418198 101.2999615 105.3044573 108.2604017
 101.2223645 106.2552398 108.3392498 100.6961259 104.9590446 108.9178943
 103.7916845  92.4772438 120.9165384 103.0150179  93.0366359 120.9068249
 104.4307408  92.9629221 121.4380254 111.5837626  89.2599231 114.7508361
 110.9412006  89.5531764 114.1048155 111.0792554  89.1452152 115.5561557
 109.2377790  93.0062404 105.4394220 110.1495646  93.2389791 105.2641918
 108.7287437  93.5899449 104.8769299 102.0463218  95.2857892 120.4783351
 102.7877902  95.8242936 120.2018175 101.3400203  95.9124181 120.6354903
 107.5218557  97.4287032 119.0755513 107.9301913  96.9869443 118.3310145
 106.7995819  96.8539660 119.3289705 103.8749627  92.3659639 116.4489069
 104.7210822  92.7899053 116.5923718 103.8148265  91.7093263 117.1427633
 107.8447372  97.9888223 112.8307801 107.2156234  98.1533937 112.1283869
 107.4573034  98.4029832 113.6018765 111.7236604  98.9242661 110.1852165
 111.0387642  99.3041562 109.6349198 111.8080453  99.5337987 110.9184113
 107.0249073  90.0264007 118.1070243 106.7810004  90.7806068 117.5704519
 107.3009003  90.4049355 118.9417490 108.9787535  96.5702620 116.7847509
 109.1904431  97.2134380 116.1081890 108.9317284  95.7364936 116.3169439
 106.5813764  89.1820440 113.6884081 105.7198243  89.4801694 113.9800818
 106.6076199  89.3990839 112.7565113 103.3975334  97.7262631 110.0957887
 103.8613679  98.0050334 109.3062509 103.1332132  96.8246076 109.9130977
 100.2899415  97.2734113 113.0337650 100.8600772  97.7021381 112.3955134
 100.8807527  96.9916697 113.7321835 102.3344220  93.8485783 106.9047452
 103.0368263  94.3006827 107.3721378 102.0024848  93.2069602 107.5327345
 100.7824581  92.4397540 121.2798661 100.1523242  93.1213821 121.5134058
 100.6760669  92.3280622 120.3351799  96.0769554  92.1069336 112.2064585
  95.2868608  92.3626865 111.7304696  96.5680801  92.9217674 112.3116626
 110.0933363  99.4474575 114.9569866 110.9150807  99.0454762 114.6752548
 110.0895766  99.3442809 115.9085982  98.0284299  92.4713915 109.1648062
  97.2315462  92.5832609 109.6831558  97.8009891  92.8100567 108.2988952
 103.8589967  98.9958618 117.1130577 103.9234399  99.4579026 117.9488748
 103.1500891  98.3655983 117.2412886  94.3607257  92.3599826 114.6379576
  94.6115295  93.2446836 114.9037152  94.8966805  92.1804428 113.8654668
 118.1839356  95.7913324 111.3054838 117.4303065  95.2220722 111.1498842
 118.3186898  95.7575988 112.2525472 103.5737984 100.6626726 106.9809557
 103.4383659 101.5078262 107.4094405 104.1147797 100.8646004 106.2175491
 100.0605324  86.7418306 123.6423912  99.6672270  86.1884504 124.3171556
 100.8771464  87.0528884 124.0330430  97.0267382  98.1802164 107.5537482
  97.5391902  98.9745414 107.7043047  97.6790095  97.4828454 107.4871083
  98.8362267 101.2967920 109.6360235  99.0128895 102.2185885 109.4481219
  99.6319100 100.9826339 110.0654615 102.9773285  88.1576185 121.2344169
 103.7182998  88.7583338 121.1548631 103.2091208  87.4153823 120.6762211
  98.1214623  93.3432552 119.5122398  98.0068138  92.4417809 119.8129497
  97.2659141  93.5896249 119.1607215 105.2006461 101.2850292 121.1109899
 104.7570315 100.4986671 120.7930803 105.8623674 101.4729443 120.4453790
  99.9593582 102.8146094 115.6370577 100.5101007 102.6863157 114.8647571
  99.1205058 103.1140983 115.2865470 107.2987699 101.5653092 119.1391300
 107.2806174 102.3861973 118.6471569 108.2207619 101.4407168 119.3641441
 103.7560753  99.0797222 119.9814809 104.2889090  98.3185510 119.7514117
 103.2274834  98.7870874 120.7238963 106.9230448  84.1857288 115.5108450
 106.5794717  85.0758930 115.4347561 107.2909411  83.9958945 114.6478035
  94.9916299  96.5090818 108.3297052  95.8291521  96.9187827 108.1130760
  95.1694566  95.5690260 108.2997246 106.8880731  94.1765899 104.0180885
 106.3727354  94.9470504 104.2569273 106.6158039  93.5031035 104.6413947
 104.4727842  89.0215600 109.0766124 103.6169438  88.6322450 108.8971763
 104.8854793  89.1007561 108.2165909 106.0026988  86.5561943 113.4757684
 105.4991784  86.5192078 112.6625489 106.2957595  87.4654686 113.5354340
 102.2469874  86.6400673 112.4823865 103.1122871  86.4443481 112.1229755
 102.3147383  86.4111024 113.4093222 111.8615005  96.9298254 105.9534059
 111.0844448  96.5909413 105.5089221 112.5406486  96.9350877 105.2789024
 106.6767034  92.0492991 105.8440667 106.3717169  92.3639140 106.6950810
 107.6297476  92.1274411 105.8868000 105.1213466  98.2083214 107.4933621
 104.5934827  97.4735974 107.1806858 104.6200968  98.9857891 107.2473589
 110.1006312  96.4032235 112.6100667 109.4429986  97.0931496 112.6980796
 110.9046711  96.7928667 112.9534653  99.8532193  88.8702881 109.8540232
 100.4275945  88.6478062 109.1213425 100.4403176  88.9391575 110.6068833
 108.9111771  94.7576608 110.6604609 109.4243652  95.3906599 111.1626318
 109.5612994  94.1577803 110.2947969 100.1801780  90.9007342 103.8736117
  99.3439093  91.2382028 104.1945392 100.0406550  90.7656321 102.9363254
 102.1554861  85.7444130 108.5815302 101.5019273  85.4293147 107.9571916
 102.1135335  85.1219870 109.3075124 103.2666066  96.0263425 100.4968594
 102.3593128  95.7952678 100.6959743 103.7637098  95.2301044 100.6842575
 106.1734145 104.7360932 103.4165280 105.4995844 105.0392629 104.0250238
 106.5599967 105.5390012 103.0670737 105.3892601  92.2326063 112.9062949
 104.4715163  92.4541010 112.7484637 105.8052745  92.3072374 112.0474657
 106.1727649  93.6317479 108.0365629 106.9199468  94.1438876 107.7272751
 106.4419239  93.3101531 108.8970023 104.4454299  96.1276019 105.0192584
 103.5365519  95.8435052 105.1165053 104.4749383  96.5475098 104.1595891
 109.6773567  99.7382609 108.7883751 109.2235894  98.8973519 108.8448942
 109.0467533 100.3744007 109.1258531 108.6206486  90.6674595 110.0184419
 107.8829243  90.1551981 110.3494661 108.8733260  90.2274977 109.2067696
 108.1206506 101.5759106 109.7233569 108.4129480 102.1364163 109.0045935
 108.6305127 101.8687667 110.4786729 108.7218114  83.4450847 110.6126188
 109.0276990  82.5848210 110.3252103 109.4470718  84.0368467 110.4125182
  95.0142470  93.8481534 109.0007786  94.8166870  93.2550894 108.2758853
  94.4589134  93.5433744 109.7183725 102.9939193  93.7404640 111.1202379
 103.0487803  92.7878476 111.0444856 102.1830395  93.8964079 111.6043678
 104.1430387  97.6684763 102.3580662 103.7049817  96.9520622 101.8986300
 104.8840828  97.8960878 101.7965754 100.9331553  92.3581700 108.8792758
 100.1199419  92.6575870 109.2857950 101.4290547  91.9637389 109.5967240
 103.0840131 102.3539457 110.8127023 103.0416310 102.5800303 109.8835555
 104.0002830 102.1202831 110.9612824 106.5305765  92.8223524 117.7107652
 106.8855153  93.0494997 118.5702118 107.1777896  93.1541901 117.0884907
 112.2603502  95.9441960 108.4156981 112.1221401  96.1343556 107.4878170
 111.9039721  96.7061343 108.8725032 100.4245628  89.9300055 114.4953993
 101.0645007  89.7888814 113.7976956  99.5923159  89.6434569 114.1192595
 112.2872882  98.0118487 113.4268252 112.7209388  97.9193776 114.2751306
 113.0004462  97.9875988 112.7888268 101.2005932  99.2302486 110.6088985
 101.9946530  98.7352806 110.4071560 100.4897624  98.7020349 110.2456691
 106.0200776 101.6120581 114.9601353 106.0737799 102.1811518 115.7279069
 105.1515558 101.7822466 114.5955390  97.5088695  93.3745568 106.6848738
  96.5786284  93.3130023 106.9018700  97.6046167  92.8521520 105.8885379
  97.4274244  89.9000380 109.2726980  97.6881062  90.8145714 109.1636140
  98.2491417  89.4324823 109.4223593  98.8999170  91.3138138 116.4425804
  99.5722223  91.1055500 115.7938453  98.0728956  91.1160224 116.0031037
 113.1488431  98.0542188 115.9601138 113.3424321  98.9587998 116.2060413
 113.0489049  97.5949607 116.7939723 104.8024742  87.9400078 118.4591465
 104.1552657  88.6390028 118.3655942 105.5725757  88.3736222 118.8267713
 108.2103540  98.2048931 121.5342018 108.0589046  97.9759482 120.6172102
 108.2008219  99.1619532 121.5473363 104.9788876  95.7780843 116.5188285
 105.9080936  95.9292003 116.3457252 104.5579906  95.8664864 115.6636931
 103.7777208  99.8031508 114.2886822 103.6388294  99.4350292 115.1612761
 102.9891804 100.3179147 114.1170780 104.3725360 104.9040604 105.6312359
 104.5477116 104.4328647 106.4457982 103.6858148 105.5306370 105.8593620
 105.3282423  99.1813110 111.6775660 104.9932256  99.1413880 112.5733310
 104.8286369  98.5157826 111.2046070  99.3026667  94.5880740 117.2028241
  99.1646465  93.8560979 117.8039780 100.2131591  94.4989641 116.9212429
 108.2641615  96.5269145 101.9512720 107.6470785  95.8015973 101.8545773
 107.7958103  97.2878505 101.6079794 101.9308968  94.3000700 116.6911921
 102.6408586  93.6593892 116.6498539 101.8878276  94.5513595 117.6138102
 109.9195746 101.2368053 119.6118500 109.8608293 100.5527273 118.9449083
 110.3215265 101.9787043 119.1599126 100.6437902  91.2865918 118.5107561
 100.1075259  90.8356656 119.1629157 100.0554610  91.4211827 117.7678025
  98.9386445 108.0529967 112.4052219  99.1783043 108.6848491 113.0831238
  98.0955642 107.7018007 112.6917578 100.0540161  90.7454569 101.0734024
  99.1769627  90.6243370 100.7096271 100.5297914  89.9540647 100.8212913
 109.9213154  99.2007637 117.8432480 109.0339932  98.8633559 117.9658879
 110.4911705  98.4690668 118.0801245  91.5742301  95.5331729 111.1675531
  92.2613341  95.2193459 110.5796547  91.4190429  96.4373093 110.8942783
  96.3777023  90.4221925 115.5960555  96.2935212  89.8147595 114.8610965
  95.5559729  90.9130944 115.5970051 103.4514307 103.8609089 114.8093723
 103.3784479 104.6664061 115.3213028 103.0091700 104.0601055 113.9841745
 103.2404087 103.0980859 108.3196545 102.4571609 103.6402540 108.4134769
 103.9396832 103.6154839 108.7190786 106.5500737  88.9075489 110.9630750
 107.0469436  88.1545451 110.6431820 105.7787718  88.9439806 110.3973959
 114.4030494  94.6115854 112.6049042 114.3920370  95.4940570 112.2342975
 113.5347874  94.2587405 112.4103579 105.9112991 103.7595923 116.9651882
 106.6240963 104.3943388 116.8927783 105.4203019 103.8559789 116.1491884
 107.6330517  97.6647176 108.5369173 106.6986796  97.7848639 108.3673878
 107.8107186  96.7619643 108.2729183 103.1335706  91.0492872 110.6902435
 102.7633493  90.4963912 111.3783340 103.6294798  90.4451005 110.1377435
 111.0203069  93.5064495 109.0719208 111.4863521  94.3392487 108.9979510
 111.4710569  93.0409477 109.7764466 100.9624904 101.5090367 117.7857453
 101.6634364 102.1426850 117.9386847 100.4920019 101.8505098 117.0253092
 109.0879300  99.8508317 106.0705360 109.3639144  99.7364911 106.9799234
 108.2183799  99.4525802 106.0317533 108.9919732  85.8745082 113.1110109
 108.0782811  86.1049309 113.2792316 109.4212833  85.9583526 113.9624141
 108.7626190  94.0634974 115.6110003 108.1097640  94.3110882 114.9562456
 109.1406570  93.2499113 115.2772480 105.7233364 104.0994668 109.7138173
 105.9055759 103.2816323 110.1765926 106.5466350 104.3162360 109.2763063
 106.0575529 103.0262853 106.9753222 106.5863296 102.5155307 106.3623384
 106.3203749 102.7105383 107.8398755 104.8113763  94.8054785 122.0976040
 104.1354400  94.7048915 122.7678415 105.6341397  94.6493999 122.5612037
  96.5592622 101.0426722 114.7188555  97.1446059 100.2970410 114.8516460
  96.3617461 101.3530679 115.6025219  99.4131277 104.0777969 109.7350998
  98.7441653 104.5624097 109.2515038  99.2744147 104.3247190 110.6494376
  91.1510277  93.6132322 113.4392998  91.1894376  93.0795913 114.2330117
  90.6450570  93.0867528 112.8203976 103.5536546 106.1121713 116.3333656
 104.1054854 106.2753334 117.0982741 103.8942739 106.7026151 115.6613681
  98.5301039  88.4596863 116.9355541  98.5942366  89.3211694 116.5232938
  98.4668159  87.8470864 116.2027899  98.0053312  90.5319995 120.5828575
  98.6325351  90.1497073 121.1966099  97.1481231  90.3134197 120.9484268
 108.4047420 100.9382970 122.1882310 108.9487324 101.5512929 121.6937265
 107.8234265 101.4962549 122.7049323  94.7818855  92.3396424 106.5146930
  95.0772296  91.4307103 106.4613984  93.8806890  92.3184164 106.1927932
 106.6904933 104.0603688 113.3197338 106.5656073 103.2593428 112.8108284
 107.3484024 104.5549882 112.8311308  98.3113102  90.4152421 112.4974478
  97.5899687  91.0288389 112.3581952  99.1006357  90.9510186 112.4191124
 108.7539842 101.8612709 114.9476888 107.8070177 101.7418060 114.8755215
 109.1022615 100.9735207 115.0303150 101.1139415  87.7506847 118.7715130
 101.6373817  87.9969144 119.5341440 100.8951748  88.5826882 118.3518268
  96.5106696  90.0210522 106.6386255  96.1819402  89.1407901 106.4561361
  96.8646067  89.9658191 107.5262644 105.7586275 101.6565425 111.1481241
 105.6111237 100.7282132 111.3288811 106.5839768 101.6785515 110.6638316
  99.6248519  90.3083492 107.0061733  99.9644592  90.8369413 106.2840341
 100.0720640  90.6463898 107.7820299 109.3620397 102.4793983 112.2346113
 110.2866944 102.2736845 112.0970564 109.1935700 102.2310385 113.1435455
 102.3191960  88.6920543 116.4564801 101.9788780  87.8928356 116.8585481
 101.6130966  88.9922253 115.8841634 102.9708432  85.7769855 114.9092124
 103.7934501  85.3030333 114.7871014 103.2146495  86.5560339 115.4090810
 101.6116666  88.8058113 105.2055025 102.3325029  89.1839366 104.7018742
 100.9881971  89.5246990 105.3090003 105.7547789  89.5103262 106.1413358
 105.9711404  90.3927900 105.8402186 105.2741856  89.1189476 105.4119000
 100.4947011  92.4688976 112.7184102 100.3491591  92.7829279 113.6108384
 100.0172214  93.0873876 112.1655001 102.3543394  89.4591524 112.7664992
 102.3404962  88.5632617 112.4297290 103.0715822  89.4662187 113.4003278
 104.2069524  89.8928864 114.8118119 103.9487302  90.8145934 114.8102450
 103.6754565  89.4959298 115.5018583 109.1515713 102.9979651 107.5908205
 109.3252591 102.4326073 106.8382057 109.6444604 103.7980546 107.4087695
  94.9692673  95.0094320 115.6571764  94.4246141  95.7854128 115.7892038
  95.8472023  95.3565124 115.4990885 101.7580289  88.3405904 108.0352562
 101.8796201  87.4122550 108.2343450 101.4682332  88.3544590 107.1230877
 104.6271480  86.0260814 111.1719282 104.6493177  86.0900147 110.2171261
 105.0439539  85.1865323 111.3659788 115.0055104  95.7616074 109.2098504
 115.4486250  95.0123399 108.8117628 114.1281614  95.7526210 108.8272236
 110.1390885 102.3146415 104.6905103 110.8341790 102.9353108 104.9092418
 110.4814036 101.4641767 104.9657481  95.7558695  94.1364216 118.5501920
  95.0140431  94.2846852 119.1366551  95.4351439  94.3972482 117.6868670
 112.0382309  99.7646121 106.2192434 112.5633633 100.1033394 105.4941754
 111.9504661  98.8293136 106.0355568 103.7002357 103.6780194 118.3482310
 104.0089484 103.4329341 119.2205010 104.4977839 103.8826833 117.8601181
 103.7222969 105.8318104 110.5787687 103.2827960 105.3394483 111.2720544
 104.4731086 105.2891072 110.3379762  96.2015308 102.0229645 110.5812315
  97.0273328 101.7233417 110.2010959  95.8509360 101.2537267 111.0302104
 101.1696842 101.3756113 112.6509989 100.5476851 100.7126818 112.3512217
 101.8401708 101.4017245 111.9683636  94.4023913  99.9415971 111.5401249
  93.5655822  99.5138146 111.3585250  94.3747559 100.1348415 112.4772040
 101.2421369  89.8537901 122.2442495 101.2909524  90.7300024 121.8620264
 101.7843883  89.3115294 121.6714138 111.7276215 100.3979024 121.5243632
 110.9371758 100.3803163 120.9848131 111.4909569 100.9367318 122.2792668
 111.8474090  97.2471491 118.8376360 111.8972095  97.0821498 119.7791883
 111.7388013  96.3798750 118.4474241 100.7310348  99.9260037 106.1268449
 100.8798469 100.6095501 105.4735122 101.5376792  99.9065127 106.6417905
 109.1377852  93.2302419 120.1535667 110.0387715  93.0908884 119.8619665
 109.2125827  93.3956874 121.0933844 103.4720657  90.6069274 118.9988853
 102.6023967  90.9002840 118.7271442 103.7080138  91.1909719 119.7196117
 113.3492287  99.6668432 119.0818382 113.0577095 100.0298413 119.9181843
 112.7364418  98.9535441 118.9031714 114.5487969  97.2321312 111.6020952
 115.3834860  97.6711116 111.7658512 114.6847098  96.7559965 110.7829198
 111.5979475  94.7901047 117.5498440 112.0733596  94.9828693 116.7417291
 110.6745040  94.8460233 117.3041823  98.4862981  95.9525214 107.1329518
  98.2409023  95.0487544 107.3309728  98.6558896  95.9542365 106.1908996
 106.1759691  86.8248891 116.5154274 106.6941635  87.5609917 116.1900762
 105.8214824  87.1312884 117.3501033  97.7558629  91.6853572 104.6315680
  97.0627874  91.7597927 103.9755716  97.5110381  90.9213915 105.1537196
 106.4272285  83.2449173 112.0355170 106.7074039  82.5772362 112.6615597
 107.2122892  83.4378269 111.5229834 104.2305754 102.4208167 103.5980197
 103.6579721 103.0398354 103.1450668 104.8038548 102.9707529 104.1320119
 110.2981144  91.6666807 115.7826745 111.2498567  91.7664905 115.8038969
 110.1284594  90.8745076 116.2924830 108.3195523  88.7522390 115.9686146
 107.7245455  89.0327403 115.2732635 108.0345220  89.2416291 116.7402887
 107.4503014 102.7045317 104.7288779 108.3833687 102.6390879 104.9321654
 107.3626227 103.5401584 104.2703312 110.0791030 102.0211187 101.6892726
 110.0004662 101.6871051 102.5828484 110.9000697 102.5132955 101.6884199
 112.7769222  94.8872927 114.8969045 112.7445542  93.9488928 115.0828729
 113.3869845  94.9656963 114.1634870 104.6152552  93.7568980 100.9396249
 105.5611657  93.6275188 101.0084667 104.2366797  93.0183642 101.4165677
 112.9263710  91.6783970 114.9427328 112.4102759  90.8942427 114.7557257
 113.8103659  91.3502687 115.1073848 110.5874437  85.4224986 110.9023141
 110.3899258  85.1140074 111.7866473 111.1974143  86.1486625 111.0321071
 118.5945771  95.9488934 114.0375082 119.3249160  95.6874222 114.5982785
 117.9852717  95.2117656 114.0777150 116.6761069  94.0896796 114.6349533
 115.9494232  93.9552761 114.0266025 116.2608355  94.3973625 115.4406251
 104.4991245  97.8086726 122.3996906 105.4194254  97.9865325 122.5936953
 104.4640828  96.8642771 122.2476605 102.7995470  91.6818956 100.8751134
 101.8926925  91.3852069 100.9513848 103.0771451  91.3848774 100.0085421
  93.7173410  93.0025320 111.3250181  93.3976194  92.1490628 111.0324555
  93.1706838  93.2173898 112.0808148  97.4953318  95.7187761 115.0419687
  97.7139327  96.6504868 115.0607721  97.9079091  95.3595735 115.8274491
 104.4157535  86.2255846 107.0295376 103.6058264  85.8802931 107.4050622
 105.1041952  85.9163390 107.6182987 106.3448084  85.3033893 108.6519672
 106.8979122  85.7229346 109.3109695 106.5818170  84.3769641 108.6942628
 102.3681183  91.2920966 124.4322436 102.2677910  92.2415323 124.3634527
 102.1502725  90.9639205 123.5598506 101.5694254  88.5405891 101.0163114
 102.4313418  88.8660790 101.2758931 101.7544598  87.7537387 100.5036179
  93.5861670  96.6228231 113.2943302  92.8925141  96.2082184 112.7813257
  94.3334661  96.6648768 112.6976721 109.7226891  87.4134418 108.1598337
 109.1425560  88.0719222 107.7776389 109.4562823  86.5911762 107.7485754
 108.1730457  86.8139476 110.3619657 108.6730235  86.9256010 109.5533976
 108.8166065  86.5100528 111.0020465 102.2312453  94.7218105 123.2487498
 101.7479535  95.5218465 123.4551387 102.3173392  94.7326050 122.2954942
  95.4998413  96.5546485 111.1709317  95.4769101  96.6534172 110.2191200
  95.8099049  97.4011636 111.4926483  98.1585790  98.6122640 115.2855932
  99.1129044  98.5806582 115.2185863  97.9598314  98.1513264 116.1006158
  98.7485173  97.1823756 117.8526729  99.5678062  97.6767835 117.8761567
  99.0221980  96.2655724 117.8244297 108.5051769  89.5734508 107.2154685
 107.6177624  89.8584159 106.9974880 108.9205758  89.4128272 106.3681962
 111.8566305  89.5981029 110.9309024 112.6326695  90.0877482 111.2033641
 111.1314439  90.0239083 111.3880894 114.2938863  90.3108648 111.9882965
 114.8883354  90.0704384 111.2776273 114.3665447  89.5915779 112.6156501
  96.5136019 104.1542259 112.3026129  96.3790487 103.3942660 111.7364128
  96.0968081 104.8783159 111.8354918 107.6494982  99.3379183 101.3102705
 108.3530832  99.5429185 101.9260360 106.9257631  99.9055945 101.5751788
 108.4792792  95.0889044 107.4304975 108.4227994  95.5457596 106.5912607
 109.0321135  94.3279729 107.2527818 112.2897598  90.8778776 108.2555094
 112.0334533  90.4775412 109.0863302 111.6650466  91.5922570 108.1305234
 116.6009936  93.6174849 110.7626386 116.0409494  93.6868039 111.5357948
 115.9953440  93.4415834 110.0425882  99.6705145 105.0511576 112.5144572
  99.5537529 105.9957009 112.4123262  98.8497591 104.7485138 112.9030371
 109.5581680  99.7761712 103.3601165 110.3927284  99.3442911 103.1778640
 109.3966023  99.6043726 104.2878059 109.2127572  96.2793825 104.7257504
 109.1576376  96.1138097 103.7845948 108.5873627  96.9869858 104.8819694
  94.0020087  91.5161890 118.5518926  94.6478950  91.0060844 119.0406152
  93.7937238  92.2530571 119.1262352 106.5273479  98.5842737 124.0511067
 107.3964639  98.7583390 123.6897702 106.0480230  99.4037154 123.9286796
 102.5223697  85.7801934 104.3042823 102.5102367  86.7243774 104.4611093
 103.4147119  85.5972080 104.0102284 100.6959659 105.7039838 115.7300501
 101.5986906 105.7363449 116.0466996 100.4697029 104.7740289 115.7446836
 102.4513261 104.4570825 112.3910579 101.5008892 104.4572686 112.2774951
 102.7545747 103.7103559 111.8746614 106.3375817  82.3744711 108.5588759
 105.5708212  81.8203198 108.7045442 106.7486522  82.4466580 109.4202911
  98.3417578  88.6629507 122.6493941  99.2049039  88.3066312 122.8597265
  97.7682988  88.3243402 123.3369345 118.1865955 110.2931363 113.4556342
 118.8244365 110.1738111 112.7519682 118.0686798 111.2412207 113.5144294
 114.9955661 110.2458791 113.3917866 114.6574172 110.1299856 112.5038401
 115.8645429 109.8449956 113.3718872 110.8542477 112.0994268 109.3814757
 110.2907342 112.0084205 108.6131045 110.7394872 111.2794172 109.8617250
 108.4006909 113.5945459 112.2198978 109.1928201 113.2536284 111.8045277
 108.6403559 113.7040434 113.1401131 116.4342035 115.7665235 104.6929222
 115.7830015 116.3519316 104.3063236 117.2286398 116.2971430 104.7524260
 110.3597663 112.8554373 105.0916356 111.1328539 112.3083360 104.9529232
 110.7123061 113.7198622 105.3030818 113.1238912 111.5607603 114.8884615
 113.7202484 111.3363626 114.1741578 113.1813883 110.8192349 115.4910063
 112.6963940 109.0147039 102.7234806 112.9489461 108.4928560 101.9618269
 111.7588499 108.8513184 102.8261490 117.7407223 108.0182817 110.5309550
 118.5270312 107.6002240 110.1799967 118.0045927 108.9228909 110.6991198
 117.9117301 113.4555667 105.2298206 117.2763134 113.5290294 105.9419111
 117.5814707 114.0449266 104.5517286 123.1415650 107.9558050 111.4342528
 123.8740822 107.3857267 111.6680358 122.3855006 107.5679651 111.8749034
 112.4160229 110.9175145 104.9259181 112.2996487 110.2420048 105.5940266
 112.5262489 110.4307519 104.1091334 114.7591770 110.3785292 108.6305871
 114.3949977 109.8515913 109.3418792 115.6158886 109.9883761 108.4572356
 120.6641071 101.6679624 115.8937137 120.3324395 102.5375035 115.6698352
 120.0686684 101.3515908 116.5731167 114.3997257 105.4075191 103.6267219
 114.5671659 106.2755428 103.9937690 114.2094426 105.5702473 102.7028508
 117.1572590 113.8692170 115.2933049 116.8573313 114.7717209 115.1848857
 116.8123650 113.6024354 116.1454202 110.6085072 110.3205967 111.3269754
 109.6835568 110.1882181 111.5347446 110.8569485 111.1000186 111.8239696
 120.5569734 106.3874711 112.9730487 119.6486611 106.3190119 112.6789248
 120.5057330 106.8646655 113.8012312 114.3786478 107.8632849 104.6113886
 114.2586103 108.3089900 105.4499366 113.6839066 108.2118167 104.0527424
 107.9693883 109.9639241 112.1613543 108.0986264 110.2173720 113.0752955
 107.2891334 110.5566949 111.8418198 112.1393370 120.6336491 108.2604017
 112.0617400 121.5844316 108.3392498 111.5355014 120.2882363 108.9178943
 122.4231380 104.5891149 114.7508361 121.7805761 104.8823682 114.1048155
 121.9186309 104.4744069 115.5561557 120.0771544 108.3354322 105.4394220
 120.9889400 108.5681709 105.2641918 119.5681191 108.9191366 104.8769299
 112.8856972 110.6149809 120.4783351 113.6271656 111.1534853 120.2018175
 112.1793958 111.2416098 120.6354903 114.7143382 107.6951557 116.4489069
 115.5604577 108.1190970 116.5923718 114.6542019 107.0385181 117.1427633
 118.6841126 113.3180141 112.8307801 118.0549989 113.4825855 112.1283869
 118.2966788 113.7321750 113.6018765 122.5630358 114.2534578 110.1852165
 121.8781396 114.6333480 109.6349198 122.6474208 114.8629905 110.9184113
 117.8642827 105.3555925 118.1070243 117.6203759 106.1097986 117.5704519
 118.1402758 105.7341273 118.9417490 119.8181290 111.8994537 116.7847509
 120.0298185 112.5426297 116.1081890 119.7711038 111.0656854 116.3169439
 117.4207519 104.5112358 113.6884081 116.5591998 104.8093612 113.9800818
 117.4469953 104.7282757 112.7565113 114.2369088 113.0554549 110.0957887
 114.7007434 113.3342252 109.3062509 113.9725886 112.1537993 109.9130977
 111.1293169 112.6026030 113.0337650 111.6994526 113.0313299 112.3955134
 111.7201281 112.3208615 113.7321835 113.1737974 109.1777701 106.9047452
 113.8762018 109.6298745 107.3721378 112.8418603 108.5361520 107.5327345
 111.6218336 107.7689458 121.2798661 110.9916996 108.4505738 121.5134058
 111.5154424 107.6572539 120.3351799 106.9163308 107.4361254 112.2064585
 106.1262362 107.6918782 111.7304696 107.4074556 108.2509592 112.3116626
 108.8678054 107.8005833 109.1648062 108.0709217 107.9124527 109.6831558
 108.6403646 108.1392485 108.2988952 105.2001011 107.6891744 114.6379576
 105.4509050 108.5738754 114.9037152 105.7360560 107.5096346 113.8654668
 129.0233111 111.1205241 111.3054838 128.2696819 110.5512639 111.1498842
 129.1580652 111.0867906 112.2525472 114.4131739 115.9918644 106.9809557
 114.2777414 116.8370179 107.4094405 114.9541551 116.1937921 106.2175491
 110.8999079 102.0710223 123.6423912 110.5066024 101.5176422 124.3171556
 111.7165219 102.3820802 124.0330430 107.8661136 113.5094082 107.5537482
 108.3785657 114.3037332 107.7043047 108.5183849 112.8120372 107.4871083
 109.6756021 116.6259838 109.6360235 109.8522649 117.5477803 109.4481219
 110.4712855 116.3118257 110.0654615 113.8167040 103.4868103 121.2344169
 114.5576753 104.0875256 121.1548631 114.0484962 102.7445740 120.6762211
 108.9608378 108.6724470 119.5122398 108.8461893 107.7709727 119.8129497
 108.1052895 108.9188167 119.1607215 110.7987336 118.1438012 115.6370577
 111.3494762 118.0155075 114.8647571 109.9598812 118.4432901 115.2865470
 117.7624202  99.5149206 115.5108450 117.4188472 100.4050847 115.4347561
 118.1303165  99.3250863 114.6478035 105.8310053 111.8382736 108.3297052
 106.6685275 112.2479744 108.1130760 106.0088321 110.8982178 108.2997246
 117.7274485 109.5057817 104.0180885 117.2121109 110.2762421 104.2569273
 117.4551794 108.8322953 104.6413947 115.3121596 104.3507517 109.0766124
 114.4563193 103.9614368 108.8971763 115.7248548 104.4299478 108.2165909
 116.8420743 101.8853861 113.4757684 116.3385538 101.8483996 112.6625489
 117.1351350 102.7946603 113.5354340 113.0863629 101.9692590 112.4823865
 113.9516626 101.7735399 112.1229755 113.1541138 101.7402942 113.4093222
 122.7008759 112.2590171 105.9534059 121.9238202 111.9201331 105.5089221
 123.3800240 112.2642794 105.2789024 117.5160788 107.3784909 105.8440667
 117.2110924 107.6931058 106.6950810 118.4691230 107.4566329 105.8868000
 115.9607220 113.5375132 107.4933621 115.4328582 112.8027892 107.1806858
 115.4594723 114.3149808 107.2473589 120.9400066 111.7324153 112.6100667
 120.2823741 112.4223414 112.6980796 121.7440465 112.1220584 112.9534653
 110.6925948 104.1994798 109.8540232 111.2669700 103.9769980 109.1213425
 111.2796930 104.2683493 110.6068833 119.7505525 110.0868525 110.6604609
 120.2637407 110.7198517 111.1626318 120.4006749 109.4869721 110.2947969
 111.0195535 106.2299259 103.8736117 110.1832847 106.5673946 104.1945392
 110.8800305 106.0948239 102.9363254 112.9948616 101.0736047 108.5815302
 112.3413028 100.7585064 107.9571916 112.9529090 100.4511788 109.3075124
 114.1059820 111.3555342 100.4968594 113.1986882 111.1244596 100.6959743
 114.6030852 110.5592962 100.6842575 117.0127899 120.0652849 103.4165280
 116.3389598 120.3684546 104.0250238 117.3993721 120.8681930 103.0670737
 116.2286356 107.5617981 112.9062949 115.3108917 107.7832928 112.7484637
 116.6446500 107.6364291 112.0474657 117.0121404 108.9609396 108.0365629
 117.7593223 109.4730794 107.7272751 117.2812993 108.6393449 108.8970023
 115.2848054 111.4567937 105.0192584 114.3759273 111.1726970 105.1165053
 115.3143138 111.8767016 104.1595891 120.5167321 115.0674527 108.7883751
 120.0629648 114.2265437 108.8448942 119.8861288 115.7035925 109.1258531
 119.4600241 105.9966513 110.0184419 118.7222998 105.4843899 110.3494661
 119.7127014 105.5566894 109.2067696 118.9600260 116.9051023 109.7233569
 119.2523235 117.4656080 109.0045935 119.4698881 117.1979584 110.4786729
 119.5611868  98.7742765 110.6126188 119.8670745  97.9140128 110.3252103
 120.2864473  99.3660385 110.4125182 105.8536224 109.1773451 109.0007786
 105.6560624 108.5842812 108.2758853 105.2982888 108.8725661 109.7183725
 113.8332948 109.0696558 111.1202379 113.8881558 108.1170394 111.0444856
 113.0224150 109.2255997 111.6043678 114.9824142 112.9976681 102.3580662
 114.5443572 112.2812540 101.8986300 115.7234582 113.2252796 101.7965754
 111.7725308 107.6873618 108.8792758 110.9593173 107.9867788 109.2857950
 112.2684302 107.2929306 109.5967240 113.9233886 117.6831374 110.8127023
 113.8810064 117.9092221 109.8835555 114.8396585 117.4494749 110.9612824
 117.3699519 108.1515442 117.7107652 117.7248907 108.3786915 118.5702118
 118.0171651 108.4833819 117.0884907 123.0997256 111.2733878 108.4156981
 122.9615155 111.4635474 107.4878170 122.7433475 112.0353261 108.8725032
 111.2639383 105.2591973 114.4953993 111.9038762 105.1180732 113.7976956
 110.4316913 104.9726486 114.1192595 123.1266636 113.3410405 113.4268252
 123.5603143 113.2485694 114.2751306 123.8398217 113.3167905 112.7888268
 112.0399686 114.5594403 110.6088985 112.8340285 114.0644724 110.4071560
 111.3291379 114.0312267 110.2456691 108.3482450 108.7037485 106.6848738
 107.4180038 108.6421941 106.9018700 108.4439922 108.1813438 105.8885379
 108.2667999 105.2292298 109.2726980 108.5274816 106.1437631 109.1636140
 109.0885171 104.7616741 109.4223593 109.7392924 106.6430055 116.4425804
 110.4115978 106.4347417 115.7938453 108.9122711 106.4452141 116.0031037
 115.6418496 103.2691996 118.4591465 114.9946411 103.9681946 118.3655942
 116.4119512 103.7028140 118.8267713 115.8182631 111.1072761 116.5188285
 116.7474691 111.2583921 116.3457252 115.3973661 111.1956782 115.6636931
 114.6170962 115.1323425 114.2886822 114.4782048 114.7642210 115.1612761
 113.8285559 115.6471065 114.1170780 115.2119114 120.2332522 105.6312359
 115.3870870 119.7620565 106.4457982 114.5251902 120.8598288 105.8593620
 116.1676178 114.5105028 111.6775660 115.8326010 114.4705798 112.5733310
 115.6680123 113.8449744 111.2046070 110.1420422 109.9172658 117.2028241
 110.0040219 109.1852897 117.8039780 111.0525345 109.8281558 116.9212429
 119.1035369 111.8561062 101.9512720 118.4864540 111.1307891 101.8545773
 118.6351858 112.6170423 101.6079794 112.7702722 109.6292617 116.6911921
 113.4802341 108.9885810 116.6498539 112.7272030 109.8805512 117.6138102
 111.4831656 106.6157835 118.5107561 110.9469013 106.1648574 119.1629157
 110.8948365 106.7503744 117.7678025 109.7780200 123.3821885 112.4052219
 110.0176798 124.0140409 113.0831238 108.9349396 123.0309925 112.6917578
 110.8933915 106.0746487 101.0734024 110.0163381 105.9535288 100.7096271
 111.3691668 105.2832565 100.8212913 102.4136055 110.8623647 111.1675531
 103.1007095 110.5485377 110.5796547 102.2584184 111.7665011 110.8942783
 107.2170777 105.7513843 115.5960555 107.1328966 105.1439513 114.8610965
 106.3953484 106.2422861 115.5970051 114.0797841 118.4272777 108.3196545
 113.2965363 118.9694457 108.4134769 114.7790586 118.9446757 108.7190786
 117.3894491 104.2367407 110.9630750 117.8863191 103.4837369 110.6431820
 116.6181473 104.2731723 110.3973959 125.2424249 109.9407772 112.6049042
 125.2314125 110.8232488 112.2342975 124.3741628 109.5879323 112.4103579
 118.4724272 112.9939094 108.5369173 117.5380551 113.1140556 108.3673878
 118.6500940 112.0911561 108.2729183 113.9729460 106.3784790 110.6902435
 113.6027248 105.8255830 111.3783340 114.4688553 105.7742923 110.1377435
 121.8596823 108.8356413 109.0719208 122.3257276 109.6684405 108.9979510
 122.3104324 108.3701395 109.7764466 119.9273054 115.1800234 106.0705360
 120.2032898 115.0656829 106.9799234 119.0577553 114.7817719 106.0317533
 119.8313486 101.2037000 113.1110109 118.9176566 101.4341227 113.2792316
 120.2606588 101.2875444 113.9624141 119.6019945 109.3926892 115.6110003
 118.9491395 109.6402800 114.9562456 119.9800324 108.5791030 115.2772480
 116.5627118 119.4286585 109.7138173 116.7449513 118.6108241 110.1765926
 117.3860104 119.6454277 109.2763063 116.8969284 118.3554770 106.9753222
 117.4257050 117.8447225 106.3623384 117.1597504 118.0397301 107.8398755
 107.3986377 116.3718640 114.7188555 107.9839813 115.6262328 114.8516460
 107.2011215 116.6822596 115.6025219 110.2525032 119.4069887 109.7350998
 109.5835407 119.8916015 109.2515038 110.1137902 119.6539108 110.6494376
 101.9904031 108.9424240 113.4392998 102.0288131 108.4087831 114.2330117
 101.4844324 108.4159445 112.8203976 109.3694794 103.7888780 116.9355541
 109.4336120 104.6503611 116.5232938 109.3061914 103.1762782 116.2027899
 108.8447066 105.8611913 120.5828575 109.4719105 105.4788990 121.1966099
 107.9874985 105.6426115 120.9484268 105.6212609 107.6688342 106.5146930
 105.9166050 106.7599020 106.4613984 104.7200645 107.6476081 106.1927932
 117.5298688 119.3895606 113.3197338 117.4049827 118.5885346 112.8108284
 118.1877779 119.8841799 112.8311308 109.1506856 105.7444339 112.4974478
 108.4293442 106.3580306 112.3581952 109.9400112 106.2802103 112.4191124
 111.9533170 103.0798765 118.7715130 112.4767571 103.3261062 119.5341440
 111.7345503 103.9118800 118.3518268 107.3500451 105.3502440 106.6386255
 107.0213157 104.4699819 106.4561361 107.7039821 105.2950108 107.5262644
 116.5980029 116.9857342 111.1481241 116.4504992 116.0574050 111.3288811
 117.4233523 117.0077433 110.6638316 110.4642274 105.6375409 107.0061733
 110.8038346 106.1661331 106.2840341 110.9114394 105.9755816 107.7820299
 120.2014151 117.8085901 112.2346113 121.1260699 117.6028762 112.0970564
 120.0329455 117.5602302 113.1435455 113.1585715 104.0212460 116.4564801
 112.8182535 103.2220273 116.8585481 112.4524721 104.3214171 115.8841634
 113.8102186 101.1061773 114.9092124 114.6328256 100.6322251 114.7871014
 114.0540250 101.8852256 115.4090810 112.4510421 104.1350031 105.2055025
 113.1718783 104.5131284 104.7018742 111.8275725 104.8538908 105.3090003
 116.5941544 104.8395180 106.1413358 116.8105158 105.7219818 105.8402186
 116.1135611 104.4481393 105.4119000 111.3340765 107.7980893 112.7184102
 111.1885346 108.1121196 113.6108384 110.8565969 108.4165794 112.1655001
 113.1937148 104.7883441 112.7664992 113.1798717 103.8924535 112.4297290
 113.9109576 104.7954105 113.4003278 115.0463279 105.2220781 114.8118119
 114.7881057 106.1437852 114.8102450 114.5148319 104.8251216 115.5018583
 119.9909468 118.3271569 107.5908205 120.1646345 117.7617991 106.8382057
 120.4838359 119.1272463 107.4087695 105.8086427 110.3386238 115.6571764
 105.2639895 111.1146046 115.7892038 106.6865777 110.6857042 115.4990885
 112.5974044 103.6697822 108.0352562 112.7189955 102.7414468 108.2343450
 112.3076086 103.6836508 107.1230877 115.4665234 101.3552732 111.1719282
 115.4886931 101.4192065 110.2171261 115.8833293 100.5157241 111.3659788
 125.8448859 111.0907992 109.2098504 126.2880005 110.3415317 108.8117628
 124.9675369 111.0818128 108.8272236 120.9784640 117.6438333 104.6905103
 121.6735545 118.2645026 104.9092418 121.3207790 116.7933684 104.9657481
 106.5952449 109.4656134 118.5501920 105.8534185 109.6138769 119.1366551
 106.2745193 109.7264400 117.6868670 122.8776063 115.0938039 106.2192434
 123.4027387 115.4325311 105.4941754 122.7898416 114.1585054 106.0355568
 114.5616724 121.1610022 110.5787687 114.1221714 120.6686400 111.2720544
 115.3124841 120.6182989 110.3379762 107.0409063 117.3521563 110.5812315
 107.8667083 117.0525335 110.2010959 106.6903115 116.5829185 111.0302104
 112.0090596 116.7048031 112.6509989 111.3870605 116.0418736 112.3512217
 112.6795463 116.7309163 111.9683636 105.2417668 115.2707889 111.5401249
 104.4049576 114.8430063 111.3585250 105.2141313 115.4640332 112.4772040
 112.0815124 105.1829819 122.2442495 112.1303279 106.0591942 121.8620264
 112.6237638 104.6407212 121.6714138 111.5704103 115.2551954 106.1268449
 111.7192223 115.9387419 105.4735122 112.3770546 115.2357044 106.6417905
 114.3114412 105.9361191 118.9988853 113.4417721 106.2294757 118.7271442
 114.5473892 106.5201636 119.7196117 125.3881723 112.5613230 111.6020952
 126.2228615 113.0003034 111.7658512 125.5240852 112.0851883 110.7829198
 109.3256736 111.2817132 107.1329518 109.0802778 110.3779462 107.3309728
 109.4952650 111.2834282 106.1908996 117.0153446 102.1540808 116.5154274
 117.5335390 102.8901835 116.1900762 116.6608579 102.4604802 117.3501033
 108.5952383 107.0145489 104.6315680 107.9021628 107.0889844 103.9755716
 108.3504135 106.2505833 105.1537196 117.2666040  98.5741091 112.0355170
 117.5467794  97.9064280 112.6615597 118.0516647  98.7670186 111.5229834
 115.0699508 117.7500085 103.5980197 114.4973476 118.3690272 103.1450668
 115.6432302 118.2999446 104.1320119 121.1374898 106.9958725 115.7826745
 122.0892321 107.0956822 115.8038969 120.9678349 106.2036993 116.2924830
 119.1589278 104.0814308 115.9686146 118.5639210 104.3619321 115.2732635
 118.8738974 104.5708209 116.7402887 118.2896768 118.0337235 104.7288779
 119.2227441 117.9682796 104.9321654 118.2019981 118.8693502 104.2703312
 120.9184785 117.3503105 101.6892726 120.8398416 117.0162969 102.5828484
 121.7394452 117.8424873 101.6884199 123.6162976 110.2164844 114.8969045
 123.5839296 109.2780845 115.0828729 124.2263600 110.2948881 114.1634870
 115.4546307 109.0860897 100.9396249 116.4005412 108.9567106 101.0084667
 115.0760552 108.3475559 101.4165677 123.7657465 107.0075888 114.9427328
 123.2496513 106.2234345 114.7557257 124.6497413 106.6794605 115.1073848
 121.4268191 100.7516903 110.9023141 121.2293013 100.4431992 111.7866473
 122.0367897 101.4778542 111.0321071 127.5154823 109.4188714 114.6349533
 126.7887987 109.2844679 114.0266025 127.1002110 109.7265542 115.4406251
 113.6389224 107.0110874 100.8751134 112.7320679 106.7143987 100.9513848
 113.9165205 106.7140692 100.0085421 104.5567164 108.3317237 111.3250181
 104.2369949 107.4782545 111.0324555 104.0100593 108.5465815 112.0808148
 108.3347072 111.0479678 115.0419687 108.5533082 111.9796786 115.0607721
 108.7472846 110.6887653 115.8274491 115.2551290 101.5547764 107.0295376
 114.4452018 101.2094849 107.4050622 115.9435707 101.2455307 107.6182987
 117.1841838 100.6325810 108.6519672 117.7372877 101.0521264 109.3109695
 117.4211924  99.7061558 108.6942628 112.4088009 103.8697809 101.0163114
 113.2707173 104.1952707 101.2758931 112.5938353 103.0829305 100.5036179
 104.4255424 111.9520149 113.2943302 103.7318896 111.5374102 112.7813257
 105.1728415 111.9940685 112.6976721 120.5620645 102.7426335 108.1598337
 119.9819314 103.4011140 107.7776389 120.2956578 101.9203680 107.7485754
 119.0124212 102.1431393 110.3619657 119.5123990 102.2547928 109.5533976
 119.6559819 101.8392446 111.0020465 106.3392167 111.8838402 111.1709317
 106.3162855 111.9826090 110.2191200 106.6492803 112.7303553 111.4926483
 108.9979545 113.9414558 115.2855932 109.9522798 113.9098500 115.2185863
 108.7992068 113.4805181 116.1006158 109.5878927 112.5115674 117.8526729
 110.4071816 113.0059752 117.8761567 109.8615735 111.5947642 117.8244297
 119.3445523 104.9026426 107.2154685 118.4571378 105.1876076 106.9974880
 119.7599512 104.7420189 106.3681962 122.6960059 104.9272947 110.9309024
 123.4720449 105.4169399 111.2033641 121.9708194 105.3531001 111.3880894
 125.1332618 105.6400566 111.9882965 125.7277109 105.3996302 111.2776273
 125.2059202 104.9207697 112.6156501 107.3529774 119.4834177 112.3026129
 107.2184242 118.7234578 111.7364128 106.9361836 120.2075077 111.8354918
 118.4888737 114.6671101 101.3102705 119.1924587 114.8721103 101.9260360
 117.7651385 115.2347862 101.5751788 119.3186547 110.4180962 107.4304975
 119.2621748 110.8749513 106.5912607 119.8714889 109.6571646 107.2527818
 123.1291353 106.2070694 108.2555094 122.8728287 105.8067329 109.0863302
 122.5044221 106.9214488 108.1305234 127.4403691 108.9466767 110.7626386
 126.8803249 109.0159956 111.5357948 126.8347194 108.7707752 110.0425882
 110.5098900 120.3803494 112.5144572 110.3931284 121.3248927 112.4123262
 109.6891346 120.0777056 112.9030371 120.3975434 115.1053630 103.3601165
 121.2321038 114.6734828 103.1778640 120.2359777 114.9335643 104.2878059
 120.0521326 111.6085743 104.7257504 119.9970130 111.4430014 103.7845948
 119.4267382 112.3161776 104.8819694 104.8413841 106.8453807 118.5518926
 105.4872705 106.3352761 119.0406152 104.6330992 107.5822489 119.1262352
 113.3617452 101.1093852 104.3042823 113.3496122 102.0535692 104.4611093
 114.2540874 100.9263997 104.0102284 113.2907016 119.7862742 112.3910579
 112.3402647 119.7864604 112.2774951 113.5939502 119.0395477 111.8746614
 117.1769571  97.7036629 108.5588759 116.4101967  97.1495115 108.7045442
 117.5880276  97.7758497 109.4202911 109.1811332 103.9921425 122.6493941
 110.0442794 103.6358229 122.8597265 108.6076743 103.6535319 123.3369345
 121.1991417 128.1846290 105.0916356 121.9722293 127.6375277 104.9529232
 121.5516816 129.0490540 105.3030818 123.5357695 124.3438956 102.7234806
 123.7883216 123.8220478 101.9618269 122.5982254 124.1805102 102.8261490
 123.2553984 126.2467062 104.9259181 123.1390242 125.5711966 105.5940266
 123.3656243 125.7599436 104.1091334 125.2391011 120.7367109 103.6267219
 125.4065414 121.6047346 103.9937690 125.0488181 120.8994391 102.7028508
 125.2180232 123.1924767 104.6113886 125.0979858 123.6381817 105.4499366
 124.5232821 123.5410084 104.0527424 130.9165299 123.6646240 105.4394220
 131.8283155 123.8973627 105.2641918 130.4074946 124.2483284 104.8769299
 124.0131729 124.5069619 106.9047452 124.7155772 124.9590662 107.3721378
 123.6812357 123.8653438 107.5327345 119.7071808 123.1297751 109.1648062
 118.9102971 123.2416445 109.6831558 119.4797400 123.4684403 108.2988952
 116.6703808 127.1674654 108.3297052 117.5079030 127.5771662 108.1130760
 116.8482075 126.2274096 108.2997246 128.5668240 124.8349734 104.0180885
 128.0514863 125.6054339 104.2569273 128.2945548 124.1614870 104.6413947
 126.1515351 119.6799435 109.0766124 125.2956947 119.2906285 108.8971763
 126.5642302 119.7591396 108.2165909 128.3554543 122.7076826 105.8440667
 128.0504678 123.0222976 106.6950810 129.3084985 122.7858246 105.8868000
 121.5319702 119.5286716 109.8540232 122.1063454 119.3061897 109.1213425
 122.1190685 119.5975411 110.6068833 121.8589289 121.5591177 103.8736117
 121.0226602 121.8965864 104.1945392 121.7194059 121.4240157 102.9363254
 123.8342370 116.4027965 108.5815302 123.1806782 116.0876982 107.9571916
 123.7922844 115.7803705 109.3075124 124.9453575 126.6847260 100.4968594
 124.0380637 126.4536513 100.6959743 125.4424607 125.8884879 100.6842575
 126.1241808 126.7859855 105.0192584 125.2153028 126.5018888 105.1165053
 126.1536892 127.2058933 104.1595891 130.4005623 114.1034682 110.6126188
 130.7064499 113.2432046 110.3252103 131.1258227 114.6952303 110.4125182
 116.6929979 124.5065369 109.0007786 116.4954379 123.9134730 108.2758853
 116.1376643 124.2017579 109.7183725 125.8217896 128.3268599 102.3580662
 125.3837326 127.6104457 101.8986300 126.5628337 128.5544713 101.7965754
 122.6119062 123.0165535 108.8792758 121.7986928 123.3159706 109.2857950
 123.1078056 122.6221224 109.5967240 119.1876204 124.0329403 106.6848738
 118.2573793 123.9713858 106.9018700 119.2833676 123.5105356 105.8885379
 119.1061753 120.5584216 109.2726980 119.3668571 121.4729549 109.1636140
 119.9278926 120.0908658 109.4223593 129.9429124 127.1852980 101.9512720
 129.3258294 126.4599808 101.8545773 129.4745612 127.9462340 101.6079794
 121.7327670 121.4038404 101.0734024 120.8557136 121.2827205 100.7096271
 122.2085423 120.6124483 100.8212913 113.2529810 126.1915564 111.1675531
 113.9400850 125.8777294 110.5796547 113.0977938 127.0956929 110.8942783
 116.4606363 122.9980260 106.5146930 116.7559805 122.0890938 106.4613984
 115.5594399 122.9767999 106.1927932 118.1894205 120.6794357 106.6386255
 117.8606911 119.7991736 106.4561361 118.5433576 120.6242026 107.5262644
 121.3036028 120.9667327 107.0061733 121.6432101 121.4953248 106.2840341
 121.7508149 121.3047733 107.7820299 123.2904175 119.4641949 105.2055025
 124.0112538 119.8423202 104.7018742 122.6669479 120.1830826 105.3090003
 127.4335298 120.1687098 106.1413358 127.6498913 121.0511736 105.8402186
 126.9529365 119.7773311 105.4119000 123.4367798 118.9989739 108.0352562
 123.5583710 118.0706385 108.2343450 123.1469841 119.0128425 107.1230877
 126.3058989 116.6844650 111.1719282 126.3280686 116.7483983 110.2171261
 126.7227048 115.8449158 111.3659788 120.1650490 126.6109050 107.1329518
 119.9196532 125.7071380 107.3309728 120.3346405 126.6126200 106.1908996
 119.4346138 122.3437407 104.6315680 118.7415383 122.4181762 103.9755716
 119.1897890 121.5797751 105.1537196 128.1059794 113.9033008 112.0355170
 128.3861548 113.2356198 112.6615597 128.8910401 114.0962104 111.5229834
 126.2940061 124.4152815 100.9396249 127.2399166 124.2859023 101.0084667
 125.9154306 123.6767477 101.4165677 124.4782979 122.3402791 100.8751134
 123.5714434 122.0435904 100.9513848 124.7558960 122.0432610 100.0085421
 115.3960919 123.6609155 111.3250181 115.0763703 122.8074463 111.0324555
 114.8494347 123.8757733 112.0808148 126.0945044 116.8839681 107.0295376
 125.2845773 116.5386766 107.4050622 126.7829461 116.5747225 107.6182987
 128.0235593 115.9617728 108.6519672 128.5766631 116.3813181 109.3109695
 128.2605679 115.0353476 108.6942628 123.2481763 119.1989727 101.0163114
 124.1100927 119.5244625 101.2758931 123.4332107 118.4121223 100.5036179
 131.4014400 118.0718253 108.1598337 130.8213069 118.7303057 107.7776389
 131.1350332 117.2495598 107.7485754 130.1839278 120.2318344 107.2154685
 129.2965133 120.5167994 106.9974880 130.5993267 120.0712107 106.3681962
 129.3282491 129.9963018 101.3102705 130.0318341 130.2013021 101.9260360
 128.6045140 130.5639780 101.5751788 124.2011206 116.4385770 104.3042823
 124.1889876 117.3827610 104.4611093 125.0934628 116.2555915 104.0102284
 128.0163326 113.0328546 108.5588759 127.2495721 112.4787033 108.7045442
 128.4274031 113.1050415 109.4202911  53.1503429  -4.6758020 100.1801648
  53.7881839  -4.7951273  99.4764988  53.0324272  -3.7277176 100.2389600
  49.9593135  -4.7230592 100.1163173  49.6211647  -4.8389527  99.2283708
  50.8282903  -5.1239427 100.0964179  45.8179951  -2.8695116  96.1060064
  45.2544816  -2.9605179  95.3376352  45.7032346  -3.6895211  96.5862556
  50.4412918  -3.5695740 106.0749378  50.4301559  -3.9642942 105.2029882
  50.6033558  -4.3029668 106.6683150  43.3644383  -1.3743924  98.9444284
  44.1565675  -1.7153100  98.5290584  43.6041033  -1.2648949  99.8646438
  51.3979510   0.7975852  91.4174529  50.7467489   1.3829932  91.0308543
  52.1923872   1.3282047  91.4769566  45.3235137  -2.1135011  91.8161663
  46.0966013  -2.6606024  91.6774539  45.6760536  -1.2490762  92.0276124
  47.1620179  -0.7858629 105.0228562  46.8710045   0.1187002 104.9075229
  47.7977164  -0.7442101 105.7372632  48.0876386  -3.4081780 101.6129922
  48.6839959  -3.6325758 100.8986885  48.1451358  -4.1497035 102.2155370
  47.6601415  -5.9542345  89.4480113  47.9126935  -6.4760824  88.6863576
  46.7225974  -6.1176199  89.5506797  52.7044697  -6.9506566  97.2554856
  53.4907787  -7.3687143  96.9045273  52.9683402  -6.0460474  97.4236505
  52.8754775  -1.5133716  91.9543513  52.2400608  -1.4399090  92.6664418
  52.5452181  -0.9240117  91.2762592  58.1053125  -7.0131333  98.1587835
  58.8378297  -7.5832116  98.3925664  57.3492480  -7.4009733  98.5994340
  47.3797703  -4.0514239  91.6504488  47.2633962  -4.7269335  92.3185572
  47.4899963  -4.5381865  90.8336641  49.7229244  -4.5904092  95.3551177
  49.3587452  -5.1173471  96.0664099  50.5796360  -4.9805623  95.1817663
  49.3634731  -9.5614192  90.3512526  49.5309134  -8.6933956  90.7182997
  49.1731900  -9.3986910  89.4273815  52.1210064  -1.0997213 102.0178356
  51.8210788  -0.1972174 101.9094163  51.7761124  -1.3665030 102.8699509
  45.5722546  -4.6483416  98.0515061  44.6473042  -4.7807202  98.2592752
  45.8206959  -3.8689197  98.5485003  55.5207208  -8.5814673  99.6975793
  54.6124086  -8.6499265  99.4034554  55.4694804  -8.1042728 100.5257619
  49.3423952  -7.1056535  91.3359193  49.2223577  -6.6599484  92.1744673
  48.6476541  -6.7571217  90.7772731  42.9331357  -5.0050143  98.8858850
  43.0623738  -4.7515664  99.7998261  42.2528808  -4.4122435  98.5663505
  47.1030844   5.6647107  94.9849324  47.0254874   6.6154932  95.0637804
  46.4992488   5.3192980  95.6424250  55.0409018  -6.6335061  92.1639527
  55.9526874  -6.4007675  91.9887224  54.5318665  -6.0498017  91.6014605
  53.3249786  -2.2110434 105.8000819  53.7333142  -2.6528023 105.0555452
  52.6027048  -2.7857806 106.0535012  49.6780856  -7.2737827 103.1734376
  50.5242051  -6.8498413 103.3169025  49.6179494  -7.9304202 103.8672939
  53.6478601  -1.6509243  99.5553108  53.0187463  -1.4863529  98.8529176
  53.2604263  -1.2367633 100.3264072  57.5267833  -0.7154805  96.9097472
  56.8418871  -0.3355904  96.3594505  57.6111682  -0.1059478  97.6429420
  54.7818764  -3.0694846 103.5092815  54.9935659  -2.4263086 102.8327196
  54.7348512  -3.9032529 103.0414745  52.3844993 -10.4577025 100.4129387
  51.5229472 -10.1595772 100.7046125  52.4107428 -10.2406626  99.4810420
  49.2006563  -1.9134835  96.8203193  49.6644908  -1.6347132  96.0307816
  48.9363361  -2.8151390  96.6376284  46.0930644  -2.3663353  99.7582956
  46.6632001  -1.9376085  99.1200441  46.6838755  -2.6480769 100.4567142
  48.1375449  -5.7911682  93.6292758  48.8399492  -5.3390639  94.0966685
  47.8056077  -6.4327864  94.2572651  41.8800783  -7.5328130  98.9309892
  41.0899837  -7.2770601  98.4550002  42.3712030  -6.7179792  99.0361932
  55.8964592  -0.1922891 101.6815173  56.7182036  -0.5942703 101.3997854
  55.8926995  -0.2954656 102.6331288  43.8315528  -7.1683551  95.8893369
  43.0346691  -7.0564856  96.4076864  43.6041120  -6.8296898  95.0234259
  49.6621196  -0.6438847 103.8375883  49.7265628  -0.1818440 104.6734055
  48.9532119  -1.2741482 103.9658193  63.9870585  -3.8484142  98.0300144
  63.2334294  -4.4176744  97.8744149  64.1218126  -3.8821478  98.9770779
  49.3769213   1.0229260  93.7054864  49.2414888   1.8680796  94.1339711
  49.9179026   1.2248538  92.9420797  42.8298611  -1.4595302  94.2782789
  43.3423131  -0.6652052  94.4288353  43.4821323  -2.1569011  94.2116390
  44.6393495   1.6570454  96.3605542  44.8160124   2.5788419  96.1726526
  45.4350329   1.3428874  96.7899922  51.0037690   1.6452827 107.8355206
  50.5601544   0.8589205 107.5176110  51.6654903   1.8331977 107.1699096
  45.7624811   3.1748628 102.3615884  46.3132236   3.0465692 101.5892878
  44.9236287   3.4743517 102.0110777  53.1018928   1.9255627 105.8636607
  53.0837403   2.7464508 105.3716876  54.0238848   1.8009702 106.0886748
  49.5591982  -0.5600244 106.7060115  50.0920319  -1.3211956 106.4759423
  49.0306063  -0.8526592 107.4484270  40.7947527  -3.1306647  95.0542359
  41.6322749  -2.7209639  94.8376067  40.9725795  -4.0707205  95.0242553
  52.6911959  -5.4631567  90.7426192  52.1758583  -4.6926962  90.9814579
  52.4189268  -6.1366431  91.3659254  50.2759071 -10.6181866  95.8011430
  49.4200667 -11.0075016  95.6217069  50.6886022 -10.5389905  94.9411216
  57.6646234  -2.7099212  92.6779366  56.8875676  -3.0488053  92.2334528
  58.3437715  -2.7046589  92.0034331  52.4798263  -7.5904475  92.5685973
  52.1748398  -7.2758326  93.4196116  53.4328705  -7.5123055  92.6113306
  50.9244695  -1.4314251  94.2178927  50.3966056  -2.1661492  93.9052165
  50.4232197  -0.6539575  93.9718896  55.9037541  -3.2365231  99.3345974
  55.2461215  -2.5465970  99.4226102  56.7077940  -2.8468799  99.6779960
  54.7142999  -4.8820858  97.3849915  55.2274881  -4.2490866  97.8871625
  55.3644223  -5.4819663  97.0193275  45.9833009  -8.7390124  90.5981424
  45.1470321  -8.4015438  90.9190699  45.8437779  -8.8741144  89.6608561
  49.0697295  -3.6134041  87.2213900  48.1624356  -3.8444788  87.4205049
  49.5668327  -4.4096422  87.4087882  51.9765374   5.0963466  90.1410586
  51.3027072   5.3995163  90.7495544  52.3631196   5.8992546  89.7916044
  51.1923830  -7.4071403  99.6308256  50.2746392  -7.1856456  99.4729944
  51.6083974  -7.3325092  98.7719963  51.9758878  -6.0079987  94.7610936
  52.7230697  -5.4958590  94.4518058  52.2450468  -6.3295934  95.6215330
  50.2485528  -3.5121446  91.7437890  49.3396747  -3.7962413  91.8410360
  50.2780612  -3.0922368  90.8841197  55.4804796   0.0985143  95.5129058
  55.0267123  -0.7423947  95.5694248  54.8498762   0.7346542  95.8503838
  54.4237715  -8.9722871  96.7429725  53.6860472  -9.4845485  97.0739968
  54.6764489  -9.4122489  95.9313002  53.9237735   1.9361640  96.4478876
  54.2160709   2.4966697  95.7291242  54.4336355   2.2290201  97.2032035
  40.8173699  -5.7915932  95.7253093  40.6198098  -6.3846571  95.0004159
  40.2620363  -6.0963722  96.4429031  48.7970422  -5.8992826  97.8447686
  48.8519032  -6.8518989  97.7690162  47.9861624  -5.7433387  98.3288984
  49.9461616  -1.9712703  89.0825969  49.5081046  -2.6876844  88.6231606
  50.6872057  -1.7436588  88.5211060  46.7362782  -7.2815766  95.6038065
  45.9230648  -6.9821595  96.0103257  47.2321776  -7.6760077  96.3212547
  48.8871360   2.7141991  97.5372329  48.8447539   2.9402837  96.6080861
  49.8034059   2.4805366  97.6858130  52.3336994  -6.8173941 104.4352958
  52.6886382  -6.5902468 105.2947424  52.9809125  -6.4855565 103.8130214
  58.0634731  -3.6955506  95.1402288  57.9252629  -3.5053910  94.2123477
  57.7070950  -2.9336123  95.5970339  46.2276857  -9.7097410 101.2199300
  46.8676236  -9.8508651 100.5222263  45.3954387  -9.9962897 100.8437902
  58.0904110  -1.6278979 100.1513559  58.5240617  -1.7203689 100.9996613
  58.8035691  -1.6521478  99.5133575  47.0037161  -0.4094980  97.3334292
  47.7977759  -0.9044660  97.1316867  46.2928853  -0.9377117  96.9701998
  51.8232005   1.9723116 101.6846660  51.8769028   2.5414052 102.4524376
  50.9546787   2.1425001 101.3200697  43.3119924  -6.2651898  93.4094045
  42.3817512  -6.3267443  93.6264007  43.4077396  -6.7875946  92.6130686
  58.9519660  -1.5855278 102.6846444  59.1455550  -0.6809467 102.9305719
  58.8520278  -2.0447859 103.5185029  54.0134769  -1.4348535 108.2587325
  53.8620275  -1.6637983 107.3417409  54.0039448  -0.4777934 108.2718670
  50.7820105  -3.8616622 103.2433591  51.7112165  -3.7105463 103.0702559
  50.3611135  -3.7732602 102.3882238  49.5808437   0.1634042 101.0132129
  49.4419522  -0.2047174 101.8858067  48.7923033   0.6781681 100.8416087
  50.1756589   5.2643138  92.3557666  50.3508344   4.7931182  93.1703288
  49.4889377   5.8908905  92.5838926  51.1313652  -0.4584355  98.4020967
  50.7963485  -0.4983585  99.2978617  50.6317598  -1.1239639  97.9291377
  54.0672844  -3.1128321  88.6758027  53.4502014  -3.8381493  88.5791079
  53.5989332  -2.3518961  88.3325101  47.7340197  -5.3396766 103.4157228
  48.4439815  -5.9803574 103.3743846  47.6909505  -5.0883871 104.3383408
  55.7226975   1.5970587 106.3363807  55.6639521   0.9129808 105.6694390
  56.1246494   2.3389577 105.8844433  44.7417674   8.4132501  99.1297526
  44.9814272   9.0451025  99.8076544  43.8986870   8.0620541  99.4162885
  45.8571389  -8.8942897  87.7979331  44.9800856  -9.0154096  87.4341577
  46.3329143  -9.6856818  87.5458219  55.7244382  -0.4389829 104.5677787
  54.8371161  -0.7763907 104.6904185  56.2942934  -1.1706797 104.8046552
  37.3773530  -4.1065737  97.8920838  38.0644569  -4.4204007  97.3041853
  37.2221658  -3.2024372  97.6188089  49.2545536   4.2211624 101.5339030
  49.1815707   5.0266595 102.0458334  48.8122929   4.4203589 100.7087051
  49.0435315   3.4583394  95.0441851  48.2602837   4.0005074  95.1380076
  49.7428061   3.9757373  95.4436092  60.2061723  -5.0281611  99.3294348
  60.1951599  -4.1456896  98.9588281  59.3379102  -5.3810060  99.1348885
  51.7144219   4.1198458 103.6897188  52.4272192   4.7545923 103.6173090
  51.2234248   4.2162324 102.8737190  53.4361746  -1.9750290  95.2614480
  52.5018025  -1.8548827  95.0919184  53.6138415  -2.8777823  94.9974490
  48.9366934  -8.5904594  97.4147741  48.5664722  -9.1433553  98.1028647
  49.4326027  -9.1946460  96.8622741  56.8234298  -6.1332970  95.7964514
  57.2894750  -5.3004979  95.7224817  57.2741798  -6.5987989  96.5009773
  46.7656133   1.8692901 104.5102759  47.4665592   2.5029384 104.6632153
  46.2951248   2.2107633 103.7498399  54.8910529   0.2110851  92.7950666
  55.1670373   0.0967446  93.7044540  54.0215027  -0.1871664  92.7562839
  54.5657419  -5.5762491 102.3355310  53.9128869  -5.3286584 101.6807762
  54.9437799  -6.3898353 102.0017787  51.5264593   4.4597202  96.4383480
  51.7086987   3.6418858  96.9011232  52.3497579   4.6764894  96.0008370
  51.8606758   3.3865387  93.6998528  52.3894525   2.8757841  93.0868690
  52.1234978   3.0707917  94.5644061  42.3623851   1.4029256 101.4433862
  42.9477288   0.6572944 101.5761766  42.1648689   1.7133213 102.3270526
  45.2162506   4.4380504  96.4596304  44.5472881   4.9226631  95.9760344
  45.0775376   4.6849724  97.3739683  49.3567775   6.4724247 103.0578963
  49.9086083   6.6355869 103.8228048  49.6973968   7.0628685 102.3858988
  54.2078649   1.2985505 108.9127617  54.7518553   1.9115463 108.4182572
  53.6265494   1.8565083 109.4294630  52.4936162   4.4206223 100.0442645
  52.3687302   3.6195962  99.5353590  53.1515253   4.9152416  99.5556615
  44.1144330  -9.2245045  99.2219785  43.3930916  -8.6109077  99.0827258
  44.9037586  -8.6887280  99.1436431  54.5571070   2.2215243 101.6722195
  53.6101406   2.1020594 101.6000522  54.9053844   1.3337741 101.7548456
  51.5617504   2.0167959  97.8726547  51.4142466   1.0884666  98.0534117
  52.3870997   2.0388050  97.3883622  45.4279748  -9.3313974  93.7307039
  45.7675821  -8.8028053  93.0085648  45.8751869  -8.9933568  94.5065606
  55.1651626   2.8396518  98.9591420  56.0898173   2.6339379  98.8215871
  54.9966929   2.5912919  99.8680761  47.4147895 -10.8339352  91.9300332
  48.1356258 -10.4558100  91.4264049  46.7913199 -10.1150476  92.0335310
  51.5579018 -10.1294203  92.8658664  51.7742632  -9.2469566  92.5647493
  51.0773085 -10.5207990  92.1364306  46.2978239  -7.1708490  99.4429409
  46.1522820  -6.8568187 100.3353691  45.8203443  -6.5523590  98.8900308
  48.1574622 -10.1805942  99.4910299  48.1436191 -11.0764849  99.1542596
  48.8747050 -10.1735278 100.1248585  50.0100753  -9.7468602 101.5363426
  49.7518531  -8.8251531 101.5347756  49.4785793 -10.1438167 102.2263890
  54.9546942   3.3582185  94.3153511  55.1283819   2.7928608  93.5627364
  55.4475833   4.1583080  94.1333001  40.7723902  -4.6303146 102.3817070
  40.2277370  -3.8543338 102.5137345  41.6503251  -4.2832341 102.2236192
  60.8086333  -3.8781392  95.9343811  61.2517479  -4.6274067  95.5362934
  59.9312843  -3.8871256  95.5517543  55.9422114   2.6748950  91.4150410
  56.6373019   3.2955642  91.6337724  56.2845264   1.8244301  91.6902788
  57.8413537   0.1248655  92.9437740  58.3664862   0.4635928  92.2187060
  57.7535890  -0.8104330  92.7600875  49.5033586   4.0382729 105.0727617
  49.8120713   3.7931875 105.9450317  50.3009068   4.2429367 104.5846487
  49.5254198   6.1920638  97.3032994  49.0859188   5.6997017  97.9965850
  50.2762315   5.6493606  97.0625069  42.0046537   2.3832179  97.3057622
  42.8304557   2.0835951  96.9256265  41.6540589   1.6139802  97.7547410
  46.9728070   1.7358647  99.3755295  46.3508080   1.0729352  99.0757523
  47.6432937   1.7619779  98.6928943  40.2055142   0.3018506  98.2646555
  39.3687051  -0.1259320  98.0830557  40.1778788   0.4950949  99.2017346
  57.5307443   0.7581559 108.2488938  56.7402987   0.7405698 107.7093438
  57.2940798   1.2969852 109.0037975  57.6505319  -2.3925975 105.5621667
  57.7003323  -2.5575967 106.5037190  57.5419242  -3.2598716 105.1719548
  46.5341577   0.2862571  92.8513756  46.6829698   0.9698035  92.1980429
  47.3408021   0.2667661  93.3663212  59.1523515   0.0270967 105.8063688
  58.8608324   0.3900947 106.6427149  58.5395647  -0.6862025 105.6277021
  60.3519198  -2.4076154  98.3266259  61.1866089  -1.9686350  98.4903819
  60.4878326  -2.8837500  97.5074504  57.4010704  -4.8496419 104.2743746
  57.8764825  -4.6568772 103.4662598  56.4776269  -4.7937233 104.0287130
  44.2894210  -3.6872252  93.8574825  44.0440252  -4.5909922  94.0555035
  44.4590125  -3.6855101  92.9154303  43.5589858  -7.9543894  91.3560986
  42.8659103  -7.8799539  90.7001022  43.3141610  -8.7183550  91.8782503
  50.0336983   2.7810701  90.3225503  49.4610950   3.4000888  89.8695975
  50.6069776   3.3310063  90.8565425  56.1012373  -7.9730659 102.5072052
  57.0529795  -7.8732561 102.5284276  55.9315823  -8.7652390 103.0170136
  53.2534243   3.0647851  91.4534086  54.1864916   2.9993413  91.6566961
  53.1657455   3.9004118  90.9948618  55.8822259   2.3813722  88.4138033
  55.8035891   2.0473585  89.3073791  56.7031926   2.8735490  88.4129505
  58.5800450  -4.7524539 101.6214352  58.5476770  -5.6908538 101.8074036
  59.1901074  -4.6740502 100.8880177  50.4183781  -5.8828486  87.6641556
  51.3642886  -6.0122278  87.7329974  50.0398026  -6.6213824  88.1410984
  64.3977000  -3.6908532 100.7620388  65.1280389  -3.9523244 101.3228092
  63.7883946  -4.4279810 100.8022456  62.4792297  -5.5500670 101.3594840
  61.7525461  -5.6844705 100.7511331  62.0639584  -5.2423841 102.1651558
  48.6026698  -7.9578510  87.5996441  47.6958154  -8.2545397  87.6759155
  48.8802679  -8.2548692  86.7330727  43.2984546  -3.9209705 101.7664994
  43.5170556  -2.9892597 101.7853028  43.7110320  -4.2801731 102.5519798
  47.3725483 -11.0991574  87.7408420  48.2344647 -10.7736676  88.0004238
  47.5575827 -11.8860079  87.2281486  39.3892899  -3.0169235 100.0188609
  38.6956370  -3.4315282  99.5058563  40.1365890  -2.9748698  99.4222028
  41.3029641  -3.0850981  97.8954624  41.2800329  -2.9863294  96.9436507
  41.6130278  -2.2385830  98.2171790  43.9617019  -1.0274826 102.0101238
  44.9160273  -1.0590884 101.9431170  43.7629543  -1.4884202 102.8251464
  44.5516401  -2.4573710 104.5772036  45.3709290  -1.9629631 104.6006873
  44.8253209  -3.3741742 104.5489603  42.3167248   4.5144794  99.0271436
  42.1821716   3.7545194  98.4609434  41.8999310   5.2385693  98.5600225
  53.4526211  -0.3018283  88.0348011  54.1562061  -0.0968280  88.6505667
  52.7288860   0.2658479  88.2997095  54.2824021  -4.5508422  94.1550282
  54.2259223  -4.0939870  93.3157914  54.8352364  -5.3117737  93.9773124
  62.4041165  -6.0222617  97.4871692  61.8440723  -5.9529427  98.2603255
  61.7984668  -6.1981632  96.7671189  45.4736374   5.4114111  99.2389879
  45.3568758   6.3559543  99.1368569  44.6528820   5.1087672  99.6275678
  55.3612908   0.1364246  90.0846471  56.1958512  -0.2954555  89.9023946
  55.1997251  -0.0353740  91.0123366  55.0158801  -3.3603640  91.4502811
  54.9607604  -3.5259369  90.5091255  54.3904856  -2.6527607  91.6065000
  46.4990888   6.0642372 102.4545807  47.4018135   6.0965983 102.7712302
  46.2728258   5.1342823 102.4692143  48.2544490   4.8173359  99.1155886
  47.3040121   4.8175221  99.0020258  48.5576976   4.0706094  98.5991920
  63.9897183  10.6533897 100.1801648  64.6275593  10.5340645  99.4764988
  63.8718026  11.6014741 100.2389600  60.7986890  10.6061326 100.1163173
  60.4605401  10.4902390  99.2283708  61.6676658  10.2052491 100.0964179
  56.6573705  12.4596802  96.1060064  56.0938571  12.3686739  95.3376352
  56.5426101  11.6396706  96.5862556  61.2806673  11.7596177 106.0749378
  61.2695314  11.3648976 105.2029882  61.4427312  11.0262250 106.6683150
  54.2038137  13.9547994  98.9444284  54.9959429  13.6138818  98.5290584
  54.4434788  14.0642969  99.8646438  62.2373264  16.1267770  91.4174529
  61.5861244  16.7121850  91.0308543  63.0317627  16.6573965  91.4769566
  56.1628891  13.2156907  91.8161663  56.9359767  12.6685894  91.6774539
  56.5154290  14.0801156  92.0276124  58.0013934  14.5433289 105.0228562
  57.7103800  15.4478920 104.9075229  58.6370918  14.5849817 105.7372632
  58.9270141  11.9210138 101.6129922  59.5233713  11.6966160 100.8986885
  58.9845112  11.1794883 102.2155370  58.4995169   9.3749573  89.4480113
  58.7520690   8.8531094  88.6863576  57.5619728   9.2115718  89.5506797
  63.5438452   8.3785351  97.2554856  64.3301541   7.9604774  96.9045273
  63.8077156   9.2831443  97.4236505  63.7148529  13.8158202  91.9543513
  63.0794362  13.8892828  92.6664418  63.3845936  14.4051800  91.2762592
  68.9446879   8.3160584  98.1587835  69.6772051   7.7459801  98.3925664
  68.1886235   7.9282185  98.5994340  58.2191458  11.2777679  91.6504488
  58.1027716  10.6022582  92.3185572  58.3293718  10.7910053  90.8336641
  60.5622999  10.7387826  95.3551177  60.1981206  10.2118447  96.0664099
  61.4190115  10.3486295  95.1817663  66.4672299   2.0282159 102.6182443
  66.1355624   2.8977570 102.3943658  65.8717913   1.7118443 103.2976474
  60.2028486   5.7677726  90.3512526  60.3702888   6.6357962  90.7182997
  60.0125655   5.9305007  89.4273815  62.9603819  14.2294705 102.0178356
  62.6604542  15.1319743 101.9094163  62.6154879  13.9626888 102.8699509
  56.4116300  10.6808501  98.0515061  55.4866797  10.5484715  98.2592752
  56.6600714  11.4602721  98.5485003  66.3600963   6.7477245  99.6975793
  65.4517840   6.6792653  99.4034554  66.3088559   7.2249190 100.5257619
  60.1817707   8.2235383  91.3359193  60.0617332   8.6692434  92.1744673
  59.4870295   8.5720701  90.7772731  53.7725112  10.3241775  98.8858850
  53.9017493  10.5776254  99.7998261  53.0922563  10.9169483  98.5663505
  57.9424599  20.9939025  94.9849324  57.8648628  21.9446850  95.0637804
  57.3386242  20.6484897  95.6424250  60.4341829   8.1666890 107.6410691
  59.6575163   8.7260810 107.6313555  61.0732392   8.6523673 108.1625561
  68.2262609   4.9493683 101.4753667  67.5836989   5.2426216 100.8293462
  67.7217538   4.8346603 102.2806864  65.8802773   8.6956856  92.1639527
  66.7920629   8.9284243  91.9887224  65.3712420   9.2793901  91.6014605
  58.6888201  10.9752344 107.2028658  59.4302885  11.5137388 106.9263481
  57.9825186  11.6018632 107.3600209  64.1643540  13.1181484 105.8000819
  64.5726897  12.6763895 105.0555452  63.4420802  12.5434112 106.0535012
  60.5174611   8.0554091 103.1734376  61.3635806   8.4793504 103.3169025
  60.4573248   7.3987715 103.8672939  64.4872355  13.6782675  99.5553108
  63.8581218  13.8428389  98.8529176  64.0998017  14.0924284 100.3264072
  68.3661587  14.6137113  96.9097472  67.6812625  14.9936014  96.3594505
  68.4505436  15.2232439  97.6429420  63.6674056   5.7158459 104.8315550
  63.4234988   6.4700520 104.2949825  63.9433986   6.0943807 105.6662797
  65.6212519  12.2597072 103.5092815  65.8329414  12.9028832 102.8327196
  65.5742267  11.4259388 103.0414745  63.2238748   4.8714892 100.4129387
  62.3623227   5.1696146 100.7046125  63.2501182   5.0885291  99.4810420
  60.0400317  13.4157083  96.8203193  60.5038663  13.6944786  96.0307816
  59.7757115  12.5140527  96.6376284  56.9324398  12.9628564  99.7582956
  57.5025755  13.3915833  99.1200441  57.5232510  12.6811149 100.4567142
  58.9769203   9.5380235  93.6292758  59.6793246   9.9901279  94.0966685
  58.6449832   8.8964054  94.2572651  57.4249565   8.1291992 108.0043968
  56.7948225   8.8108273 108.2379365  57.3185652   8.0175073 107.0597106
  52.7194537   7.7963788  98.9309892  51.9293591   8.0521316  98.4550002
  53.2105784   8.6112126  99.0361932  66.7358347  15.1369027 101.6815173
  67.5575790  14.7349214 101.3997854  66.7320749  15.0337261 102.6331288
  54.6709282   8.1608367  95.8893369  53.8740446   8.2727061  96.4076864
  54.4434875   8.4995019  95.0234259  60.5014950  14.6853070 103.8375883
  60.5659383  15.1473478 104.6734055  59.7925874  14.0550435 103.9658193
  51.0032240   8.0494278 101.3624883  51.2540278   8.9341288 101.6282459
  51.5391788   7.8698880 100.5899974  74.8264340  11.4807776  98.0300144
  74.0728048  10.9115174  97.8744149  74.9611881  11.4470440  98.9770779
  60.2162968  16.3521178  93.7054864  60.0808642  17.1972714  94.1339711
  60.7572780  16.5540455  92.9420797  56.7030307   2.4312758 110.3669219
  56.3097253   1.8778956 111.0416863  57.5196448   2.7423336 110.7575736
  53.6692365  13.8696616  94.2782789  54.1816886  14.6639866  94.4288353
  54.3215078  13.1722906  94.2116390  55.4787250  16.9862372  96.3605542
  55.6553878  17.9080337  96.1726526  56.2744083  16.6720791  96.7899922
  59.6198268   3.8470637 107.9589475  60.3607982   4.4477790 107.8793938
  59.8516191   3.1048275 107.4007518  54.7639606   9.0327004 106.2367705
  54.6493121   8.1312261 106.5374804  53.9084124   9.2790701 105.8852522
  61.8431444  16.9744744 107.8355206  61.3995298  16.1881123 107.5176110
  62.5048658  17.1623895 107.1699096  56.6018565  18.5040546 102.3615884
  57.1525990  18.3757609 101.5892878  55.7630041  18.8035435 102.0110777
  63.9412682  17.2547544 105.8636607  63.9231157  18.0756425 105.3716876
  64.8632602  17.1301620 106.0886748  60.3985736  14.7691674 106.7060115
  60.9314073  14.0079962 106.4759423  59.8699817  14.4765326 107.4484270
  63.5655431  -0.1248260 102.2353757  63.2219701   0.7653381 102.1592868
  63.9334394  -0.3146603 101.3723342  51.6341282  12.1985270  95.0542359
  52.4716504  12.6082279  94.8376067  51.8119550  11.2584712  95.0242553
  63.5305714   9.8660351  90.7426192  63.0152337  10.6364955  90.9814579
  63.2583022   9.1925487  91.3659254  61.1152825   4.7110052  95.8011430
  60.2594421   4.3216902  95.6217069  61.5279777   4.7902012  94.9411216
  62.6451972   2.2456395 100.2002990  62.1416767   2.2086530  99.3870796
  62.9382579   3.1549138 100.2599647  58.8894858   2.3295125  99.2069172
  59.7547854   2.1337933  98.8475061  58.9572366   2.1005476 100.1338529
  68.5039988  12.6192705  92.6779366  67.7269431  12.2803865  92.2334528
  69.1831469  12.6245329  92.0034331  63.3192017   7.7387443  92.5685973
  63.0142153   8.0533592  93.4196116  64.2722459   7.8168863  92.6113306
  61.7638449  13.8977666  94.2178927  61.2359811  13.1630426  93.9052165
  61.2625952  14.6752343  93.9718896  66.7431295  12.0926687  99.3345974
  66.0854969  12.7825948  99.4226102  67.5471694  12.4823119  99.6779960
  56.4957177   4.5597333  96.5785539  57.0700929   4.3372514  95.8458732
  57.0828159   4.6286027  97.3314140  65.5536754  10.4471059  97.3849915
  66.0668636  11.0801051  97.8871625  66.2037978   9.8472255  97.0193275
  56.8226764   6.5901794  90.5981424  55.9864076   6.9276480  90.9190699
  56.6831533   6.4550773  89.6608561  58.7979844   1.4338581  95.3060608
  58.1444257   1.1187599  94.6817223  58.7560318   0.8114322  96.0320431
  59.9091049  11.7157877  87.2213900  59.0018111  11.4847130  87.4205049
  60.4062081  10.9195496  87.4087882  62.8159128  20.4255384  90.1410586
  62.1420827  20.7287080  90.7495544  63.2024950  21.2284464  89.7916044
  62.0317585   7.9220515  99.6308256  61.1140146   8.1435462  99.4729944
  62.4477728   7.9966825  98.7719963  62.8152632   9.3211931  94.7610936
  63.5624451   9.8333328  94.4518058  63.0844222   8.9995983  95.6215330
  61.0879283  11.8170471  91.7437890  60.1790502  11.5329504  91.8410360
  61.1174366  12.2369550  90.8841197  66.3198550  15.4277061  95.5129058
  65.8660877  14.5867971  95.5694248  65.6892517  16.0638459  95.8503838
  65.2631470   6.3569047  96.7429725  64.5254226   5.8446433  97.0739968
  65.5158243   5.9169429  95.9313002  64.7631489  17.2653558  96.4478876
  65.0554464  17.8258615  95.7291242  65.2730110  17.5582119  97.2032035
  65.3643097  -0.8654701  97.3371495  65.6701974  -1.7257338  97.0497410
  66.0895702  -0.2737081  97.1370489  51.6567453   9.5375986  95.7253093
  51.4591853   8.9445346  95.0004159  51.1014117   9.2328196  96.4429031
  59.6364177   9.4299092  97.8447686  59.6912786   8.4772928  97.7690162
  58.8255379   9.5858531  98.3288984  60.7855370  13.3579215  89.0825969
  60.3474800  12.6415074  88.6231606  61.5265811  13.5855330  88.5211060
  57.5756537   8.0476152  95.6038065  56.7624402   8.3470322  96.0103257
  58.0715531   7.6531841  96.3212547  59.7265114  18.0433909  97.5372329
  59.6841293  18.2694755  96.6080861  60.6427813  17.8097283  97.6858130
  63.1730748   8.5117976 104.4352958  63.5280136   8.7389449 105.2947424
  63.8202879   8.8436353 103.8130214  68.9028485  11.6336412  95.1402288
  68.7646384  11.8238008  94.2123477  68.5464704  12.3955795  95.5970339
  57.0670611   5.6194507 101.2199300  57.7069991   5.4783266 100.5222263
  56.2348142   5.3329021 100.8437902  68.9297865  13.7012939 100.1513559
  69.3634371  13.6088228 100.9996613  69.6429446  13.6770440  99.5133575
  57.8430915  14.9196938  97.3334292  58.6371514  14.4247258  97.1316867
  57.1322608  14.3914801  96.9701998  62.6625760  17.3015033 101.6846660
  62.7162782  17.8705970 102.4524376  61.7940541  17.4716918 101.3200697
  54.1513679   9.0640019  93.4094045  53.2211267   9.0024475  93.6264007
  54.2471151   8.5415972  92.6130686  54.0699228   5.5894832  95.9972286
  54.3306045   6.5040165  95.8881447  54.8916400   5.1219275  96.1468899
  55.5424153   7.0032589 103.1671111  56.2147207   6.7949952 102.5183760
  54.7153940   6.8054675 102.7276343  69.7913414  13.7436640 102.6846444
  69.9849304  14.6482450 102.9305719  69.6914033  13.2844059 103.5185029
  61.4449725   3.6294530 105.1836772  60.7977640   4.3284480 105.0901248
  62.2150741   4.0630674 105.5513020  64.8528523  13.8943383 108.2587325
  64.7014029  13.6653934 107.3417409  64.8433203  14.8513984 108.2718670
  61.6213859  11.4675295 103.2433591  62.5505919  11.6186455 103.0702559
  61.2004889  11.5559316 102.3882238  60.4202191  15.4925960 101.0132129
  60.2813277  15.1244744 101.8858067  59.6316787  16.0073599 100.8416087
  61.0150343  20.5935056  92.3557666  61.1902099  20.1223099  93.1703288
  60.3283131  21.2200822  92.5838926  61.9707406  14.8707562  98.4020967
  61.6357239  14.8308332  99.2978617  61.4711352  14.2052278  97.9291377
  55.9451650  10.2775192 103.9273548  55.8071448   9.5455431 104.5285087
  56.8556574  10.1884092 103.6457736  64.9066598  12.2163597  88.6758027
  64.2895769  11.4910425  88.5791079  64.4383087  12.9772957  88.3325101
  58.5733951   9.9895152 103.4157228  59.2833570   9.3488344 103.3743846
  58.5303259  10.2408047 104.3383408  66.5620730  16.9262505 106.3363807
  66.5033276  16.2421725 105.6694390  66.9640248  17.6681495 105.8844433
  57.2862885   6.9760370 105.2352867  56.7500242   6.5251108 105.8874463
  56.6979593   7.1106278 104.4923332  55.5811428  23.7424419  99.1297526
  55.8208027  24.3742943  99.8076544  54.7380625  23.3912459  99.4162885
  56.6965144   6.4349021  87.7979331  55.8194610   6.3137822  87.4341577
  57.1722897   5.6435099  87.5458219  66.5638137  14.8902089 104.5677787
  65.6764916  14.5528011 104.6904185  67.1336688  14.1585120 104.8046552
  48.2167284  11.2226181  97.8920838  48.9038324  10.9087911  97.3041853
  48.0615413  12.1267545  97.6188089  53.0202006   6.1116377 102.3205862
  52.9360195   5.5042047 101.5856272  52.1984713   6.6025396 102.3215358
  60.0939290  19.5503541 101.5339030  60.0209462  20.3558513 102.0458334
  59.6516683  19.7495507 100.7087051  59.8829070  18.7875311  95.0441851
  59.0996592  19.3296992  95.1380076  60.5821815  19.3049291  95.4436092
  63.1925720   4.5969941  97.6876057  63.6894420   3.8439903  97.3677127
  62.4212702   4.6334257  97.1219266  71.0455478  10.3010306  99.3294348
  71.0345354  11.1835022  98.9588281  70.1772857   9.9481857  99.1348885
  62.5537974  19.4490375 103.6897188  63.2665946  20.0837840 103.6173090
  62.0628003  19.5454241 102.8737190  64.2755501  13.3541628  95.2614480
  63.3411780  13.4743091  95.0919184  64.4532169  12.4514095  94.9974490
  59.7760689   6.7387324  97.4147741  59.4058476   6.1858364  98.1028647
  60.2719781   6.1345457  96.8622741  67.6628052   9.1958947  95.7964514
  68.1288504  10.0286939  95.7224817  68.1135553   8.7303929  96.5009773
  57.6049887  17.1984819 104.5102759  58.3059347  17.8321302 104.6632153
  57.1345002  17.5399550 103.7498399  65.7304283  15.5402769  92.7950666
  66.0064127  15.4259363  93.7044540  64.8608782  15.1420253  92.7562839
  65.6344715   1.5639534  99.8355416  64.7207795   1.7943761 100.0037623
  66.0637816   1.6477978 100.6869448  65.4051173   9.7529426 102.3355310
  64.7522624  10.0005334 101.6807762  65.7831553   8.9393564 102.0017787
  62.3658347  19.7889119  96.4383480  62.5480742  18.9710775  96.9011232
  63.1891333  20.0056812  96.0008370  62.7000513  18.7157305  93.6998528
  63.2288279  18.2049759  93.0868690  62.9628732  18.3999835  94.5644061
  61.4538746  10.4949237 108.8221347  60.7779383  10.3943367 109.4923722
  62.2766380  10.3388451 109.2857344  53.2017605  16.7321174 101.4433862
  53.7871042  15.9864862 101.5761766  53.0042444  17.0425131 102.3270526
  56.0556261  19.7672421  96.4596304  55.3866636  20.2518549  95.9760344
  55.9169130  20.0141642  97.3739683  47.7935260   9.3026774 100.1638305
  47.8319360   8.7690365 100.9575423  47.2875553   8.7761980  99.5449282
  60.1961529  21.8016165 103.0578963  60.7479837  21.9647786 103.8228048
  60.5367723  22.3920603 102.3858988  55.1726023   4.1491315 103.6600847
  55.2367349   5.0106145 103.2478245  55.1093143   3.5365316 102.9273206
  54.6478295   6.2214447 107.3073882  55.2750334   5.8391524 107.9211406
  53.7906214   6.0028649 107.6729574  65.0472404  16.6277422 108.9127617
  65.5912308  17.2407381 108.4182572  64.4659248  17.1857001 109.4294630
  51.4243838   8.0290876  93.2392236  51.7197279   7.1201555  93.1859290
  50.5231874   8.0078616  92.9173239  63.3329917  19.7498140 100.0442645
  63.2081056  18.9487880  99.5353590  63.9909008  20.2444334  99.5556615
  54.9538085   6.1046873  99.2219785  54.2324671   6.7182841  99.0827258
  55.7431341   6.6404638  99.1436431  65.3964825  17.5507160 101.6722195
  64.4495160  17.4312512 101.6000522  65.7447598  16.6629658 101.7548456
  57.7564398   3.4401299 105.4960437  58.2798800   3.6863596 106.2586746
  57.5376732   4.2721334 105.0763574  53.1531679   5.7104974  93.3631562
  52.8244386   4.8302353  93.1806668  53.5071050   5.6552643  94.2507951
  62.4011258  17.3459877  97.8726547  62.2536221  16.4176584  98.0534117
  63.2264752  17.3679967  97.3883622  56.2673503   5.9977944  93.7307039
  56.6069575   6.5263865  93.0085648  56.7145623   6.3358350  94.5065606
  66.0045380  18.1688435  98.9591420  66.9291928  17.9631297  98.8215871
  65.8360683  17.9204837  99.8680761  58.9616943   4.3814994 103.1810107
  58.6213764   3.5822807 103.5830787  58.2555950   4.6816705 102.6086941
  59.6133415   1.4664307 101.6337430  60.4359485   0.9924785 101.5116321
  59.8571479   2.2454791 102.1336117  58.2541650   4.4952565  91.9300332
  58.9750012   4.8733818  91.4264049  57.6306954   5.2141442  92.0335310
  62.3972773   5.1997714  92.8658664  62.6136387   6.0822352  92.5647493
  61.9166840   4.8083928  92.1364306  57.1371994   8.1583427  99.4429409
  56.9916575   8.4723731 100.3353691  56.6597198   8.7768328  98.8900308
  58.9968377   5.1485975  99.4910299  58.9829946   4.2527069  99.1542596
  59.7140805   5.1556639 100.1248585  60.8494508   5.5823316 101.5363426
  60.5912285   6.5040386 101.5347756  60.3179548   5.1853750 102.2263890
  65.7940696  18.6874103  94.3153511  65.9677574  18.1220525  93.5627364
  66.2869588  19.4874998  94.1333001  51.6117656  10.6988772 102.3817070
  51.0671124  11.4748580 102.5137345  52.4897006  11.0459576 102.2236192
  58.4005273   4.0300356  94.7597869  58.5221184   3.1017002  94.9588756
  58.1107315   4.0439042  93.8476184  61.2696463   1.7155266  97.8964589
  61.2918160   1.7794599  96.9416568  61.6864522   0.8759775  98.0905095
  71.6480087  11.4510526  95.9343811  72.0911234  10.7017851  95.5362934
  70.7706598  11.4420662  95.5517543  66.7815869  18.0040867  91.4150410
  67.4766773  18.6247560  91.6337724  67.1239019  17.1536218  91.6902788
  52.3983678   9.8258668 105.2747227  51.6565414   9.9741304 105.8611857
  52.0776422  10.0866934 104.4113976  68.6807292  15.4540573  92.9437740
  69.2058616  15.7927845  92.2187060  68.5929644  14.5187588  92.7600875
  60.3427341  19.3674646 105.0727617  60.6514467  19.1223793 105.9450317
  61.1402823  19.5721285 104.5846487  60.3647953  21.5212556  97.3032994
  59.9252943  21.0288935  97.9965850  61.1156070  20.9785524  97.0625069
  52.8440292  17.7124097  97.3057622  53.6698312  17.4127869  96.9256265
  52.4934344  16.9431719  97.7547410  57.8121825  17.0650565  99.3755295
  57.1901834  16.4021270  99.0757523  58.4826692  17.0911697  98.6928943
  51.0448897  15.6310423  98.2646555  50.2080805  15.2032598  98.0830557
  51.0172542  15.8242867  99.2017346  57.8846352   5.5432353 108.9687801
  57.9334508   6.4194476 108.5865571  58.4268867   5.0009746 108.3959445
  68.3701198  16.0873476 108.2488938  67.5796742  16.0697615 107.7093438
  68.1334553  16.6261770 109.0037975  68.4899073  12.9365943 105.5621667
  68.5397078  12.7715950 106.5037190  68.3812996  12.0693202 105.1719548
  57.3735332  15.6154488  92.8513756  57.5223452  16.2989953  92.1980429
  58.1801775  15.5959579  93.3663212  65.7802835   8.9196871 106.8780974
  66.6812698   8.7803336 106.5864971  65.8550810   9.0851326 107.8179151
  60.1145641   6.2963726 105.7234160  59.2448950   6.5897292 105.4516748
  60.3505121   6.8804171 106.4441424  69.9917270  15.3562884 105.8063688
  69.7002078  15.7192865 106.6427149  69.3789401  14.6429893 105.6277021
  71.1912952  12.9215764  98.3266259  72.0259844  13.3605568  98.4903819
  71.3272081  12.4454417  97.5074504  68.2404458  10.4795499 104.2743746
  68.7158580  10.6723145 103.4662598  67.3170023  10.5354685 104.0287130
  55.1287965  11.6419666  93.8574825  54.8834007  10.7381996  94.0555035
  55.2983879  11.6436817  92.9154303  62.8184675   2.5143342 103.2399580
  63.3366618   3.2504369 102.9146069  62.4639807   2.8207336 104.0746339
  54.3983612   7.3748024  91.3560986  53.7052857   7.4492379  90.7001022
  54.1535364   6.6108367  91.8782503  63.0697269  -1.0656375  98.7600477
  63.3499023  -1.7333186  99.3860903  63.8547876  -0.8727279  98.2475141
  60.8730737  18.1102619  90.3225503  60.3004704  18.7292806  89.8695975
  61.4463531  18.6601981  90.8565425  66.9406127   7.3561259 102.5072052
  67.8923550   7.4559357 102.5284276  66.7709578   6.5639528 103.0170136
  64.9620507   4.4416842 102.6931453  64.3670439   4.7221855 101.9977942
  64.6770203   4.9310743 103.4648194  64.0927997  18.3939769  91.4534086
  65.0258670  18.3285331  91.6566961  64.0051210  19.2296036  90.9948618
  66.7216014  17.7105639  88.4138033  66.6429645  17.3765503  89.3073791
  67.5425680  18.2027407  88.4129505  69.4194205  10.5767379 101.6214352
  69.3870525   9.6383379 101.8074036  70.0294829  10.6551415 100.8880177
  61.2577536   9.4463432  87.6641556  62.2036640   9.3169640  87.7329974
  60.8791781   8.7078094  88.1410984  69.5688693   7.3678422 101.6672635
  69.0527742   6.5836879 101.4802564  70.4528642   7.0397139 101.8319154
  67.2299420   1.1119438  97.6268448  67.0324241   0.8034526  98.5111780
  67.8399126   1.8381077  97.7566377  75.2370755  11.6383386 100.7620388
  75.9674143  11.3768674 101.3228092  74.6277700  10.9012107 100.8022456
  73.3186052   9.7791248 101.3594840  72.5919215   9.6447213 100.7511331
  72.9033339  10.0868077 102.1651558  61.1416228  13.4981178 109.1242213
  62.0619238  13.6759777 109.3182259  61.1065811  12.5537223 108.9721912
  59.4420453   7.3713408  87.5996441  58.5351908   7.0746521  87.6759155
  59.7196434   7.0743226  86.7330727  50.3598393   8.6919771  98.0495487
  50.0401178   7.8385080  97.7569861  49.8131821   8.9068350  98.8053455
  54.1378301  11.4082212 101.7664994  54.3564311  12.3399320 101.7853028
  54.5504075  11.0490187 102.5519798  61.0582519   1.9150298  93.7540682
  60.2483247   1.5697383  94.1295928  61.7466936   1.6057841  94.3428294
  62.9873067   0.9928345  95.3764979  63.5404106   1.4123798  96.0355002
  63.2243153   0.0664093  95.4187935  59.0106166   6.9815418 111.1567743
  58.9102893   7.9309775 111.0879834  58.7927708   6.6533657 110.2843813
  58.2119238   4.2300343  87.7408420  59.0738402   4.5555242  88.0004238
  58.3969582   3.4431839  87.2281486  50.2286653  12.3122683 100.0188609
  49.5350125  11.8976636  99.5058563  50.9759644  12.3543219  99.4222028
  66.3651874   3.1028870  94.8843643  65.7850543   3.7613674  94.5021696
  66.0987807   2.2806214  94.4731061  64.8155440   2.5033927  97.0864963
  65.3155219   2.6150462  96.2779282  65.4591048   2.1994980  97.7265772
  58.8737436  10.4112557 109.9732804  58.3904518  11.2112917 110.1796693
  58.9598375  10.4220502 109.0200248  52.1423396  12.2440937  97.8954624
  52.1194084  12.3428624  96.9436507  52.4524032  13.0906088  98.2171790
  54.8010774  14.3017092 102.0101238  55.7554027  14.2701034 101.9431170
  54.6023297  13.8407715 102.8251464  55.3910156  12.8718208 104.5772036
  56.2103045  13.3662286 104.6006873  55.6646964  11.9550176 104.5489603
  65.1476752   5.2628960  93.9399991  64.2602607   5.5478611  93.7220186
  65.5630741   5.1022723  93.0927268  68.4991288   5.2875481  97.6554331
  69.2751678   5.7771934  97.9278947  67.7739422   5.7133535  98.1126200
  70.9363847   6.0003100  98.7128271  71.5308338   5.7598836  98.0021580
  71.0090430   5.2810231  99.3401808  53.1561002  19.8436711  99.0271436
  53.0215470  19.0837112  98.4609434  52.7393065  20.5677611  98.5600225
  64.2919965  15.0273635  88.0348011  64.9955816  15.2323637  88.6505667
  63.5682614  15.5950397  88.2997095  65.1217776  10.7783496  94.1550282
  65.0652977  11.2352047  93.3157914  65.6746118  10.0174181  93.9773124
  68.9322582   6.5673228  94.9800401  68.6759516   6.1669864  95.8108609
  68.3075450   7.2817022  94.8550540  73.2434920   9.3069301  97.4871692
  72.6834478   9.3762490  98.2603255  72.6378423   9.1310286  96.7671189
  56.3130128  20.7406028  99.2389879  56.1962512  21.6851461  99.1368569
  55.4922575  20.4379590  99.6275678  66.2006663  15.4656164  90.0846471
  67.0352267  15.0337362  89.9023946  66.0391006  15.2938178  91.0123366
  65.8552555  11.9688277  91.4502811  65.8001359  11.8032549  90.5091255
  65.2298610  12.6764310  91.6065000  50.6445070   7.2056342 105.2764233
  51.2903934   6.6955296 105.7651458  50.4362221   7.9425023 105.8507658
  63.1698462  14.2737189 110.7756374  64.0389622  14.4477841 110.4143008
  62.6905214  15.0931606 110.6532103  59.1648681   1.4696386  91.0288129
  59.1527350   2.4138226  91.1856400  60.0572102   1.2866532  90.7347590
  57.3384642  21.3934290 102.4545807  58.2411889  21.4257900 102.7712302
  57.1122013  20.4634741 102.4692143  59.0938244  20.1465277  99.1155886
  58.1433876  20.1467138  99.0020258  59.3970731  19.3998011  98.5991920
  62.9800800  -1.9360837  95.2834066  62.2133196  -2.4902350  95.4290748
  63.3911505  -1.8638968  96.1448218  54.9842561   4.3523959 109.3739247
  55.8474023   3.9960764 109.5842572  54.4107972   4.0137854 110.0614651
  74.8290938  25.9825815 100.1801648  75.4669348  25.8632562  99.4764988
  74.7111781  26.9306659 100.2389600  71.6380644  25.9353243 100.1163173
  71.2999156  25.8194308  99.2283708  72.5070412  25.5344408 100.0964179
  67.4967460  27.7888720  96.1060064  66.9332325  27.6978657  95.3376352
  67.3819855  26.9688624  96.5862556  72.1200427  27.0888095 106.0749378
  72.1089068  26.6940893 105.2029882  72.2821067  26.3554168 106.6683150
  65.0431892  29.2839911  98.9444284  65.8353184  28.9430736  98.5290584
  65.2828542  29.3934886  99.8646438  73.0767019  31.4559687  91.4174529
  72.4254998  32.0413768  91.0308543  73.8711381  31.9865882  91.4769566
  67.0022646  28.5448824  91.8161663  67.7753522  27.9977812  91.6774539
  67.3548045  29.4093074  92.0276124  68.8407688  29.8725207 105.0228562
  68.5497554  30.7770838 104.9075229  69.4764673  29.9141734 105.7372632
  69.7663895  27.2502055 101.6129922  70.3627467  27.0258078 100.8986885
  69.8238867  26.5086801 102.2155370  69.3388924  24.7041491  89.4480113
  69.5914444  24.1823012  88.6863576  68.4013483  24.5407636  89.5506797
  74.3832206  23.7077269  97.2554856  75.1695296  23.2896692  96.9045273
  74.6470911  24.6123361  97.4236505  74.5542284  29.1450119  91.9543513
  73.9188117  29.2184746  92.6664418  74.2239690  29.7343718  91.2762592
  79.7840634  23.6452502  98.1587835  80.5165806  23.0751719  98.3925664
  79.0279989  23.2574103  98.5994340  69.0585212  26.6069597  91.6504488
  68.9421470  25.9314500  92.3185572  69.1687472  26.1201970  90.8336641
  71.4016753  26.0679744  95.3551177  71.0374961  25.5410365  96.0664099
  72.2583869  25.6778213  95.1817663  77.3066054  17.3574076 102.6182443
  76.9749379  18.2269487 102.3943658  76.7111667  17.0410360 103.2976474
  71.0422240  21.0969643  90.3512526  71.2096643  21.9649880  90.7182997
  70.8519409  21.2596925  89.4273815  73.7997573  29.5586622 102.0178356
  73.4998297  30.4611661 101.9094163  73.4548633  29.2918805 102.8699509
  67.2510055  26.0100419  98.0515061  66.3260551  25.8776633  98.2592752
  67.4994468  26.7894638  98.5485003  77.1994717  22.0769162  99.6975793
  76.2911595  22.0084571  99.4034554  77.1482313  22.5541107 100.5257619
  71.0211461  23.5527301  91.3359193  70.9011086  23.9984352  92.1744673
  70.3264050  23.9012618  90.7772731  64.6118866  25.6533693  98.8858850
  64.7411247  25.9068172  99.7998261  63.9316317  26.2461401  98.5663505
  68.7818353  36.3230943  94.9849324  68.7042383  37.2738768  95.0637804
  68.1779997  35.9776815  95.6424250  71.2735583  23.4958808 107.6410691
  70.4968917  24.0552728 107.6313555  71.9126146  23.9815591 108.1625561
  79.0656364  20.2785601 101.4753667  78.4230744  20.5718134 100.8293462
  78.5611292  20.1638521 102.2806864  76.7196527  24.0248774  92.1639527
  77.6314383  24.2576161  91.9887224  76.2106174  24.6085818  91.6014605
  69.5281955  26.3044261 107.2028658  70.2696640  26.8429305 106.9263481
  68.8218941  26.9310550 107.3600209  75.0037295  28.4473402 105.8000819
  75.4120651  28.0055812 105.0555452  74.2814556  27.8726029 106.0535012
  71.3568365  23.3846009 103.1734376  72.2029560  23.8085422 103.3169025
  71.2967003  22.7279633 103.8672939  75.3266110  29.0074592  99.5553108
  74.6974972  29.1720307  98.8529176  74.9391772  29.4216202 100.3264072
  79.2055342  29.9429030  96.9097472  78.5206380  30.3227932  96.3594505
  79.2899191  30.5524357  97.6429420  74.5067810  21.0450377 104.8315550
  74.2628742  21.7992437 104.2949825  74.7827741  21.4235725 105.6662797
  76.4606273  27.5888989 103.5092815  76.6723168  28.2320749 102.8327196
  76.4136021  26.7551306 103.0414745  74.0632502  20.2006810 100.4129387
  73.2016981  20.4988064 100.7046125  74.0894937  20.4177209  99.4810420
  70.8794072  28.7449001  96.8203193  71.3432417  29.0236704  96.0307816
  70.6150870  27.8432445  96.6376284  67.7718153  28.2920482  99.7582956
  68.3419510  28.7207750  99.1200441  68.3626264  28.0103067 100.4567142
  69.8162958  24.8672153  93.6292758  70.5187001  25.3193197  94.0966685
  69.4843586  24.2255972  94.2572651  68.2643319  23.4583910 108.0043968
  67.6341980  24.1400190 108.2379365  68.1579407  23.3466991 107.0597106
  63.5588292  23.1255706  98.9309892  62.7687346  23.3813234  98.4550002
  64.0499539  23.9404043  99.0361932  77.5752101  30.4660945 101.6815173
  78.3969545  30.0641132 101.3997854  77.5714504  30.3629179 102.6331288
  65.5103037  23.4900285  95.8893369  64.7134200  23.6018979  96.4076864
  65.2828629  23.8286937  95.0234259  71.3408705  30.0144988 103.8375883
  71.4053137  30.4765395 104.6734055  70.6319628  29.3842353 103.9658193
  61.8425995  23.3786196 101.3624883  62.0934033  24.2633206 101.6282459
  62.3785543  23.1990798 100.5899974  85.6658094  26.8099693  98.0300144
  84.9121803  26.2407091  97.8744149  85.8005635  26.7762358  98.9770779
  71.0556722  31.6813096  93.7054864  70.9202397  32.5264631  94.1339711
  71.5966535  31.8832373  92.9420797  67.5424062  17.7604675 110.3669219
  67.1491007  17.2070874 111.0416863  68.3590202  18.0715254 110.7575736
  64.5086120  29.1988534  94.2782789  65.0210640  29.9931784  94.4288353
  65.1608832  28.5014824  94.2116390  66.3181004  32.3154290  96.3605542
  66.4947633  33.2372255  96.1726526  67.1137838  32.0012709  96.7899922
  70.4592023  19.1762554 107.9589475  71.2001736  19.7769708 107.8793938
  70.6909946  18.4340192 107.4007518  65.6033361  24.3618922 106.2367705
  65.4886876  23.4604179 106.5374804  64.7477879  24.6082618 105.8852522
  72.6825199  32.3036662 107.8355206  72.2389053  31.5173041 107.5176110
  73.3442412  32.4915813 107.1699096  67.4412320  33.8332464 102.3615884
  67.9919745  33.7049527 101.5892878  66.6023796  34.1327353 102.0110777
  74.7806437  32.5839462 105.8636607  74.7624912  33.4048343 105.3716876
  75.7026357  32.4593537 106.0886748  71.2379491  30.0983591 106.7060115
  71.7707828  29.3371880 106.4759423  70.7093572  29.8057243 107.4484270
  74.4049186  15.2043657 102.2353757  74.0613455  16.0945299 102.1592868
  74.7728148  15.0145315 101.3723342  62.4735036  27.5277188  95.0542359
  63.3110258  27.9374196  94.8376067  62.6513304  26.5876630  95.0242553
  74.3699468  25.1952269  90.7426192  73.8546092  25.9656873  90.9814579
  74.0976777  24.5217405  91.3659254  71.9546580  20.0401969  95.8011430
  71.0988176  19.6508820  95.6217069  72.3673531  20.1193930  94.9411216
  73.4845726  17.5748313 100.2002990  72.9810522  17.5378448  99.3870796
  73.7776333  18.4841055 100.2599647  69.7288612  17.6587042  99.2069172
  70.5941609  17.4629851  98.8475061  69.7966121  17.4297394 100.1338529
  79.3433743  27.9484623  92.6779366  78.5663185  27.6095783  92.2334528
  80.0225224  27.9537246  92.0034331  74.1585772  23.0679361  92.5685973
  73.8535907  23.3825510  93.4196116  75.1116214  23.1460781  92.6113306
  72.6032204  29.2269584  94.2178927  72.0753565  28.4922344  93.9052165
  72.1019706  30.0044260  93.9718896  77.5825050  27.4218604  99.3345974
  76.9248724  28.1117866  99.4226102  78.3865449  27.8115036  99.6779960
  67.3350931  19.8889250  96.5785539  67.9094683  19.6664432  95.8458732
  67.9221914  19.9577945  97.3314140  76.3930508  25.7762977  97.3849915
  76.9062390  26.4092969  97.8871625  77.0431732  25.1764173  97.0193275
  67.6620518  21.9193711  90.5981424  66.8257830  22.2568398  90.9190699
  67.5225288  21.7842691  89.6608561  69.6373599  16.7630499  95.3060608
  68.9838011  16.4479516  94.6817223  69.5954073  16.1406240  96.0320431
  70.7484804  27.0449794  87.2213900  69.8411865  26.8139048  87.4205049
  71.2455836  26.2487413  87.4087882  73.6552883  35.7547301  90.1410586
  72.9814581  36.0578998  90.7495544  74.0418705  36.5576382  89.7916044
  72.8711339  23.2512433  99.6308256  71.9533901  23.4727380  99.4729944
  73.2871483  23.3258743  98.7719963  73.6546387  24.6503848  94.7610936
  74.4018206  25.1625246  94.4518058  73.9237976  24.3287901  95.6215330
  71.9273037  27.1462389  91.7437890  71.0184256  26.8621422  91.8410360
  71.9568121  27.5661468  90.8841197  77.1592305  30.7568979  95.5129058
  76.7054632  29.9159888  95.5694248  76.5286271  31.3930377  95.8503838
  76.1025224  21.6860965  96.7429725  75.3647981  21.1738351  97.0739968
  76.3551998  21.2461346  95.9313002  75.6025244  32.5945475  96.4478876
  75.8948218  33.1550532  95.7291242  76.1123864  32.8874036  97.2032035
  76.2036851  14.4637217  97.3371495  76.5095728  13.6034580  97.0497410
  76.9289456  15.0554837  97.1370489  62.4961207  24.8667903  95.7253093
  62.2985607  24.2737264  95.0004159  61.9407871  24.5620113  96.4429031
  70.4757931  24.7591010  97.8447686  70.5306541  23.8064846  97.7690162
  69.6649133  24.9150449  98.3288984  71.6249125  28.6871133  89.0825969
  71.1868555  27.9706992  88.6231606  72.3659566  28.9147248  88.5211060
  68.4150291  23.3768069  95.6038065  67.6018157  23.6762240  96.0103257
  68.9109285  22.9823758  96.3212547  70.5658869  33.3725826  97.5372329
  70.5235048  33.5986673  96.6080861  71.4821568  33.1389201  97.6858130
  74.0124503  23.8409894 104.4352958  74.3673890  24.0681367 105.2947424
  74.6596634  24.1728271 103.8130214  79.7422240  26.9628330  95.1402288
  79.6040138  27.1529926  94.2123477  79.3858459  27.7247713  95.5970339
  67.9064366  20.9486425 101.2199300  68.5463745  20.8075184 100.5222263
  67.0741896  20.6620938 100.8437902  79.7691619  29.0304857 100.1513559
  80.2028126  28.9380146 100.9996613  80.4823200  29.0062357  99.5133575
  68.6824670  30.2488855  97.3334292  69.4765268  29.7539175  97.1316867
  67.9716362  29.7206718  96.9701998  73.5019514  32.6306951 101.6846660
  73.5556536  33.1997887 102.4524376  72.6334296  32.8008836 101.3200697
  64.9907433  24.3931937  93.4094045  64.0605021  24.3316393  93.6264007
  65.0864905  23.8707890  92.6130686  64.9092982  20.9186750  95.9972286
  65.1699800  21.8332083  95.8881447  65.7310155  20.4511192  96.1468899
  66.3817908  22.3324507 103.1671111  67.0540961  22.1241869 102.5183760
  65.5547694  22.1346593 102.7276343  80.6307169  29.0728557 102.6846444
  80.8243059  29.9774368 102.9305719  80.5307787  28.6135977 103.5185029
  72.2843480  18.9586448 105.1836772  71.6371395  19.6576398 105.0901248
  73.0544495  19.3922592 105.5513020  75.6922278  29.2235300 108.2587325
  75.5407784  28.9945852 107.3417409  75.6826957  30.1805902 108.2718670
  72.4607614  26.7967213 103.2433591  73.3899674  26.9478373 103.0702559
  72.0398644  26.8851234 102.3882238  71.2595946  30.8217877 101.0132129
  71.1207031  30.4536662 101.8858067  70.4710542  31.3365517 100.8416087
  71.8544098  35.9226974  92.3557666  72.0295853  35.4515017  93.1703288
  71.1676886  36.5492740  92.5838926  72.8101161  30.1999480  98.4020967
  72.4750993  30.1600250  99.2978617  72.3105107  29.5344196  97.9291377
  66.7845405  25.6067110 103.9273548  66.6465203  24.8747349 104.5285087
  67.6950328  25.5176010 103.6457736  75.7460353  27.5455514  88.6758027
  75.1289523  26.8202343  88.5791079  75.2776841  28.3064875  88.3325101
  69.4127706  25.3187069 103.4157228  70.1227324  24.6780262 103.3743846
  69.3697014  25.5699964 104.3383408  77.4014484  32.2554423 106.3363807
  77.3427030  31.5713643 105.6694390  77.8034003  32.9973413 105.8844433
  68.1256639  22.3052287 105.2352867  67.5893997  21.8543026 105.8874463
  67.5373348  22.4398196 104.4923332  67.5358898  21.7640939  87.7979331
  66.6588365  21.6429739  87.4341577  68.0116652  20.9727017  87.5458219
  77.4031891  30.2194007 104.5677787  76.5158670  29.8819928 104.6904185
  77.9730443  29.4877038 104.8046552  59.0561039  26.5518098  97.8920838
  59.7432078  26.2379828  97.3041853  58.9009167  27.4559463  97.6188089
  63.8595761  21.4408295 102.3205862  63.7753949  20.8333965 101.5856272
  63.0378467  21.9317313 102.3215358  70.9333045  34.8795459 101.5339030
  70.8603216  35.6850431 102.0458334  70.4910438  35.0787425 100.7087051
  70.7222824  34.1167229  95.0441851  69.9390346  34.6588909  95.1380076
  71.4215570  34.6341209  95.4436092  74.0319475  19.9261859  97.6876057
  74.5288174  19.1731821  97.3677127  73.2606456  19.9626175  97.1219266
  81.8849232  25.6302224  99.3294348  81.8739108  26.5126939  98.9588281
  81.0166611  25.2773775  99.1348885  73.3931728  34.7782293 103.6897188
  74.1059701  35.4129758 103.6173090  72.9021757  34.8746159 102.8737190
  75.1149255  28.6833546  95.2614480  74.1805534  28.8035008  95.0919184
  75.2925924  27.7806012  94.9974490  70.6154443  22.0679241  97.4147741
  70.2452231  21.5150282  98.1028647  71.1113536  21.4637375  96.8622741
  78.5021807  24.5250865  95.7964514  78.9682259  25.3578857  95.7224817
  78.9529307  24.0595847  96.5009773  68.4443642  32.5276737 104.5102759
  69.1453101  33.1613219 104.6632153  67.9738757  32.8691468 103.7498399
  76.5698038  30.8694686  92.7950666  76.8457882  30.7551281  93.7044540
  75.7002536  30.4712171  92.7562839  76.4738469  16.8931452  99.8355416
  75.5601549  17.1235679 100.0037623  76.9031571  16.9769896 100.6869448
  76.2444928  25.0821344 102.3355310  75.5916378  25.3297251 101.6807762
  76.6225308  24.2685482 102.0017787  73.2052102  35.1181037  96.4383480
  73.3874496  34.3002693  96.9011232  74.0285088  35.3348729  96.0008370
  73.5394267  34.0449222  93.6998528  74.0682034  33.5341677  93.0868690
  73.8022487  33.7291752  94.5644061  72.2932501  25.8241155 108.8221347
  71.6173138  25.7235284 109.4923722  73.1160135  25.6680369 109.2857344
  64.0411360  32.0613092 101.4433862  64.6264797  31.3156779 101.5761766
  63.8436198  32.3717048 102.3270526  58.6329015  24.6318692 100.1638305
  58.6713114  24.0982282 100.9575423  58.1269308  24.1053897  99.5449282
  71.0355284  37.1308082 103.0578963  71.5873592  37.2939704 103.8228048
  71.3761477  37.7212520 102.3858988  66.0119777  19.4783232 103.6600847
  66.0761103  20.3398063 103.2478245  65.9486897  18.8657234 102.9273206
  65.4872050  21.5506365 107.3073882  66.1144088  21.1683442 107.9211406
  64.6299968  21.3320567 107.6729574  75.8866158  31.9569340 108.9127617
  76.4306062  32.5699298 108.4182572  75.3053003  32.5148918 109.4294630
  62.2637592  23.3582794  93.2392236  62.5591033  22.4493472  93.1859290
  61.3625628  23.3370533  92.9173239  74.1723671  35.0790058 100.0442645
  74.0474811  34.2779798  99.5353590  74.8302762  35.5736251  99.5556615
  65.7931839  21.4338790  99.2219785  65.0718425  22.0474758  99.0827258
  66.5825095  21.9696555  99.1436431  76.2358579  32.8799078 101.6722195
  75.2888915  32.7604429 101.6000522  76.5841353  31.9921576 101.7548456
  68.5958153  18.7693217 105.4960437  69.1192555  19.0155514 106.2586746
  68.3770486  19.6013252 105.0763574  63.9925434  21.0396892  93.3631562
  63.6638140  20.1594271  93.1806668  64.3464805  20.9844560  94.2507951
  73.2405013  32.6751794  97.8726547  73.0929975  31.7468502  98.0534117
  74.0658506  32.6971885  97.3883622  67.1067257  21.3269861  93.7307039
  67.4463330  21.8555783  93.0085648  67.5539378  21.6650267  94.5065606
  76.8439135  33.4980353  98.9591420  77.7685682  33.2923214  98.8215871
  76.6754438  33.2496754  99.8680761  69.8010698  19.7106912 103.1810107
  69.4607518  18.9114725 103.5830787  69.0949704  20.0108623 102.6086941
  70.4527170  16.7956225 101.6337430  71.2753239  16.3216703 101.5116321
  70.6965233  17.5746708 102.1336117  69.0935404  19.8244483  91.9300332
  69.8143767  20.2025736  91.4264049  68.4700708  20.5433360  92.0335310
  73.2366527  20.5289632  92.8658664  73.4530141  21.4114270  92.5647493
  72.7560594  20.1375845  92.1364306  67.9765748  23.4875345  99.4429409
  67.8310329  23.8015648 100.3353691  67.4990952  24.1060245  98.8900308
  69.8362131  20.4777893  99.4910299  69.8223700  19.5818986  99.1542596
  70.5534559  20.4848557 100.1248585  71.6888262  20.9115233 101.5363426
  71.4306040  21.8332304 101.5347756  71.1573302  20.5145668 102.2263890
  76.6334451  34.0166020  94.3153511  76.8071328  33.4512443  93.5627364
  77.1263342  34.8166915  94.1333001  62.4511411  26.0280690 102.3817070
  61.9064879  26.8040498 102.5137345  63.3290760  26.3751494 102.2236192
  69.2399027  19.3592273  94.7597869  69.3614938  18.4308920  94.9588756
  68.9501070  19.3730959  93.8476184  72.1090218  17.0447184  97.8964589
  72.1311914  17.1086517  96.9416568  72.5258277  16.2051693  98.0905095
  82.4873842  26.7802443  95.9343811  82.9304988  26.0309769  95.5362934
  81.6100352  26.7712580  95.5517543  77.6209623  33.3332785  91.4150410
  78.3160528  33.9539478  91.6337724  77.9632773  32.4828136  91.6902788
  63.2377432  25.1550586 105.2747227  62.4959168  25.3033221 105.8611857
  62.9170177  25.4158851 104.4113976  79.5201046  30.7832490  92.9437740
  80.0452370  31.1219763  92.2187060  79.4323399  29.8479506  92.7600875
  71.1821095  34.6966564 105.0727617  71.4908222  34.4515711 105.9450317
  71.9796577  34.9013203 104.5846487  71.2041707  36.8504474  97.3032994
  70.7646697  36.3580852  97.9965850  71.9549824  36.3077441  97.0625069
  63.6834046  33.0416015  97.3057622  64.5092066  32.7419786  96.9256265
  63.3328098  32.2723637  97.7547410  68.6515579  32.3942483  99.3755295
  68.0295589  31.7313188  99.0757523  69.3220446  32.4203615  98.6928943
  61.8842651  30.9602341  98.2646555  61.0474559  30.5324515  98.0830557
  61.8566297  31.1534784  99.2017346  68.7240107  20.8724271 108.9687801
  68.7728262  21.7486394 108.5865571  69.2662621  20.3301664 108.3959445
  79.2094952  31.4165394 108.2488938  78.4190496  31.3989533 107.7093438
  78.9728307  31.9553688 109.0037975  79.3292828  28.2657860 105.5621667
  79.3790832  28.1007868 106.5037190  79.2206751  27.3985119 105.1719548
  68.2129086  30.9446406  92.8513756  68.3617207  31.6281871  92.1980429
  69.0195530  30.9251496  93.3663212  76.6196590  24.2488788 106.8780974
  77.5206453  24.1095253 106.5864971  76.6944564  24.4143243 107.8179151
  70.9539395  21.6255643 105.7234160  70.0842705  21.9189209 105.4516748
  71.1898876  22.2096088 106.4441424  80.8311024  30.6854802 105.8063688
  80.5395833  31.0484782 106.6427149  80.2183156  29.9721810 105.6277021
  82.0306707  28.2507682  98.3266259  82.8653598  28.6897486  98.4903819
  82.1665835  27.7746335  97.5074504  79.0798213  25.8087417 104.2743746
  79.5552334  26.0015063 103.4662598  78.1563778  25.8646602 104.0287130
  65.9681719  26.9711584  93.8574825  65.7227761  26.0673914  94.0555035
  66.1377634  26.9728734  92.9154303  73.6578429  17.8435260 103.2399580
  74.1760373  18.5796287 102.9146069  73.3033562  18.1499253 104.0746339
  65.2377367  22.7039941  91.3560986  64.5446612  22.7784296  90.7001022
  64.9929119  21.9400285  91.8782503  73.9091023  14.2635543  98.7600477
  74.1892777  13.5958732  99.3860903  74.6941630  14.4564638  98.2475141
  71.7124492  33.4394537  90.3225503  71.1398459  34.0584724  89.8695975
  72.2857285  33.9893898  90.8565425  77.7799882  22.6853177 102.5072052
  78.7317304  22.7851274 102.5284276  77.6103332  21.8931445 103.0170136
  75.8014261  19.7708760 102.6931453  75.2064193  20.0513773 101.9977942
  75.5163958  20.2602661 103.4648194  74.9321752  33.7231687  91.4534086
  75.8652425  33.6577248  91.6566961  74.8444964  34.5587954  90.9948618
  77.5609768  33.0397557  88.4138033  77.4823400  32.7057421  89.3073791
  78.3819435  33.5319325  88.4129505  80.2587959  25.9059296 101.6214352
  80.2264279  24.9675297 101.8074036  80.8688583  25.9843333 100.8880177
  72.0971290  24.7755349  87.6641556  73.0430395  24.6461557  87.7329974
  71.7185535  24.0370011  88.1410984  80.4082448  22.6970340 101.6672635
  79.8921497  21.9128796 101.4802564  81.2922396  22.3689056 101.8319154
  78.0693175  16.4411355  97.6268448  77.8717996  16.1326444  98.5111780
  78.6792880  17.1672994  97.7566377  86.0764509  26.9675303 100.7620388
  86.8067898  26.7060591 101.3228092  85.4671455  26.2304025 100.8022456
  84.1579806  25.1083166 101.3594840  83.4312970  24.9739131 100.7511331
  83.7427093  25.4159994 102.1651558  71.9809983  28.8273095 109.1242213
  72.9012992  29.0051694 109.3182259  71.9459566  27.8829141 108.9721912
  70.2814207  22.7005326  87.5996441  69.3745663  22.4038438  87.6759155
  70.5590188  22.4035144  86.7330727  61.1992148  24.0211689  98.0495487
  60.8794932  23.1676997  97.7569861  60.6525576  24.2360267  98.8053455
  64.9772055  26.7374130 101.7664994  65.1958065  27.6691238 101.7853028
  65.3897829  26.3782105 102.5519798  71.8976273  17.2442215  93.7540682
  71.0877001  16.8989300  94.1295928  72.5860690  16.9349759  94.3428294
  73.8266821  16.3220262  95.3764979  74.3797860  16.7415716  96.0355002
  74.0636908  15.3956010  95.4187935  69.8499921  22.3107336 111.1567743
  69.7496648  23.2601693 111.0879834  69.6321463  21.9825575 110.2843813
  69.0512992  19.5592261  87.7408420  69.9132156  19.8847159  88.0004238
  69.2363336  18.7723757  87.2281486  61.0680408  27.6414601 100.0188609
  60.3743879  27.2268553  99.5058563  61.8153399  27.6835137  99.4222028
  77.2045628  18.4320787  94.8843643  76.6244298  19.0905591  94.5021696
  76.9381561  17.6098132  94.4731061  75.6549195  17.8325845  97.0864963
  76.1548973  17.9442380  96.2779282  76.2984803  17.5286898  97.7265772
  69.7131191  25.7404475 109.9732804  69.2298272  26.5404835 110.1796693
  69.7992130  25.7512420 109.0200248  62.9817150  27.5732854  97.8954624
  62.9587838  27.6720542  96.9436507  63.2917787  28.4198005  98.2171790
  65.6404528  29.6309009 102.0101238  66.5947782  29.5992952 101.9431170
  65.4417052  29.1699633 102.8251464  66.2303910  28.2010125 104.5772036
  67.0496799  28.6954204 104.6006873  66.5040718  27.2842094 104.5489603
  75.9870507  20.5920878  93.9399991  75.0996362  20.8770528  93.7220186
  76.4024496  20.4314641  93.0927268  79.3385043  20.6167399  97.6554331
  80.1145433  21.1063851  97.9278947  78.6133177  21.0425453  98.1126200
  81.7757601  21.3295018  98.7128271  82.3702092  21.0890754  98.0021580
  81.8484185  20.6102149  99.3401808  63.9954757  35.1728629  99.0271436
  63.8609225  34.4129030  98.4609434  63.5786819  35.8969529  98.5600225
  75.1313720  30.3565552  88.0348011  75.8349570  30.5615555  88.6505667
  74.4076369  30.9242314  88.2997095  75.9611530  26.1075414  94.1550282
  75.9046732  26.5643965  93.3157914  76.5139873  25.3466098  93.9773124
  79.7716336  21.8965146  94.9800401  79.5153270  21.4961781  95.8108609
  79.1469204  22.6108940  94.8550540  84.0828674  24.6361219  97.4871692
  83.5228232  24.7054408  98.2603255  83.4772177  24.4602203  96.7671189
  67.1523883  36.0697946  99.2389879  67.0356267  37.0143378  99.1368569
  66.3316329  35.7671507  99.6275678  77.0400417  30.7948082  90.0846471
  77.8746021  30.3629280  89.9023946  76.8784760  30.6230095  91.0123366
  76.6946310  27.2980195  91.4502811  76.6395113  27.1324466  90.5091255
  76.0692365  28.0056228  91.6065000  61.4838825  22.5348259 105.2764233
  62.1297688  22.0247213 105.7651458  61.2755976  23.2716941 105.8507658
  74.0092217  29.6029107 110.7756374  74.8783376  29.7769759 110.4143008
  73.5298968  30.4223524 110.6532103  70.0042435  16.7988304  91.0288129
  69.9921105  17.7430144  91.1856400  70.8965857  16.6158449  90.7347590
  68.1778397  36.7226208 102.4545807  69.0805644  36.7549818 102.7712302
  67.9515767  35.7926659 102.4692143  69.9331999  35.4757194  99.1155886
  68.9827630  35.4759056  99.0020258  70.2364485  34.7289929  98.5991920
  73.8194554  13.3931081  95.2834066  73.0526950  12.8389567  95.4290748
  74.2305259  13.4652949  96.1448218  65.8236316  19.6815876 109.3739247
  66.6867777  19.3252681 109.5842572  65.2501726  19.3429771 110.0614651
  85.6684692  41.3117733 100.1801648  86.3063102  41.1924480  99.4764988
  85.5505535  42.2598577 100.2389600  82.4774399  41.2645161 100.1163173
  82.1392910  41.1486226  99.2283708  83.3464167  40.8636326 100.0964179
  78.3361214  43.1180637  96.1060064  77.7726080  43.0270574  95.3376352
  78.2213609  42.2980542  96.5862556  82.9594182  42.4180013 106.0749378
  82.9482823  42.0232811 105.2029882  83.1214821  41.6846085 106.6683150
  75.8825646  44.6131829  98.9444284  76.6746938  44.2722654  98.5290584
  76.1222297  44.7226804  99.8646438  83.9160773  46.7851605  91.4174529
  83.2648753  47.3705685  91.0308543  84.7105136  47.3157800  91.4769566
  77.8416400  43.8740742  91.8161663  78.6147276  43.3269729  91.6774539
  78.1941799  44.7384991  92.0276124  79.6801443  45.2017124 105.0228562
  79.3891309  46.1062755 104.9075229  80.3158427  45.2433652 105.7372632
  80.6057650  42.5793973 101.6129922  81.2021222  42.3549995 100.8986885
  80.6632621  41.8378718 102.2155370  80.1782678  40.0333408  89.4480113
  80.4308199  39.5114930  88.6863576  79.2407237  39.8699554  89.5506797
  85.2225961  39.0369187  97.2554856  86.0089050  38.6188610  96.9045273
  85.4864665  39.9415279  97.4236505  85.3936038  44.4742037  91.9543513
  84.7581871  44.5476663  92.6664418  85.0633445  45.0635636  91.2762592
  90.6234388  38.9744420  98.1587835  91.3559560  38.4043637  98.3925664
  89.8673744  38.5866020  98.5994340  79.8978967  41.9361514  91.6504488
  79.7815225  41.2606418  92.3185572  80.0081227  41.4493888  90.8336641
  82.2410508  41.3971661  95.3551177  81.8768715  40.8702282  96.0664099
  83.0977624  41.0070130  95.1817663  88.1459808  32.6865994 102.6182443
  87.8143133  33.5561405 102.3943658  87.5505422  32.3702278 103.2976474
  81.8815995  36.4261561  90.3512526  82.0490397  37.2941797  90.7182997
  81.6913164  36.5888843  89.4273815  84.6391328  44.8878540 102.0178356
  84.3392051  45.7903579 101.9094163  84.2942387  44.6210723 102.8699509
  78.0903809  41.3392337  98.0515061  77.1654306  41.2068551  98.2592752
  78.3388223  42.1186556  98.5485003  88.0388472  37.4061080  99.6975793
  87.1305349  37.3376489  99.4034554  87.9876068  37.8833025 100.5257619
  81.8605216  38.8819218  91.3359193  81.7404841  39.3276269  92.1744673
  81.1657804  39.2304536  90.7772731  75.4512620  40.9825610  98.8858850
  75.5805002  41.2360089  99.7998261  74.7710072  41.5753318  98.5663505
  82.1129338  38.8250726 107.6410691  81.3362672  39.3844646 107.6313555
  82.7519901  39.3107509 108.1625561  89.9050118  35.6077518 101.4753667
  89.2624498  35.9010052 100.8293462  89.4005047  35.4930439 102.2806864
  87.5590282  39.3540692  92.1639527  88.4708138  39.5868078  91.9887224
  87.0499929  39.9377736  91.6014605  80.3675710  41.6336179 107.2028658
  81.1090394  42.1721223 106.9263481  79.6612695  42.2602468 107.3600209
  85.8431049  43.7765320 105.8000819  86.2514406  43.3347730 105.0555452
  85.1208311  43.2017947 106.0535012  82.1962120  38.7137926 103.1734376
  83.0423315  39.1377340 103.3169025  82.1360757  38.0571551 103.8672939
  86.1659864  44.3366510  99.5553108  85.5368727  44.5012224  98.8529176
  85.7785526  44.7508120 100.3264072  90.0449096  45.2720948  96.9097472
  89.3600134  45.6519849  96.3594505  90.1292945  45.8816275  97.6429420
  85.3461565  36.3742295 104.8315550  85.1022497  37.1284355 104.2949825
  85.6221495  36.7527642 105.6662797  87.3000028  42.9180907 103.5092815
  87.5116923  43.5612667 102.8327196  87.2529776  42.0843224 103.0414745
  84.9026257  35.5298728 100.4129387  84.0410736  35.8279981 100.7046125
  84.9288691  35.7469127  99.4810420  81.7187826  44.0740918  96.8203193
  82.1826172  44.3528621  96.0307816  81.4544624  43.1724363  96.6376284
  78.6111907  43.6212400  99.7582956  79.1813264  44.0499668  99.1200441
  79.2020019  43.3394984 100.4567142  80.6556712  40.1964071  93.6292758
  81.3580755  40.6485114  94.0966685  80.3237341  39.5547889  94.2572651
  79.1037074  38.7875827 108.0043968  78.4735734  39.4692108 108.2379365
  78.9973161  38.6758909 107.0597106  74.3982046  38.4547623  98.9309892
  73.6081100  38.7105152  98.4550002  74.8893293  39.2695961  99.0361932
  88.4145856  45.7952862 101.6815173  89.2363299  45.3933050 101.3997854
  88.4108258  45.6921097 102.6331288  76.3496791  38.8192202  95.8893369
  75.5527955  38.9310897  96.4076864  76.1222384  39.1578855  95.0234259
  82.1802459  45.3436906 103.8375883  82.2446892  45.8057313 104.6734055
  81.4713383  44.7134271 103.9658193  72.6819749  38.7078114 101.3624883
  72.9327787  39.5925124 101.6282459  73.2179297  38.5282715 100.5899974
  96.5051849  42.1391611  98.0300144  95.7515557  41.5699009  97.8744149
  96.6399390  42.1054275  98.9770779  81.8950477  47.0105013  93.7054864
  81.7596151  47.8556549  94.1339711  82.4360289  47.2124291  92.9420797
  78.3817816  33.0896593 110.3669219  77.9884762  32.5362792 111.0416863
  79.1983957  33.4007172 110.7575736  75.3479874  44.5280451  94.2782789
  75.8604395  45.3223701  94.4288353  76.0002587  43.8306742  94.2116390
  77.1574759  47.6446208  96.3605542  77.3341387  48.5664172  96.1726526
  77.9531592  47.3304627  96.7899922  81.2985777  34.5054472 107.9589475
  82.0395491  35.1061625 107.8793938  81.5303700  33.7632110 107.4007518
  76.4427115  39.6910839 106.2367705  76.3280630  38.7896097 106.5374804
  75.5871633  39.9374536 105.8852522  83.5218953  47.6328580 107.8355206
  83.0782807  46.8464958 107.5176110  84.1836167  47.8207730 107.1699096
  78.2806074  49.1624381 102.3615884  78.8313499  49.0341445 101.5892878
  77.4417550  49.4619270 102.0110777  85.6200191  47.9131380 105.8636607
  85.6018666  48.7340261 105.3716876  86.5420111  47.7885455 106.0886748
  82.0773245  45.4275509 106.7060115  82.6101582  44.6663797 106.4759423
  81.5487326  45.1349161 107.4484270  85.2442940  30.5335575 102.2353757
  84.9007210  31.4237217 102.1592868  85.6121903  30.3437233 101.3723342
  73.3128791  42.8569106  95.0542359  74.1504013  43.2666114  94.8376067
  73.4907059  41.9168548  95.0242553  85.2093223  40.5244186  90.7426192
  84.6939846  41.2948791  90.9814579  84.9370531  39.8509322  91.3659254
  82.7940334  35.3693887  95.8011430  81.9381930  34.9800737  95.6217069
  83.2067286  35.4485848  94.9411216  84.3239481  32.9040230 100.2002990
  83.8204276  32.8670365  99.3870796  84.6170088  33.8132973 100.2599647
  80.5682367  32.9878960  99.2069172  81.4335363  32.7921769  98.8475061
  80.6359875  32.7589312 100.1338529  90.1827497  43.2776541  92.6779366
  89.4056940  42.9387700  92.2334528  90.8618978  43.2829164  92.0034331
  84.9979526  38.3971278  92.5685973  84.6929662  38.7117427  93.4196116
  85.9509968  38.4752698  92.6113306  83.4425958  44.5561502  94.2178927
  82.9147320  43.8214261  93.9052165  82.9413461  45.3336178  93.9718896
  88.4218804  42.7510522  99.3345974  87.7642478  43.4409783  99.4226102
  89.2259203  43.1406954  99.6779960  78.1744686  35.2181168  96.5785539
  78.7488438  34.9956349  95.8458732  78.7615668  35.2869862  97.3314140
  87.2324263  41.1054895  97.3849915  87.7456145  41.7384887  97.8871625
  87.8825487  40.5056090  97.0193275  78.5014273  37.2485629  90.5981424
  77.6651585  37.5860315  90.9190699  78.3619042  37.1134609  89.6608561
  80.4767353  32.0922417  95.3060608  79.8231766  31.7771434  94.6817223
  80.4347827  31.4698157  96.0320431  81.5878558  42.3741712  87.2213900
  80.6805620  42.1430965  87.4205049  82.0849590  41.5779331  87.4087882
  83.7105094  38.5804350  99.6308256  82.7927655  38.8019297  99.4729944
  84.1265237  38.6550661  98.7719963  84.4940141  39.9795766  94.7610936
  85.2411960  40.4917163  94.4518058  84.7631731  39.6579819  95.6215330
  82.7666792  42.4754307  91.7437890  81.8578011  42.1913340  91.8410360
  82.7961875  42.8953385  90.8841197  87.9986059  46.0860896  95.5129058
  87.5448386  45.2451806  95.5694248  87.3680026  46.7222295  95.8503838
  86.9418979  37.0152882  96.7429725  86.2041735  36.5030268  97.0739968
  87.1945752  36.5753264  95.9313002  86.4418998  47.9237393  96.4478876
  86.7341973  48.4842450  95.7291242  86.9517619  48.2165954  97.2032035
  87.0430606  29.7929134  97.3371495  87.3489483  28.9326498  97.0497410
  87.7683211  30.3846754  97.1370489  73.3354962  40.1959821  95.7253093
  73.1379362  39.6029182  95.0004159  72.7801626  39.8912031  96.4429031
  81.3151686  40.0882927  97.8447686  81.3700295  39.1356764  97.7690162
  80.5042888  40.2442366  98.3288984  82.4642879  44.0163050  89.0825969
  82.0262309  43.2998909  88.6231606  83.2053320  44.2439165  88.5211060
  79.2544046  38.7059987  95.6038065  78.4411911  39.0054158  96.0103257
  79.7503040  38.3115676  96.3212547  81.4052623  48.7017744  97.5372329
  81.3628802  48.9278590  96.6080861  82.3215322  48.4681119  97.6858130
  84.8518257  39.1701812 104.4352958  85.2067645  39.3973285 105.2947424
  85.4990388  39.5020188 103.8130214  90.5815994  42.2920247  95.1402288
  90.4433893  42.4821843  94.2123477  90.2252213  43.0539630  95.5970339
  78.7458120  36.2778343 101.2199300  79.3857500  36.1367102 100.5222263
  77.9135651  35.9912856 100.8437902  90.6085374  44.3596774 100.1513559
  91.0421880  44.2672064 100.9996613  91.3216954  44.3354275  99.5133575
  79.5218424  45.5780773  97.3334292  80.3159023  45.0831093  97.1316867
  78.8110117  45.0498636  96.9701998  84.3413269  47.9598869 101.6846660
  84.3950291  48.5289805 102.4524376  83.4728050  48.1300754 101.3200697
  75.8301188  39.7223855  93.4094045  74.8998776  39.6608310  93.6264007
  75.9258660  39.1999808  92.6130686  75.7486737  36.2478668  95.9972286
  76.0093554  37.1624001  95.8881447  76.5703909  35.7803110  96.1468899
  77.2211662  37.6616425 103.1671111  77.8934716  37.4533787 102.5183760
  76.3941449  37.4638511 102.7276343  91.4700923  44.4020475 102.6846444
  91.6636813  45.3066286 102.9305719  91.3701542  43.9427894 103.5185029
  83.1237234  34.2878366 105.1836772  82.4765149  34.9868315 105.0901248
  83.8938249  34.7214510 105.5513020  86.5316032  44.5527218 108.2587325
  86.3801538  44.3237770 107.3417409  86.5220712  45.5097819 108.2718670
  83.3001368  42.1259131 103.2433591  84.2293428  42.2770290 103.0702559
  82.8792398  42.2143151 102.3882238  82.0989700  46.1509795 101.0132129
  81.9600786  45.7828579 101.8858067  81.3104296  46.6657434 100.8416087
  83.6494915  45.5291398  98.4020967  83.3144748  45.4892168  99.2978617
  83.1498861  44.8636114  97.9291377  77.6239159  40.9359028 103.9273548
  77.4858957  40.2039267 104.5285087  78.5344083  40.8467928 103.6457736
  86.5854107  42.8747432  88.6758027  85.9683278  42.1494260  88.5791079
  86.1170595  43.6356792  88.3325101  80.2521460  40.6478987 103.4157228
  80.9621079  40.0072179 103.3743846  80.2090768  40.8991882 104.3383408
  88.2408239  47.5846340 106.3363807  88.1820785  46.9005561 105.6694390
  88.6427757  48.3265330 105.8844433  78.9650394  37.6344205 105.2352867
  78.4287751  37.1834943 105.8874463  78.3767102  37.7690114 104.4923332
  78.3752653  37.0932856  87.7979331  77.4982119  36.9721657  87.4341577
  78.8510406  36.3018935  87.5458219  88.2425646  45.5485924 104.5677787
  87.3552425  45.2111846 104.6904185  88.8124197  44.8168956 104.8046552
  74.6989515  36.7700213 102.3205862  74.6147704  36.1625882 101.5856272
  73.8772222  37.2609231 102.3215358  81.7726799  50.2087377 101.5339030
  81.6996971  51.0142348 102.0458334  81.3304192  50.4079343 100.7087051
  81.5616579  49.4459147  95.0441851  80.7784101  49.9880827  95.1380076
  82.2609324  49.9633126  95.4436092  84.8713229  35.2553776  97.6876057
  85.3681929  34.5023739  97.3677127  84.1000211  35.2918093  97.1219266
  92.7242986  40.9594142  99.3294348  92.7132863  41.8418857  98.9588281
  91.8560366  40.6065693  99.1348885  84.2325483  50.1074211 103.6897188
  84.9453455  50.7421676 103.6173090  83.7415512  50.2038077 102.8737190
  85.9543010  44.0125463  95.2614480  85.0199289  44.1326926  95.0919184
  86.1319678  43.1097930  94.9974490  81.4548198  37.3971159  97.4147741
  81.0845985  36.8442200  98.1028647  81.9507290  36.7929293  96.8622741
  89.3415561  39.8542783  95.7964514  89.8076013  40.6870774  95.7224817
  89.7923062  39.3887764  96.5009773  79.2837396  47.8568654 104.5102759
  79.9846856  48.4905137 104.6632153  78.8132511  48.1983386 103.7498399
  87.4091792  46.1986604  92.7950666  87.6851636  46.0843199  93.7044540
  86.5396291  45.8004089  92.7562839  87.3132224  32.2223370  99.8355416
  86.3995304  32.4527597 100.0037623  87.7425325  32.3061814 100.6869448
  87.0838682  40.4113262 102.3355310  86.4310133  40.6589169 101.6807762
  87.4619062  39.5977400 102.0017787  84.0445856  50.4472955  96.4383480
  84.2268251  49.6294611  96.9011232  84.8678842  50.6640647  96.0008370
  84.3788022  49.3741140  93.6998528  84.9075788  48.8633595  93.0868690
  84.6416241  49.0583670  94.5644061  83.1326255  41.1533073 108.8221347
  82.4566892  41.0527202 109.4923722  83.9553889  40.9972286 109.2857344
  74.8805114  47.3905009 101.4433862  75.4658551  46.6448697 101.5761766
  74.6829953  47.7008966 102.3270526  69.4722769  39.9610609 100.1638305
  69.5106869  39.4274200 100.9575423  68.9663062  39.4345815  99.5449282
  81.8749038  52.4600000 103.0578963  82.4267346  52.6231622 103.8228048
  82.2155232  53.0504438 102.3858988  76.8513531  34.8075150 103.6600847
  76.9154858  35.6689981 103.2478245  76.7880652  34.1949152 102.9273206
  76.3265804  36.8798282 107.3073882  76.9537843  36.4975360 107.9211406
  75.4693723  36.6612484 107.6729574  86.7259913  47.2861258 108.9127617
  87.2699817  47.8991216 108.4182572  86.1446757  47.8440836 109.4294630
  73.1031347  38.6874712  93.2392236  73.3984788  37.7785390  93.1859290
  72.2019383  38.6662451  92.9173239  85.0117426  50.4081976 100.0442645
  84.8868565  49.6071716  99.5353590  85.6696517  50.9028169  99.5556615
  76.6325594  36.7630708  99.2219785  75.9112180  37.3766676  99.0827258
  77.4218850  37.2988473  99.1436431  87.0752334  48.2090996 101.6722195
  86.1282669  48.0896347 101.6000522  87.4235107  47.3213494 101.7548456
  79.4351907  34.0985135 105.4960437  79.9586309  34.3447431 106.2586746
  79.2164241  34.9305169 105.0763574  74.8319188  36.3688809  93.3631562
  74.5031895  35.4886188  93.1806668  75.1858559  36.3136478  94.2507951
  84.0798767  48.0043712  97.8726547  83.9323730  47.0760419  98.0534117
  84.9052261  48.0263803  97.3883622  77.9461012  36.6561779  93.7307039
  78.2857084  37.1847700  93.0085648  78.3933132  36.9942185  94.5065606
  87.6832889  48.8272271  98.9591420  88.6079437  48.6215132  98.8215871
  87.5148192  48.5788672  99.8680761  80.6404452  35.0398830 103.1810107
  80.3001273  34.2406643 103.5830787  79.9343459  35.3400541 102.6086941
  81.2920924  32.1248142 101.6337430  82.1146993  31.6508620 101.5116321
  81.5358988  32.9038626 102.1336117  79.9329159  35.1536401  91.9300332
  80.6537521  35.5317653  91.4264049  79.3094463  35.8725277  92.0335310
  84.0760282  35.8581550  92.8658664  84.2923896  36.7406187  92.5647493
  83.5954349  35.4667763  92.1364306  78.8159503  38.8167263  99.4429409
  78.6704084  39.1307566 100.3353691  78.3384707  39.4352163  98.8900308
  80.6755886  35.8069811  99.4910299  80.6617455  34.9110904  99.1542596
  81.3928314  35.8140475 100.1248585  82.5282017  36.2407151 101.5363426
  82.2699794  37.1624222 101.5347756  81.9967057  35.8437586 102.2263890
  87.4728205  49.3457938  94.3153511  87.6465083  48.7804361  93.5627364
  87.9657097  50.1458833  94.1333001  73.2905165  41.3572607 102.3817070
  72.7458633  42.1332415 102.5137345  74.1684515  41.7043412 102.2236192
  80.0792782  34.6884191  94.7597869  80.2008693  33.7600837  94.9588756
  79.7894824  34.7022877  93.8476184  82.9483972  32.3739102  97.8964589
  82.9705669  32.4378435  96.9416568  83.3652031  31.5343610  98.0905095
  93.3267596  42.1094361  95.9343811  93.7698742  41.3601686  95.5362934
  92.4494107  42.1004497  95.5517543  88.4603378  48.6624703  91.4150410
  89.1554282  49.2831395  91.6337724  88.8026528  47.8120054  91.6902788
  74.0771187  40.4842504 105.2747227  73.3352923  40.6325139 105.8611857
  73.7563931  40.7450769 104.4113976  90.3594801  46.1124408  92.9437740
  90.8846125  46.4511681  92.2187060  90.2717153  45.1771423  92.7600875
  82.0214850  50.0258482 105.0727617  82.3301976  49.7807628 105.9450317
  82.8190332  50.2305120 104.5846487  82.0435462  52.1796391  97.3032994
  81.6040452  51.6872770  97.9965850  82.7943579  51.6369359  97.0625069
  74.5227801  48.3707932  97.3057622  75.3485821  48.0711704  96.9256265
  74.1721853  47.6015555  97.7547410  79.4909334  47.7234400  99.3755295
  78.8689343  47.0605105  99.0757523  80.1614201  47.7495532  98.6928943
  72.7236406  46.2894259  98.2646555  71.8868314  45.8616433  98.0830557
  72.6960051  46.4826702  99.2017346  79.5633861  36.2016188 108.9687801
  79.6122017  37.0778311 108.5865571  80.1056375  35.6593582 108.3959445
  90.0488707  46.7457312 108.2488938  89.2584251  46.7281451 107.7093438
  89.8122062  47.2845605 109.0037975  90.1686582  43.5949778 105.5621667
  90.2184587  43.4299786 106.5037190  90.0600505  42.7277037 105.1719548
  79.0522841  46.2738324  92.8513756  79.2010961  46.9573788  92.1980429
  79.8589284  46.2543414  93.3663212  87.4590344  39.5780706 106.8780974
  88.3600207  39.4387171 106.5864971  87.5338319  39.7435161 107.8179151
  81.7933150  36.9547561 105.7234160  80.9236459  37.2481127 105.4516748
  82.0292630  37.5388006 106.4441424  91.6704779  46.0146720 105.8063688
  91.3789587  46.3776700 106.6427149  91.0576910  45.3013728 105.6277021
  92.8700461  43.5799599  98.3266259  93.7047353  44.0189403  98.4903819
  93.0059590  43.1038253  97.5074504  89.9191967  41.1379334 104.2743746
  90.3946089  41.3306981 103.4662598  88.9957532  41.1938520 104.0287130
  76.8075474  42.3003501  93.8574825  76.5621516  41.3965831  94.0555035
  76.9771388  42.3020652  92.9154303  84.4972184  33.1727178 103.2399580
  85.0154127  33.9088205 102.9146069  84.1427316  33.4791171 104.0746339
  76.0771121  38.0331859  91.3560986  75.3840366  38.1076214  90.7001022
  75.8322873  37.2692203  91.8782503  84.7484778  29.5927460  98.7600477
  85.0286531  28.9250649  99.3860903  85.5335385  29.7856556  98.2475141
  82.5518246  48.7686454  90.3225503  81.9792213  49.3876641  89.8695975
  83.1251040  49.3185816  90.8565425  88.6193636  38.0145094 102.5072052
  89.5711059  38.1143192 102.5284276  88.4497086  37.2223363 103.0170136
  86.6408016  35.1000678 102.6931453  86.0457948  35.3805690 101.9977942
  86.3557712  35.5894578 103.4648194  85.7715506  49.0523604  91.4534086
  86.7046179  48.9869166  91.6566961  85.6838719  49.8879871  90.9948618
  88.4003523  48.3689475  88.4138033  88.3217154  48.0349338  89.3073791
  89.2213189  48.8611243  88.4129505  91.0981714  41.2351214 101.6214352
  91.0658034  40.2967215 101.8074036  91.7082338  41.3135251 100.8880177
  82.9365045  40.1047267  87.6641556  83.8824149  39.9753475  87.7329974
  82.5579290  39.3661929  88.1410984  91.2476202  38.0262257 101.6672635
  90.7315251  37.2420714 101.4802564  92.1316151  37.6980974 101.8319154
  88.9086929  31.7703273  97.6268448  88.7111750  31.4618361  98.5111780
  89.5186635  32.4964912  97.7566377  96.9158264  42.2967221 100.7620388
  97.6461652  42.0352509 101.3228092  96.3065209  41.5595943 100.8022456
  94.9973561  40.4375083 101.3594840  94.2706724  40.3031048 100.7511331
  94.5820848  40.7451912 102.1651558  82.8203737  44.1565013 109.1242213
  83.7406747  44.3343612 109.3182259  82.7853320  43.2121058 108.9721912
  81.1207962  38.0297243  87.5996441  80.2139417  37.7330356  87.6759155
  81.3983943  37.7327061  86.7330727  72.0385902  39.3503607  98.0495487
  71.7188687  38.4968915  97.7569861  71.4919330  39.5652185  98.8053455
  75.8165810  42.0666048 101.7664994  76.0351820  42.9983156 101.7853028
  76.2291584  41.7074022 102.5519798  82.7370028  32.5734133  93.7540682
  81.9270756  32.2281218  94.1295928  83.4254445  32.2641677  94.3428294
  84.6660576  31.6512180  95.3764979  85.2191614  32.0707633  96.0355002
  84.9030662  30.7247928  95.4187935  80.6893675  37.6399254 111.1567743
  80.5890402  38.5893611 111.0879834  80.4715217  37.3117492 110.2843813
  79.8906747  34.8884179  87.7408420  80.7525910  35.2139077  88.0004238
  80.0757091  34.1015675  87.2281486  71.9074162  42.9706518 100.0188609
  71.2137634  42.5560471  99.5058563  72.6547153  43.0127055  99.4222028
  88.0439383  33.7612705  94.8843643  87.4638052  34.4197509  94.5021696
  87.7775316  32.9390050  94.4731061  86.4942949  33.1617763  97.0864963
  86.9942728  33.2734297  96.2779282  87.1378557  32.8578816  97.7265772
  80.5524945  41.0696392 109.9732804  80.0692027  41.8696752 110.1796693
  80.6385884  41.0804337 109.0200248  73.8210905  42.9024772  97.8954624
  73.7981593  43.0012459  96.9436507  74.1311541  43.7489923  98.2171790
  76.4798283  44.9600927 102.0101238  77.4341536  44.9284869 101.9431170
  76.2810806  44.4991551 102.8251464  77.0697665  43.5302043 104.5772036
  77.8890554  44.0246122 104.6006873  77.3434473  42.6134011 104.5489603
  86.8264261  35.9212795  93.9399991  85.9390116  36.2062446  93.7220186
  87.2418250  35.7606559  93.0927268  90.1778797  35.9459316  97.6554331
  90.9539187  36.4355769  97.9278947  89.4526931  36.3717371  98.1126200
  92.6151356  36.6586936  98.7128271  93.2095847  36.4182672  98.0021580
  92.6877939  35.9394066  99.3401808  85.9707474  45.6857470  88.0348011
  86.6743325  45.8907473  88.6505667  85.2470123  46.2534232  88.2997095
  86.8005285  41.4367331  94.1550282  86.7440486  41.8935883  93.3157914
  87.3533627  40.6758016  93.9773124  90.6110091  37.2257063  94.9800401
  90.3547025  36.8253699  95.8108609  89.9862959  37.9400857  94.8550540
  94.9222429  39.9653136  97.4871692  94.3621986  40.0346326  98.2603255
  94.3165932  39.7894121  96.7671189  87.8794172  46.1239999  90.0846471
  88.7139776  45.6921198  89.9023946  87.7178515  45.9522013  91.0123366
  87.5340064  42.6272113  91.4502811  87.4788868  42.4616384  90.5091255
  86.9086119  43.3348146  91.6065000  72.3232579  37.8640177 105.2764233
  72.9691443  37.3539131 105.7651458  72.1149730  38.6008859 105.8507658
  84.8485971  44.9321024 110.7756374  85.7177131  45.1061677 110.4143008
  84.3692723  45.7515441 110.6532103  80.8436190  32.1280222  91.0288129
  80.8314859  33.0722062  91.1856400  81.7359611  31.9450367  90.7347590
  79.0172151  52.0518125 102.4545807  79.9199398  52.0841736 102.7712302
  78.7909522  51.1218576 102.4692143  80.7725753  50.8049112  99.1155886
  79.8221384  50.8050974  99.0020258  81.0758240  50.0581847  98.5991920
  84.6588309  28.7222998  95.2834066  83.8920705  28.1681485  95.4290748
  85.0699014  28.7944867  96.1448218  76.6630070  35.0107794 109.3739247
  77.5261532  34.6544599 109.5842572  76.0895481  34.6721689 110.0614651
  96.5078447  56.6409650 100.1801648  97.1456857  56.5216398  99.4764988
  96.3899290  57.5890494 100.2389600  93.3168153  56.5937079 100.1163173
  92.9786665  56.4778143  99.2283708  94.1857921  56.1928244 100.0964179
  89.1754969  58.4472555  96.1060064  88.6119834  58.3562492  95.3376352
  89.0607364  57.6272459  96.5862556  93.7987936  57.7471930 106.0749378
  93.7876577  57.3524729 105.2029882  93.9608576  57.0138003 106.6683150
  86.7219401  59.9423747  98.9444284  87.5140693  59.6014571  98.5290584
  86.9616051  60.0518722  99.8646438  94.7554528  62.1143523  91.4174529
  94.1042507  62.6997603  91.0308543  95.5498890  62.6449718  91.4769566
  88.6810155  59.2032660  91.8161663  89.4541031  58.6561647  91.6774539
  89.0335554  60.0676909  92.0276124  90.5195197  60.5309042 105.0228562
  90.2285063  61.4354673 104.9075229  91.1552182  60.5725570 105.7372632
  91.4451404  57.9085891 101.6129922  92.0414976  57.6841913 100.8986885
  91.5026376  57.1670636 102.2155370  91.0176433  55.3625326  89.4480113
  91.2701953  54.8406847  88.6863576  90.0800992  55.1991471  89.5506797
  96.0619715  54.3661104  97.2554856  96.8482805  53.9480527  96.9045273
  96.3258420  55.2707196  97.4236505  96.2329793  59.8033955  91.9543513
  95.5975626  59.8768581  92.6664418  95.9027199  60.3927553  91.2762592
 101.4628143  54.3036337  98.1587835 102.1953315  53.7335554  98.3925664
 100.7067498  53.9157938  98.5994340  90.7372721  57.2653432  91.6504488
  90.6208979  56.5898335  92.3185572  90.8474981  56.7785806  90.8336641
  93.0804262  56.7263579  95.3551177  92.7162470  56.1994200  96.0664099
  93.9371378  56.3362048  95.1817663  98.9853563  48.0157912 102.6182443
  98.6536888  48.8853323 102.3943658  98.3899176  47.6994196 103.2976474
  92.7209749  51.7553479  90.3512526  92.8884152  52.6233715  90.7182997
  92.5306918  51.9180760  89.4273815  95.4785082  60.2170458 102.0178356
  95.1785806  61.1195496 101.9094163  95.1336142  59.9502641 102.8699509
  88.9297564  56.6684254  98.0515061  88.0048060  56.5360469  98.2592752
  89.1781977  57.4478474  98.5485003  98.8782226  52.7352998  99.6975793
  97.9699104  52.6668406  99.4034554  98.8269822  53.2124943 100.5257619
  92.6998970  54.2111136  91.3359193  92.5798595  54.6568187  92.1744673
  92.0051559  54.5596454  90.7772731  86.2906375  56.3117528  98.8858850
  86.4198756  56.5652007  99.7998261  85.6103826  56.9045236  98.5663505
  90.4605862  66.9814778  94.9849324  90.3829892  67.9322603  95.0637804
  89.8567506  66.6360650  95.6424250  92.9523092  54.1542643 107.6410691
  92.1756426  54.7136563 107.6313555  93.5913655  54.6399426 108.1625561
 100.7443873  50.9369436 101.4753667 100.1018253  51.2301969 100.8293462
 100.2398801  50.8222356 102.2806864  98.3984036  54.6832609  92.1639527
  99.3101892  54.9159996  91.9887224  97.8893683  55.2669654  91.6014605
  91.2069464  56.9628097 107.2028658  91.9484149  57.5013141 106.9263481
  90.5006450  57.5894385 107.3600209  96.6824804  59.1057237 105.8000819
  97.0908160  58.6639648 105.0555452  95.9602065  58.5309865 106.0535012
  93.0355874  54.0429844 103.1734376  93.8817069  54.4669258 103.3169025
  92.9754512  53.3863468 103.8672939  97.0053619  59.6658428  99.5553108
  96.3762481  59.8304142  98.8529176  96.6179281  60.0800037 100.3264072
 100.8842851  60.6012866  96.9097472 100.1993889  60.9811767  96.3594505
 100.9686700  61.2108192  97.6429420  96.1855319  51.7034212 104.8315550
  95.9416251  52.4576273 104.2949825  96.4615250  52.0819560 105.6662797
  98.1393782  58.2472825 103.5092815  98.3510677  58.8904585 102.8327196
  98.0923530  57.4135141 103.0414745  95.7420011  50.8590645 100.4129387
  94.8804490  51.1571899 100.7046125  95.7682446  51.0761044  99.4810420
  92.5581580  59.4032836  96.8203193  93.0219926  59.6820539  96.0307816
  92.2938379  58.5016280  96.6376284  89.4505662  58.9504317  99.7582956
  90.0207019  59.3791586  99.1200441  90.0413773  58.6686902 100.4567142
  91.4950467  55.5255988  93.6292758  92.1974510  55.9777032  94.0966685
  91.1631095  54.8839807  94.2572651  89.9430828  54.1167745 108.0043968
  89.3129489  54.7984026 108.2379365  89.8366916  54.0050826 107.0597106
  85.2375801  53.7839541  98.9309892  84.4474854  54.0397069  98.4550002
  85.7287048  54.5987879  99.0361932  99.2539610  61.1244780 101.6815173
 100.0757054  60.7224967 101.3997854  99.2502013  61.0213014 102.6331288
  87.1890546  54.1484120  95.8893369  86.3921709  54.2602814  96.4076864
  86.9616138  54.4870772  95.0234259  93.0196214  60.6728823 103.8375883
  93.0840646  61.1349231 104.6734055  92.3107137  60.0426188 103.9658193
  83.5213503  54.0370031 101.3624883  83.7721542  54.9217041 101.6282459
  84.0573052  53.8574633 100.5899974 107.3445603  57.4683529  98.0300144
 106.5909312  56.8990927  97.8744149 107.4793144  57.4346193  98.9770779
  92.7344231  62.3396931  93.7054864  92.5989906  63.1848467  94.1339711
  93.2754044  62.5416209  92.9420797  89.2211571  48.4188511 110.3669219
  88.8278516  47.8654709 111.0416863  90.0377711  48.7299089 110.7575736
  86.1873629  59.8572369  94.2782789  86.6998149  60.6515619  94.4288353
  86.8396341  59.1598659  94.2116390  87.9968513  62.9738125  96.3605542
  88.1735142  63.8956090  96.1726526  88.7925347  62.6596544  96.7899922
  92.1379532  49.8346390 107.9589475  92.8789245  50.4353543 107.8793938
  92.3697455  49.0924028 107.4007518  87.2820870  55.0202757 106.2367705
  87.1674385  54.1188014 106.5374804  86.4265388  55.2666454 105.8852522
  94.3612708  62.9620497 107.8355206  93.9176562  62.1756876 107.5176110
  95.0229921  63.1499648 107.1699096  89.1199829  64.4916299 102.3615884
  89.6707254  64.3633362 101.5892878  88.2811305  64.7911188 102.0110777
  96.4593946  63.2423297 105.8636607  96.4412421  64.0632178 105.3716876
  97.3813866  63.1177373 106.0886748  92.9167000  60.7567427 106.7060115
  93.4495337  59.9955715 106.4759423  92.3881081  60.4641079 107.4484270
  96.0836695  45.8627493 102.2353757  95.7400964  46.7529134 102.1592868
  96.4515657  45.6729150 101.3723342  84.1522545  58.1861023  95.0542359
  84.9897767  58.5958032  94.8376067  84.3300813  57.2460465  95.0242553
  96.0486977  55.8536104  90.7426192  95.5333601  56.6240709  90.9814579
  95.7764286  55.1801240  91.3659254  93.6334088  50.6985805  95.8011430
  92.7775685  50.3092655  95.6217069  94.0461040  50.7777765  94.9411216
  95.1633235  48.2332148 100.2002990  94.6598031  48.1962283  99.3870796
  95.4563842  49.1424891 100.2599647  91.4076121  48.3170878  99.2069172
  92.2729118  48.1213686  98.8475061  91.4753630  48.0881229 100.1338529
 101.0221252  58.6068459  92.6779366 100.2450694  58.2679618  92.2334528
 101.7012733  58.6121082  92.0034331  95.8373281  53.7263196  92.5685973
  95.5323416  54.0409345  93.4196116  96.7903723  53.8044616  92.6113306
  94.2819712  59.8853419  94.2178927  93.7541074  59.1506179  93.9052165
  93.7807215  60.6628096  93.9718896  99.2612559  58.0802440  99.3345974
  98.6036233  58.7701701  99.4226102 100.0652958  58.4698872  99.6779960
  89.0138440  50.5473086  96.5785539  89.5882192  50.3248267  95.8458732
  89.6009423  50.6161780  97.3314140  98.0718017  56.4346812  97.3849915
  98.5849899  57.0676804  97.8871625  98.7219241  55.8348008  97.0193275
  89.3408027  52.5777547  90.5981424  88.5045339  52.9152233  90.9190699
  89.2012797  52.4426526  89.6608561  91.3161108  47.4214334  95.3060608
  90.6625520  47.1063352  94.6817223  91.2741582  46.7990075  96.0320431
  92.4272313  57.7033630  87.2213900  91.5199374  57.4722883  87.4205049
  92.9243345  56.9071249  87.4087882  95.3340392  66.4131137  90.1410586
  94.6602090  66.7162833  90.7495544  95.7206214  67.2160217  89.7916044
  94.5498848  53.9096268  99.6308256  93.6321410  54.1311215  99.4729944
  94.9658992  53.9842578  98.7719963  95.3333896  55.3087684  94.7610936
  96.0805715  55.8209081  94.4518058  95.6025485  54.9871736  95.6215330
  93.6060546  57.8046224  91.7437890  92.6971765  57.5205257  91.8410360
  93.6355630  58.2245303  90.8841197  98.8379814  61.4152814  95.5129058
  98.3842141  60.5743724  95.5694248  98.2073780  62.0514212  95.8503838
  97.7812733  52.3444800  96.7429725  97.0435490  51.8322186  97.0739968
  98.0339507  51.9045182  95.9313002  97.2812753  63.2529311  96.4478876
  97.5735727  63.8134368  95.7291242  97.7911373  63.5457872  97.2032035
  97.8824360  45.1221052  97.3371495  98.1883237  44.2618415  97.0497410
  98.6076965  45.7138672  97.1370489  84.1748716  55.5251739  95.7253093
  83.9773116  54.9321099  95.0004159  83.6195380  55.2203949  96.4429031
  92.1545440  55.4174845  97.8447686  92.2094050  54.4648681  97.7690162
  91.3436642  55.5734284  98.3288984  93.3036634  59.3454968  89.0825969
  92.8656064  58.6290827  88.6231606  94.0447075  59.5731083  88.5211060
  90.0937800  54.0351905  95.6038065  89.2805666  54.3346075  96.0103257
  90.5896794  53.6407594  96.3212547  92.2446378  64.0309662  97.5372329
  92.2022557  64.2570508  96.6080861  93.1609077  63.7973036  97.6858130
  95.6912012  54.4993729 104.4352958  96.0461399  54.7265202 105.2947424
  96.3384143  54.8312106 103.8130214 101.4209749  57.6212165  95.1402288
 101.2827647  57.8113761  94.2123477 101.0645967  58.3831548  95.5970339
  89.5851875  51.6070260 101.2199300  90.2251254  51.4659019 100.5222263
  88.7529405  51.3204774 100.8437902 101.4479128  59.6888692 100.1513559
 101.8815635  59.5963981 100.9996613 102.1610709  59.6646193  99.5133575
  90.3612179  60.9072691  97.3334292  91.1552777  60.4123011  97.1316867
  89.6503871  60.3790554  96.9701998  95.1807023  63.2890786 101.6846660
  95.2344045  63.8581723 102.4524376  94.3121805  63.4592671 101.3200697
  86.6694942  55.0515772  93.4094045  85.7392530  54.9900228  93.6264007
  86.7652414  54.5291725  92.6130686  86.5880491  51.5770585  95.9972286
  86.8487309  52.4915919  95.8881447  87.4097664  51.1095028  96.1468899
  88.0605417  52.9908342 103.1671111  88.7328470  52.7825705 102.5183760
  87.2335203  52.7930428 102.7276343 102.3094678  59.7312393 102.6846444
 102.5030568  60.6358203 102.9305719 102.2095296  59.2719812 103.5185029
  93.9630989  49.6170283 105.1836772  93.3158904  50.3160233 105.0901248
  94.7332004  50.0506427 105.5513020  97.3709787  59.8819136 108.2587325
  97.2195293  59.6529687 107.3417409  97.3614466  60.8389737 108.2718670
  94.1395123  57.4551048 103.2433591  95.0687183  57.6062208 103.0702559
  93.7186153  57.5435069 102.3882238  92.9383455  61.4801713 101.0132129
  92.7994540  61.1120497 101.8858067  92.1498051  61.9949352 100.8416087
  93.5331607  66.5810809  92.3557666  93.7083362  66.1098852  93.1703288
  92.8464395  67.2076575  92.5838926  94.4888670  60.8583315  98.4020967
  94.1538502  60.8184085  99.2978617  93.9892616  60.1928031  97.9291377
  88.4632914  56.2650945 103.9273548  88.3252712  55.5331184 104.5285087
  89.3737837  56.1759846 103.6457736  97.4247862  58.2039350  88.6758027
  96.8077032  57.4786178  88.5791079  96.9564350  58.9648710  88.3325101
  91.0915214  55.9770905 103.4157228  91.8014833  55.3364097 103.3743846
  91.0484523  56.2283800 104.3383408  99.0801993  62.9138258 106.3363807
  99.0214539  62.2297478 105.6694390  99.4821512  63.6557248 105.8844433
  89.8044148  52.9636123 105.2352867  89.2681505  52.5126861 105.8874463
  89.2160857  53.0982031 104.4923332  88.0992692  69.7300172  99.1297526
  88.3389290  70.3618696  99.8076544  87.2561888  69.3788212  99.4162885
  89.2146407  52.4224774  87.7979331  88.3375874  52.3013575  87.4341577
  89.6904160  51.6310852  87.5458219  99.0819400  60.8777842 104.5677787
  98.1946179  60.5403764 104.6904185  99.6517952  60.1460873 104.8046552
  85.5383270  52.0992130 102.3205862  85.4541458  51.4917800 101.5856272
  84.7165976  52.5901149 102.3215358  92.6120554  65.5379294 101.5339030
  92.5390725  66.3434266 102.0458334  92.1697947  65.7371260 100.7087051
  92.4010333  64.7751064  95.0441851  91.6177855  65.3172745  95.1380076
  93.1003079  65.2925044  95.4436092  95.7106984  50.5845694  97.6876057
  96.2075683  49.8315656  97.3677127  94.9393965  50.6210011  97.1219266
 103.5636741  56.2886059  99.3294348 103.5526617  57.1710775  98.9588281
 102.6954120  55.9357610  99.1348885  95.0719237  65.4366128 103.6897188
  95.7847210  66.0713593 103.6173090  94.5809266  65.5329994 102.8737190
  96.7936764  59.3417381  95.2614480  95.8593043  59.4618844  95.0919184
  96.9713433  58.4389848  94.9974490  92.2941952  52.7263077  97.4147741
  91.9239740  52.1734117  98.1028647  92.7901045  52.1221210  96.8622741
 100.1809316  55.1834700  95.7964514 100.6469768  56.0162692  95.7224817
 100.6316816  54.7179682  96.5009773  90.1231151  63.1860572 104.5102759
  90.8240610  63.8197055 104.6632153  89.6526266  63.5275303 103.7498399
  98.2485547  61.5278522  92.7950666  98.5245391  61.4135116  93.7044540
  97.3790045  61.1296006  92.7562839  98.1525978  47.5515287  99.8355416
  97.2389058  47.7819514 100.0037623  98.5819080  47.6353731 100.6869448
  97.9232437  55.7405179 102.3355310  97.2703887  55.9881087 101.6807762
  98.3012817  54.9269317 102.0017787  94.8839611  65.7764872  96.4383480
  95.0662005  64.9586528  96.9011232  95.7072597  65.9932565  96.0008370
  95.2181776  64.7033058  93.6998528  95.7469543  64.1925512  93.0868690
  95.4809996  64.3875588  94.5644061  93.9720010  56.4824990 108.8221347
  93.2960647  56.3819120 109.4923722  94.7947644  56.3264204 109.2857344
  85.7198869  62.7196927 101.4433862  86.3052306  61.9740615 101.5761766
  85.5223707  63.0300884 102.3270526  88.5737524  65.7548174  96.4596304
  87.9047899  66.2394302  95.9760344  88.4350394  66.0017395  97.3739683
  92.7142793  67.7891918 103.0578963  93.2661101  67.9523539 103.8228048
  93.0548986  68.3796356 102.3858988  87.6907286  50.1367068 103.6600847
  87.7548612  50.9981899 103.2478245  87.6274406  49.5241069 102.9273206
  87.1659559  52.2090200 107.3073882  87.7931597  51.8267277 107.9211406
  86.3087477  51.9904402 107.6729574  97.5653667  62.6153175 108.9127617
  98.1093571  63.2283134 108.4182572  96.9840512  63.1732754 109.4294630
  83.9425101  54.0166629  93.2392236  84.2378542  53.1077308  93.1859290
  83.0413137  53.9954369  92.9173239  95.8511180  65.7373893 100.0442645
  95.7262319  64.9363633  99.5353590  96.5090271  66.2320087  99.5556615
  87.4719348  52.0922626  99.2219785  86.7505934  52.7058594  99.0827258
  88.2612604  52.6280391  99.1436431  97.9146088  63.5382913 101.6722195
  96.9676424  63.4188265 101.6000522  98.2628862  62.6505411 101.7548456
  90.2745662  49.4277052 105.4960437  90.7980064  49.6739349 106.2586746
  90.0557995  50.2597087 105.0763574  85.6712943  51.6980727  93.3631562
  85.3425649  50.8178106  93.1806668  86.0252314  51.6428396  94.2507951
  94.9192522  63.3335630  97.8726547  94.7717484  62.4052337  98.0534117
  95.7446015  63.3555720  97.3883622  88.7854766  51.9853697  93.7307039
  89.1250839  52.5139618  93.0085648  89.2326886  52.3234103  94.5065606
  98.5226644  64.1564188  98.9591420  99.4473191  63.9507050  98.8215871
  98.3541947  63.9080590  99.8680761  91.4798207  50.3690747 103.1810107
  91.1395027  49.5698561 103.5830787  90.7737213  50.6692458 102.6086941
  92.1314679  47.4540060 101.6337430  92.9540748  46.9800538 101.5116321
  92.3752742  48.2330544 102.1336117  90.7722913  50.4828318  91.9300332
  91.4931276  50.8609571  91.4264049  90.1488217  51.2017195  92.0335310
  94.9154036  51.1873467  92.8658664  95.1317650  52.0698105  92.5647493
  94.4348103  50.7959681  92.1364306  89.6553257  54.1459181  99.4429409
  89.5097838  54.4599484 100.3353691  89.1778461  54.7644081  98.8900308
  91.5149640  51.1361729  99.4910299  91.5011209  50.2402822  99.1542596
  92.2322068  51.1432392 100.1248585  93.3675771  51.5699069 101.5363426
  93.1093549  52.4916139 101.5347756  92.8360811  51.1729503 102.2263890
  98.3121960  64.6749856  94.3153511  98.4858837  64.1096278  93.5627364
  98.8050851  65.4750751  94.1333001  84.1298920  56.6864525 102.3817070
  83.5852388  57.4624333 102.5137345  85.0078269  57.0335329 102.2236192
  90.9186536  50.0176109  94.7597869  91.0402447  49.0892755  94.9588756
  90.6288579  50.0314795  93.8476184  93.7877727  47.7031019  97.8964589
  93.8099423  47.7670352  96.9416568  94.2045786  46.8635528  98.0905095
 104.1661351  57.4386279  95.9343811 104.6092497  56.6893604  95.5362934
 103.2887861  57.4296415  95.5517543  99.2997132  63.9916620  91.4150410
  99.9948037  64.6123313  91.6337724  99.6420282  63.1411971  91.6902788
  84.9164941  55.8134421 105.2747227  84.1746677  55.9617057 105.8611857
  84.5957686  56.0742687 104.4113976 101.1988555  61.4416326  92.9437740
 101.7239879  61.7803599  92.2187060 101.1110908  60.5063341  92.7600875
  92.8608604  65.3550399 105.0727617  93.1695731  65.1099546 105.9450317
  93.6584086  65.5597038 104.5846487  92.8829216  67.5088309  97.3032994
  92.4434206  67.0164688  97.9965850  93.6337333  66.9661277  97.0625069
  85.3621555  63.6999850  97.3057622  86.1879575  63.4003622  96.9256265
  85.0115607  62.9307472  97.7547410  90.3303088  63.0526318  99.3755295
  89.7083098  62.3897023  99.0757523  91.0007955  63.0787450  98.6928943
  83.5630160  61.6186176  98.2646555  82.7262068  61.1908351  98.0830557
  83.5353806  61.8118620  99.2017346  90.4027616  51.5308106 108.9687801
  90.4515771  52.4070229 108.5865571  90.9450130  50.9885499 108.3959445
 100.8882461  62.0749229 108.2488938 100.0978005  62.0573368 107.7093438
 100.6515816  62.6137523 109.0037975 101.0080336  58.9241696 105.5621667
 101.0578341  58.7591703 106.5037190 100.8994260  58.0568955 105.1719548
  89.8916595  61.6030241  92.8513756  90.0404716  62.2865706  92.1980429
  90.6983039  61.5835332  93.3663212  98.2984099  54.9072624 106.8780974
  99.1993962  54.7679089 106.5864971  98.3732073  55.0727079 107.8179151
  92.6326904  52.2839479 105.7234160  91.7630214  52.5773045 105.4516748
  92.8686385  52.8679924 106.4441424 102.5098533  61.3438637 105.8063688
 102.2183342  61.7068618 106.6427149 101.8970665  60.6305646 105.6277021
 103.7094216  58.9091517  98.3266259 104.5441107  59.3481321  98.4903819
 103.8453344  58.4330170  97.5074504 100.7585722  56.4671252 104.2743746
 101.2339843  56.6598898 103.4662598  99.8351287  56.5230438 104.0287130
  87.6469228  57.6295419  93.8574825  87.4015270  56.7257749  94.0555035
  87.8165143  57.6312570  92.9154303  95.3365938  48.5019095 103.2399580
  95.8547882  49.2380122 102.9146069  94.9821071  48.8083089 104.0746339
  86.9164876  53.3623777  91.3560986  86.2234121  53.4368132  90.7001022
  86.6716628  52.5984120  91.8782503  95.5878532  44.9219378  98.7600477
  95.8680286  44.2542567  99.3860903  96.3729139  45.1148474  98.2475141
  93.3912001  64.0978372  90.3225503  92.8185968  64.7168559  89.8695975
  93.9644794  64.6477734  90.8565425  99.4587391  53.3437012 102.5072052
 100.4104813  53.4435110 102.5284276  99.2890841  52.5515281 103.0170136
  97.4801770  50.4292595 102.6931453  96.8851702  50.7097608 101.9977942
  97.1951467  50.9186496 103.4648194  96.6109260  64.3815522  91.4534086
  97.5439934  64.3161084  91.6566961  96.5232473  65.2171789  90.9948618
  99.2397277  63.6981392  88.4138033  99.1610909  63.3641256  89.3073791
 100.0606944  64.1903160  88.4129505 101.9375468  56.5643132 101.6214352
 101.9051788  55.6259132 101.8074036 102.5476092  56.6427168 100.8880177
  93.7758799  55.4339185  87.6641556  94.7217904  55.3045393  87.7329974
  93.3973044  54.6953847  88.1410984 102.0869957  53.3554175 101.6672635
 101.5709005  52.5712632 101.4802564 102.9709905  53.0272892 101.8319154
  99.7480684  47.0995191  97.6268448  99.5505505  46.7910279  98.5111780
 100.3580389  47.8256830  97.7566377 107.7552018  57.6259139 100.7620388
 108.4855407  57.3644427 101.3228092 107.1458964  56.8887860 100.8022456
 105.8367315  55.7667001 101.3594840 105.1100479  55.6322966 100.7511331
 105.4214602  56.0743830 102.1651558  93.6597492  59.4856931 109.1242213
  94.5800501  59.6635530 109.3182259  93.6247075  58.5412976 108.9721912
  91.9601716  53.3589161  87.5996441  91.0533172  53.0622274  87.6759155
  92.2377697  53.0618979  86.7330727  82.8779657  54.6795524  98.0495487
  82.5582441  53.8260833  97.7569861  82.3313085  54.8944103  98.8053455
  86.6559564  57.3957965 101.7664994  86.8745574  58.3275073 101.7853028
  87.0685338  57.0365940 102.5519798  93.5763782  47.9026051  93.7540682
  92.7664510  47.5573136  94.1295928  94.2648199  47.5933595  94.3428294
  95.5054330  46.9804098  95.3764979  96.0585369  47.3999551  96.0355002
  95.7424417  46.0539846  95.4187935  91.5287430  52.9691171 111.1567743
  91.4284157  53.9185528 111.0879834  91.3108972  52.6409410 110.2843813
  90.7300501  50.2176096  87.7408420  91.5919665  50.5430995  88.0004238
  90.9150845  49.4307592  87.2281486  82.7467917  58.2998436 100.0188609
  82.0531388  57.8852389  99.5058563  83.4940908  58.3418972  99.4222028
  98.8833137  49.0904623  94.8843643  98.3031807  49.7489427  94.5021696
  98.6169070  48.2681967  94.4731061  97.3336704  48.4909680  97.0864963
  97.8336482  48.6026215  96.2779282  97.9772312  48.1870733  97.7265772
  91.3918700  56.3988310 109.9732804  90.9085781  57.1988670 110.1796693
  91.4779639  56.4096255 109.0200248  84.6604659  58.2316690  97.8954624
  84.6375347  58.3304377  96.9436507  84.9705296  59.0781841  98.2171790
  87.3192037  60.2892845 102.0101238  88.2735291  60.2576787 101.9431170
  87.1204561  59.8283469 102.8251464  87.9091419  58.8593961 104.5772036
  88.7284308  59.3538039 104.6006873  88.1828227  57.9425929 104.5489603
  97.6658015  51.2504713  93.9399991  96.7783871  51.5354364  93.7220186
  98.0812005  51.0898476  93.0927268 101.0172552  51.2751234  97.6554331
 101.7932942  51.7647687  97.9278947 100.2920686  51.7009288  98.1126200
 103.4545110  51.9878853  98.7128271 104.0489601  51.7474589  98.0021580
 103.5271694  51.2685984  99.3401808  85.6742266  65.8312464  99.0271436
  85.5396734  65.0712865  98.4609434  85.2574328  66.5553364  98.5600225
  96.8101229  61.0149388  88.0348011  97.5137079  61.2199390  88.6505667
  96.0863878  61.5826150  88.2997095  97.6399039  56.7659249  94.1550282
  97.5834241  57.2227800  93.3157914  98.1927382  56.0049934  93.9773124
 101.4503845  52.5548981  94.9800401 101.1940779  52.1545617  95.8108609
 100.8256713  53.2692775  94.8550540 105.7616183  55.2945054  97.4871692
 105.2015741  55.3638243  98.2603255 105.1559686  55.1186039  96.7671189
  88.8311392  66.7281781  99.2389879  88.7143776  67.6727214  99.1368569
  88.0103838  66.4255343  99.6275678  98.7187926  61.4531917  90.0846471
  99.5533530  61.0213115  89.9023946  98.5572269  61.2813931  91.0123366
  98.3733819  57.9564030  91.4502811  98.3182622  57.7908302  90.5091255
  97.7479874  58.6640063  91.6065000  83.1626334  53.1932095 105.2764233
  83.8085197  52.6831049 105.7651458  82.9543485  53.9300776 105.8507658
  95.6879726  60.2612942 110.7756374  96.5570885  60.4353594 110.4143008
  95.2086477  61.0807359 110.6532103  91.6829944  47.4572139  91.0288129
  91.6708614  48.4013979  91.1856400  92.5753366  47.2742285  90.7347590
  89.8565906  67.3810043 102.4545807  90.7593153  67.4133653 102.7712302
  89.6303276  66.4510494 102.4692143  91.6119508  66.1341030  99.1155886
  90.6615139  66.1342891  99.0020258  91.9151994  65.3873764  98.5991920
  95.4982063  44.0514916  95.2834066  94.7314459  43.4973403  95.4290748
  95.9092768  44.1236785  96.1448218  87.5023825  50.3399712 109.3739247
  88.3655286  49.9836517 109.5842572  86.9289235  50.0013607 110.0614651
 107.3472201  71.9701568 100.1801648 107.9850611  71.8508315  99.4764988
 107.2293044  72.9182412 100.2389600 104.1561908  71.9228996 100.1163173
 103.8180419  71.8070061  99.2283708 105.0251676  71.5220161 100.0964179
 100.0148723  73.7764473  96.1060064  99.4513589  73.6854410  95.3376352
  99.9001118  72.9564377  96.5862556 104.6381691  73.0763848 106.0749378
 104.6270331  72.6816646 105.2029882 104.8002330  72.3429921 106.6683150
  97.5613155  75.2715664  98.9444284  98.3534447  74.9306489  98.5290584
  97.8009806  75.3810639  99.8646438 105.5948282  77.4435440  91.4174529
 104.9436262  78.0289521  91.0308543 106.3892645  77.9741635  91.4769566
  99.5203909  74.5324577  91.8161663 100.2934785  73.9853565  91.6774539
  99.8729308  75.3968827  92.0276124 101.3588952  75.8600960 105.0228562
 101.0678818  76.7646591 104.9075229 101.9945936  75.9017487 105.7372632
 102.2845159  73.2377808 101.6129922 102.8808731  73.0133831 100.8986885
 102.3420130  72.4962554 102.2155370 101.8570187  70.6917244  89.4480113
 102.1095708  70.1698765  88.6863576 100.9194746  70.5283389  89.5506797
 106.9013470  69.6953022  97.2554856 107.6876559  69.2772445  96.9045273
 107.1652174  70.5999114  97.4236505 107.0723547  75.1325872  91.9543513
 106.4369380  75.2060499  92.6664418 106.7420954  75.7219471  91.2762592
 112.3021897  69.6328255  98.1587835 113.0347069  69.0627472  98.3925664
 111.5461253  69.2449856  98.5994340 101.5766476  72.5945350  91.6504488
 101.4602734  71.9190253  92.3185572 101.6868736  72.1077723  90.8336641
 103.9198017  72.0555497  95.3551177 103.5556224  71.5286118  96.0664099
 104.7765133  71.6653966  95.1817663 109.8247317  63.3449829 102.6182443
 109.4930642  64.2145240 102.3943658 109.2292931  63.0286113 103.2976474
 103.5603504  67.0845396  90.3512526 103.7277906  67.9525633  90.7182997
 103.3700673  67.2472678  89.4273815 106.3178837  75.5462375 102.0178356
 106.0179560  76.4487414 101.9094163 105.9729896  75.2794558 102.8699509
  99.7691318  71.9976172  98.0515061  98.8441815  71.8652386  98.2592752
 100.0175732  72.7770391  98.5485003 109.7175981  68.0644915  99.6975793
 108.8092858  67.9960324  99.4034554 109.6663577  68.5416860 100.5257619
 103.5392725  69.5403054  91.3359193 103.4192350  69.9860105  92.1744673
 102.8445313  69.8888372  90.7772731  97.1300129  71.6409446  98.8858850
  97.2592511  71.8943925  99.7998261  96.4497581  72.2337154  98.5663505
 101.2999617  82.3106696  94.9849324 101.2223646  83.2614521  95.0637804
 100.6961260  81.9652568  95.6424250 103.7916847  69.4834561 107.6410691
 103.0150181  70.0428481 107.6313555 104.4307410  69.9691344 108.1625561
 111.5837627  66.2661354 101.4753667 110.9412007  66.5593887 100.8293462
 111.0792556  66.1514274 102.2806864 109.2377791  70.0124527  92.1639527
 110.1495647  70.2451914  91.9887224 108.7287438  70.5961571  91.6014605
 102.0463219  72.2920014 107.2028658 102.7877903  72.8305058 106.9263481
 101.3400204  72.9186303 107.3600209 107.5218558  74.4349155 105.8000819
 107.9301914  73.9931565 105.0555452 106.7995820  73.8601782 106.0535012
 103.8749629  69.3721762 103.1734376 104.7210824  69.7961175 103.3169025
 103.8148266  68.7155386 103.8672939 107.8447373  74.9950345  99.5553108
 107.2156236  75.1596060  98.8529176 107.4573035  75.4091955 100.3264072
 111.7236605  75.9304783  96.9097472 111.0387643  76.3103685  96.3594505
 111.8080454  76.5400110  97.6429420 107.0249074  67.0326130 104.8315550
 106.7810006  67.7868191 104.2949825 107.3009004  67.4111478 105.6662797
 108.9787537  73.5764742 103.5092815 109.1904432  74.2196502 102.8327196
 108.9317285  72.7427059 103.0414745 106.5813766  66.1882563 100.4129387
 105.7198245  66.4863817 100.7046125 106.6076200  66.4052962  99.4810420
 103.3975335  74.7324754  96.8203193 103.8613681  75.0112457  96.0307816
 103.1332133  73.8308198  96.6376284 100.2899416  74.2796235  99.7582956
 100.8600773  74.7083503  99.1200441 100.8807528  73.9978820 100.4567142
 102.3344221  70.8547906  93.6292758 103.0368264  71.3068950  94.0966685
 102.0024850  70.2131725  94.2572651 100.7824583  69.4459663 108.0043968
 100.1523243  70.1275943 108.2379365 100.6760670  69.3342744 107.0597106
  96.0769555  69.1131459  98.9309892  95.2868609  69.3688987  98.4550002
  96.5680802  69.9279796  99.0361932 110.0933365  76.4536698 101.6815173
 110.9150808  76.0516885 101.3997854 110.0895767  76.3504932 102.6331288
  98.0284300  69.4776038  95.8893369  97.2315464  69.5894732  96.4076864
  97.8009893  69.8162690  95.0234259 103.8589968  76.0020741 103.8375883
 103.9234401  76.4641148 104.6734055 103.1500892  75.3718106 103.9658193
  94.3607258  69.3661949 101.3624883  94.6115296  70.2508959 101.6282459
  94.8966806  69.1866551 100.5899974 118.1839358  72.7975446  98.0300144
 117.4303066  72.2282844  97.8744149 118.3186899  72.7638111  98.9770779
 103.5737986  77.6688849  93.7054864 103.4383660  78.5140384  94.1339711
 104.1147798  77.8708126  92.9420797 100.0605325  63.7480428 110.3669219
  99.6672271  63.1946627 111.0416863 100.8771466  64.0591007 110.7575736
  97.0267383  75.1864287  94.2782789  97.5391904  75.9807537  94.4288353
  97.6790096  74.4890577  94.2116390  98.8362268  78.3030043  96.3605542
  99.0128896  79.2248008  96.1726526  99.6319101  77.9888462  96.7899922
 102.9773286  65.1638307 107.9589475 103.7183000  65.7645461 107.8793938
 103.2091209  64.4215945 107.4007518  98.1214624  70.3494675 106.2367705
  98.0068139  69.4479932 106.5374804  97.2659142  70.5958372 105.8852522
 105.2006462  78.2912415 107.8355206 104.7570316  77.5048794 107.5176110
 105.8623676  78.4791566 107.1699096  99.9593583  79.8208217 102.3615884
 100.5101008  79.6925280 101.5892878  99.1205059  80.1203106 102.0110777
 107.2987700  78.5715215 105.8636607 107.2806175  79.3924096 105.3716876
 108.2207620  78.4469290 106.0886748 103.7560754  76.0859344 106.7060115
 104.2889091  75.3247633 106.4759423 103.2274835  75.7932996 107.4484270
 106.9230449  61.1919410 102.2353757 106.5794719  62.0821052 102.1592868
 107.2909412  61.0021068 101.3723342  94.9916300  73.5152941  95.0542359
  95.8291522  73.9249949  94.8376067  95.1694568  72.5752383  95.0242553
 106.8880732  71.1828022  90.7426192 106.3727355  71.9532626  90.9814579
 106.6158040  70.5093158  91.3659254 104.4727843  66.0277722  95.8011430
 103.6169439  65.6384573  95.6217069 104.8854795  66.1069683  94.9411216
 106.0026990  63.5624066 100.2002990 105.4991785  63.5254201  99.3870796
 106.2957596  64.4716808 100.2599647 102.2469876  63.6462795  99.2069172
 103.1122872  63.4505604  98.8475061 102.3147384  63.4173147 100.1338529
 111.8615006  73.9360376  92.6779366 111.0844449  73.5971536  92.2334528
 112.5406487  73.9412999  92.0034331 106.6767035  69.0555114  92.5685973
 106.3717171  69.3701263  93.4196116 107.6297477  69.1336534  92.6113306
 105.1213467  75.2145337  94.2178927 104.5934829  74.4798097  93.9052165
 104.6200970  75.9920013  93.9718896 110.1006313  73.4094357  99.3345974
 109.4429987  74.0993619  99.4226102 110.9046712  73.7990789  99.6779960
  99.8532195  65.8765003  96.5785539 100.4275946  65.6540185  95.8458732
 100.4403177  65.9453698  97.3314140 108.9111772  71.7638730  97.3849915
 109.4243654  72.3968722  97.8871625 109.5612996  71.1639926  97.0193275
 100.1801782  67.9069464  90.5981424  99.3439094  68.2444151  90.9190699
 100.0406551  67.7718444  89.6608561 102.1554862  62.7506252  95.3060608
 101.5019275  62.4355269  94.6817223 102.1135336  62.1281993  96.0320431
 103.2666067  73.0325547  87.2213900 102.3593129  72.8014801  87.4205049
 103.7637099  72.2363166  87.4087882 106.1734146  81.7423054  90.1410586
 105.4995845  82.0454751  90.7495544 106.5599968  82.5452135  89.7916044
 105.3892603  69.2388186  99.6308256 104.4715164  69.4603133  99.4729944
 105.8052746  69.3134496  98.7719963 106.1727650  70.6379601  94.7610936
 106.9199469  71.1500999  94.4518058 106.4419240  70.3163654  95.6215330
 104.4454301  73.1338142  91.7437890 103.5365520  72.8497175  91.8410360
 104.4749384  73.5537221  90.8841197 109.6773568  76.7444732  95.5129058
 109.2235895  75.9035641  95.5694248 109.0467535  77.3806130  95.8503838
 108.6206488  67.6736718  96.7429725 107.8829244  67.1614104  97.0739968
 108.8733261  67.2337099  95.9313002 108.1206507  78.5821228  96.4478876
 108.4129482  79.1426285  95.7291242 108.6305128  78.8749789  97.2032035
 108.7218115  60.4512970  97.3371495 109.0276992  59.5910333  97.0497410
 109.4470720  61.0430590  97.1370489  95.0142471  70.8543656  95.7253093
  94.8166871  70.2613017  95.0004159  94.4589135  70.5495866  96.4429031
 102.9939195  70.7466763  97.8447686 103.0487804  69.7940599  97.7690162
 102.1830397  70.9026202  98.3288984 104.1430388  74.6746886  89.0825969
 103.7049818  73.9582745  88.6231606 104.8840829  74.9023001  88.5211060
 100.9331555  69.3643822  95.6038065 100.1199420  69.6637993  96.0103257
 101.4290549  68.9699511  96.3212547 103.0840132  79.3601579  97.5372329
 103.0416311  79.5862426  96.6080861 104.0002831  79.1264954  97.6858130
 106.5305766  69.8285647 104.4352958 106.8855154  70.0557120 105.2947424
 107.1777897  70.1604024 103.8130214 112.2603503  72.9504083  95.1402288
 112.1221402  73.1405679  94.2123477 111.9039722  73.7123466  95.5970339
 100.4245629  66.9362178 101.2199300 101.0645009  66.7950937 100.5222263
  99.5923160  66.6496691 100.8437902 112.2872883  75.0180610 100.1513559
 112.7209389  74.9255899 100.9996613 113.0004463  74.9938110  99.5133575
 101.2005933  76.2364608  97.3334292 101.9946532  75.7414929  97.1316867
 100.4897626  75.7082472  96.9701998 106.0200778  78.6182704 101.6846660
 106.0737800  79.1873640 102.4524376 105.1515559  78.7884589 101.3200697
  97.5088697  70.3807690  93.4094045  96.5786285  70.3192146  93.6264007
  97.6046169  69.8583643  92.6130686  97.4274246  66.9062503  95.9972286
  97.6881063  67.8207836  95.8881447  98.2491418  66.4386946  96.1468899
  98.8999171  68.3200260 103.1671111  99.5722224  68.1117622 102.5183760
  98.0728958  68.1222346 102.7276343 113.1488432  75.0604310 102.6846444
 113.3424322  75.9650121 102.9305719 113.0489051  74.6011730 103.5185029
 104.8024743  64.9462201 105.1836772 104.1552658  65.6452151 105.0901248
 105.5725758  65.3798345 105.5513020 108.2103541  75.2111053 108.2587325
 108.0589047  74.9821605 107.3417409 108.2008220  76.1681655 108.2718670
 104.9788877  72.7842966 103.2433591 105.9080937  72.9354126 103.0702559
 104.5579907  72.8726987 102.3882238 103.7777209  76.8093630 101.0132129
 103.6388295  76.4412415 101.8858067 102.9891805  77.3241270 100.8416087
 104.3725361  81.9102727  92.3557666 104.5477117  81.4390770  93.1703288
 103.6858149  82.5368493  92.5838926 105.3282424  76.1875233  98.4020967
 104.9932257  76.1476003  99.2978617 104.8286370  75.5219949  97.9291377
  99.3026668  71.5942863 103.9273548  99.1646466  70.8623102 104.5285087
 100.2131592  71.5051763 103.6457736 108.2641616  73.5331267  88.6758027
 107.6470787  72.8078096  88.5791079 107.7958104  74.2940628  88.3325101
 101.9308969  71.3062822 103.4157228 102.6408588  70.6656015 103.3743846
 101.8878277  71.5575717 104.3383408 109.9195748  78.2430176 106.3363807
 109.8608294  77.5589396 105.6694390 110.3215266  78.9849166 105.8844433
 100.6437903  68.2928040 105.2352867 100.1075260  67.8418779 105.8874463
 100.0554611  68.4273949 104.4923332  98.9386446  85.0592090  99.1297526
  99.1783045  85.6910614  99.8076544  98.0955643  84.7080130  99.4162885
 100.0540162  67.7516692  87.7979331  99.1769628  67.6305492  87.4341577
 100.5297915  66.9602770  87.5458219 109.9213155  76.2069760 104.5677787
 109.0339934  75.8695681 104.6904185 110.4911706  75.4752791 104.8046552
  91.5742302  72.5393851  97.8920838  92.2613342  72.2255581  97.3041853
  91.4190431  73.4435216  97.6188089  96.3777024  67.4284048 102.3205862
  96.2935213  66.8209718 101.5856272  95.5559731  67.9193066 102.3215358
 103.4514308  80.8671212 101.5339030 103.3784480  81.6726184 102.0458334
 103.0091701  81.0663178 100.7087051 103.2404088  80.1042982  95.0441851
 102.4571610  80.6464662  95.1380076 103.9396833  80.6216962  95.4436092
 106.5500738  65.9137612  97.6876057 107.0469438  65.1607574  97.3677127
 105.7787720  65.9501928  97.1219266 114.4030495  71.6177977  99.3294348
 114.3920372  72.5002692  98.9588281 113.5347875  71.2649528  99.1348885
 105.9112992  80.7658046 103.6897188 106.6240964  81.4005511 103.6173090
 105.4203020  80.8621912 102.8737190 107.6330519  74.6709299  95.2614480
 106.6986797  74.7910761  95.0919184 107.8107187  73.7681766  94.9974490
 103.1335707  68.0554995  97.4147741 102.7633494  67.5026035  98.1028647
 103.6294799  67.4513128  96.8622741 111.0203070  70.5126618  95.7964514
 111.4863522  71.3454610  95.7224817 111.4710571  70.0471600  96.5009773
 100.9624905  78.5152490 104.5102759 101.6634365  79.1488973 104.6632153
 100.4920020  78.8567221 103.7498399 109.0879301  76.8570439  92.7950666
 109.3639145  76.7427034  93.7044540 108.2183800  76.4587924  92.7562839
 108.9919733  62.8807205  99.8355416 108.0782813  63.1111432 100.0037623
 109.4212834  62.9645649 100.6869448 108.7626191  71.0697097 102.3355310
 108.1097642  71.3173004 101.6807762 109.1406571  70.2561235 102.0017787
 105.7233365  81.1056790  96.4383480 105.9055760  80.2878446  96.9011232
 106.5466351  81.3224482  96.0008370 106.0575531  80.0324975  93.6998528
 106.5863297  79.5217430  93.0868690 106.3203750  79.7167506  94.5644061
 104.8113764  71.8116908 108.8221347 104.1354401  71.7111037 109.4923722
 105.6341398  71.6556122 109.2857344  96.5592623  78.0488845 101.4433862
  97.1446060  77.3032532 101.5761766  96.3617462  78.3592801 102.3270526
  99.4131279  81.0840092  96.4596304  98.7441654  81.5686220  95.9760344
  99.2744148  81.3309312  97.3739683  91.1510278  70.6194445 100.1638305
  91.1894378  70.0858035 100.9575423  90.6450571  70.0929650  99.5449282
 103.5536547  83.1183835 103.0578963 104.1054855  83.2815457 103.8228048
 103.8942741  83.7088273 102.3858988  98.5301040  65.4658985 103.6600847
  98.5942367  66.3273816 103.2478245  98.4668161  64.8532987 102.9273206
  98.0053313  67.5382118 107.3073882  98.6325352  67.1559195 107.9211406
  97.1481232  67.3196320 107.6729574 108.4047422  77.9445093 108.9127617
 108.9487326  78.5575051 108.4182572 107.8234266  78.5024671 109.4294630
  94.7818856  69.3458547  93.2392236  95.0772297  68.4369225  93.1859290
  93.8806892  69.3246286  92.9173239 106.6904935  81.0665811 100.0442645
 106.5656074  80.2655551  99.5353590 107.3484026  81.5612004  99.5556615
  98.3113103  67.4214544  99.2219785  97.5899689  68.0350511  99.0827258
  99.1006359  67.9572308  99.1436431 108.7539843  78.8674831 101.6722195
 107.8070178  78.7480182 101.6000522 109.1022616  77.9797329 101.7548456
 101.1139416  64.7568970 105.4960437 101.6373818  65.0031267 106.2586746
 100.8951750  65.5889005 105.0763574  96.5106697  67.0272645  93.3631562
  96.1819403  66.1470024  93.1806668  96.8646068  66.9720313  94.2507951
 105.7586276  78.6627547  97.8726547 105.6111239  77.7344255  98.0534117
 106.5839770  78.6847638  97.3883622  99.6248521  67.3145614  93.7307039
  99.9644593  67.8431536  93.0085648 100.0720641  67.6526021  94.5065606
 109.3620398  79.4856106  98.9591420 110.2866946  79.2798967  98.8215871
 109.1935701  79.2372507  99.8680761 102.3191961  65.6982665 103.1810107
 101.9788782  64.8990478 103.5830787 101.6130968  65.9984376 102.6086941
 102.9708433  62.7831978 101.6337430 103.7934502  62.3092456 101.5116321
 103.2146497  63.5622461 102.1336117 101.6116668  65.8120236  91.9300332
 102.3325030  66.1901489  91.4264049 100.9881972  66.5309113  92.0335310
 105.7547791  66.5165385  92.8658664 105.9711405  67.3990023  92.5647493
 105.2741858  66.1251598  92.1364306 100.4947012  69.4751098  99.4429409
 100.3491593  69.7891401 100.3353691 100.0172216  70.0935999  98.8900308
 102.3543395  66.4653646  99.4910299 102.3404964  65.5694739  99.1542596
 103.0715823  66.4724310 100.1248585 104.2069526  66.8990986 101.5363426
 103.9487303  67.8208057 101.5347756 103.6754566  66.5021421 102.2263890
 109.1515714  80.0041773  94.3153511 109.3252592  79.4388196  93.5627364
 109.6444605  80.8042668  94.1333001  94.9692674  72.0156443 102.3817070
  94.4246142  72.7916251 102.5137345  95.8472024  72.3627247 102.2236192
 101.7580291  65.3468026  94.7597869 101.8796202  64.4184673  94.9588756
 101.4682333  65.3606712  93.8476184 104.6271481  63.0322937  97.8964589
 104.6493178  63.0962270  96.9416568 105.0439540  62.1927446  98.0905095
 115.0055105  72.7678196  95.9343811 115.4486251  72.0185522  95.5362934
 114.1281616  72.7588333  95.5517543 110.1390887  79.3208538  91.4150410
 110.8341791  79.9415231  91.6337724 110.4814037  78.4703889  91.6902788
  95.7558696  71.1426339 105.2747227  95.0140432  71.2908974 105.8611857
  95.4351440  71.4034604 104.4113976 112.0382310  76.7708243  92.9437740
 112.5633634  77.1095516  92.2187060 111.9504662  75.8355259  92.7600875
 103.7002359  80.6842317 105.0727617 104.0089485  80.4391464 105.9450317
 104.4977841  80.8888956 104.5846487 103.7222971  82.8380227  97.3032994
 103.2827961  82.3456605  97.9965850 104.4731088  82.2953194  97.0625069
  96.2015310  79.0291768  97.3057622  97.0273330  78.7295539  96.9256265
  95.8509362  78.2599390  97.7547410 101.1696843  78.3818236  99.3755295
 100.5476852  77.7188941  99.0757523 101.8401710  78.4079368  98.6928943
  94.4023915  76.9478094  98.2646555  93.5655823  76.5200268  98.0830557
  94.3747560  77.1410537  99.2017346 101.2421370  66.8600024 108.9687801
 101.2909526  67.7362147 108.5865571 101.7843884  66.3177417 108.3959445
 111.7276216  77.4041147 108.2488938 110.9371760  77.3865286 107.7093438
 111.4909571  77.9429441 109.0037975 111.8474091  74.2533613 105.5621667
 111.8972096  74.0883621 106.5037190 111.7388014  73.3860872 105.1719548
 100.7310350  76.9322159  92.8513756 100.8798470  77.6157624  92.1980429
 101.5376793  76.9127249  93.3663212 109.1377853  70.2364541 106.8780974
 110.0387716  70.0971006 106.5864971 109.2125828  70.4018996 107.8179151
 103.4720659  67.6131396 105.7234160 102.6023968  67.9064962 105.4516748
 103.7080139  68.1971841 106.4441424 113.3492288  76.6730555 105.8063688
 113.0577096  77.0360536 106.6427149 112.7364419  75.9597563 105.6277021
 114.5487970  74.2383435  98.3266259 115.3834862  74.6773239  98.4903819
 114.6847099  73.7622088  97.5074504 111.5979476  71.7963170 104.2743746
 112.0733598  71.9890816 103.4662598 110.6745041  71.8522355 104.0287130
  98.4862983  72.9587337  93.8574825  98.2409025  72.0549667  94.0555035
  98.6558897  72.9604487  92.9154303 106.1759693  63.8311013 103.2399580
 106.6941636  64.5672040 102.9146069 105.8214825  64.1375006 104.0746339
  97.7558630  68.6915694  91.3560986  97.0627875  68.7660049  90.7001022
  97.5110382  67.9276038  91.8782503 106.4272287  60.2511296  98.7600477
 106.7074040  59.5834485  99.3860903 107.2122894  60.4440391  98.2475141
 104.2305755  79.4270290  90.3225503 103.6579722  80.0460477  89.8695975
 104.8038549  79.9769651  90.8565425 110.2981145  68.6728930 102.5072052
 111.2498568  68.7727027 102.5284276 110.1284595  67.8807198 103.0170136
 108.3195525  65.7584513 102.6931453 107.7245457  66.0389526 101.9977942
 108.0345221  66.2478414 103.4648194 107.4503015  79.7107440  91.4534086
 108.3833688  79.6453001  91.6566961 107.3626228  80.5463707  90.9948618
 110.0791032  79.0273310  88.4138033 110.0004663  78.6933174  89.3073791
 110.9000698  79.5195078  88.4129505 112.7769223  71.8935049 101.6214352
 112.7445543  70.9551050 101.8074036 113.3869846  71.9719086 100.8880177
 104.6152554  70.7631102  87.6641556 105.5611658  70.6337310  87.7329974
 104.2366799  70.0245764  88.1410984 112.9263711  68.6846093 101.6672635
 112.4102760  67.9004549 101.4802564 113.8103660  68.3564809 101.8319154
 110.5874438  62.4287108  97.6268448 110.3899259  62.1202197  98.5111780
 111.1974144  63.1548747  97.7566377 118.5945773  72.9551056 100.7620388
 119.3249161  72.6936344 101.3228092 117.9852718  72.2179778 100.8022456
 116.6761070  71.0958919 101.3594840 115.9494233  70.9614884 100.7511331
 116.2608357  71.4035747 102.1651558 104.4991246  74.8148848 109.1242213
 105.4194256  74.9927447 109.3182259 104.4640829  73.8704894 108.9721912
 102.7995471  68.6881079  87.5996441 101.8926926  68.3914191  87.6759155
 103.0771452  68.3910897  86.7330727  93.7173411  70.0087442  98.0495487
  93.3976196  69.1552750  97.7569861  93.1706839  70.2236020  98.8053455
  97.4953319  72.7249883 101.7664994  97.7139329  73.6566991 101.7853028
  97.9079093  72.3657858 102.5519798 104.4157537  63.2317968  93.7540682
 103.6058265  62.8865053  94.1295928 105.1041954  62.9225512  94.3428294
 106.3448085  62.3096015  95.3764979 106.8979123  62.7291469  96.0355002
 106.5818171  61.3831763  95.4187935 102.3681184  68.2983089 111.1567743
 102.2677911  69.2477446 111.0879834 102.1502726  67.9701328 110.2843813
 101.5694255  65.5468014  87.7408420 102.4313419  65.8722912  88.0004238
 101.7544600  64.7599510  87.2281486  93.5861671  73.6290354 100.0188609
  92.8925143  73.2144306  99.5058563  94.3334662  73.6710890  99.4222028
 109.7226892  64.4196540  94.8843643 109.1425561  65.0781344  94.5021696
 109.4562825  63.5973885  94.4731061 108.1730458  63.8201598  97.0864963
 108.6730237  63.9318133  96.2779282 108.8166066  63.5162651  97.7265772
 102.2312454  71.7280228 109.9732804 101.7479536  72.5280588 110.1796693
 102.3173393  71.7388173 109.0200248  95.4998414  73.5608607  97.8954624
  95.4769102  73.6596295  96.9436507  95.8099050  74.4073758  98.2171790
  98.1585792  75.6184762 102.0101238  99.1129045  75.5868705 101.9431170
  97.9598315  75.1575386 102.8251464  98.7485174  74.1885878 104.5772036
  99.5678063  74.6829957 104.6006873  99.0221981  73.2717847 104.5489603
 108.5051770  66.5796631  93.9399991 107.6177625  66.8646281  93.7220186
 108.9205759  66.4190394  93.0927268 111.8566306  66.6043152  97.6554331
 112.6326696  67.0939604  97.9278947 111.1314440  67.0301206  98.1126200
 114.2938865  67.3170771  98.7128271 114.8883356  67.0766507  98.0021580
 114.3665448  66.5977902  99.3401808  96.5136020  81.1604382  99.0271436
  96.3790488  80.4004783  98.4609434  96.0968083  81.8845282  98.5600225
 107.6494983  76.3441305  88.0348011 108.3530834  76.5491308  88.6505667
 106.9257632  76.9118067  88.2997095 108.4792794  72.0951167  94.1550282
 108.4227995  72.5519718  93.3157914 109.0321136  71.3341851  93.9773124
 112.2897600  67.8840899  94.9800401 112.0334534  67.4837534  95.8108609
 111.6650468  68.5984693  94.8550540 116.6009937  70.6236972  97.4871692
 116.0409495  70.6930161  98.2603255 115.9953441  70.4477956  96.7671189
  99.6705146  82.0573699  99.2389879  99.5537530  83.0019131  99.1368569
  98.8497593  81.7547261  99.6275678 109.5581681  76.7823835  90.0846471
 110.3927285  76.3505033  89.9023946 109.3966024  76.6105848  91.0123366
 109.2127573  73.2855948  91.4502811 109.1576377  73.1200219  90.5091255
 108.5873628  73.9931981  91.6065000  94.0020088  68.5224012 105.2764233
  94.6478952  68.0122966 105.7651458  93.7937239  69.2592694 105.8507658
 106.5273480  75.5904860 110.7756374 107.3964640  75.7645512 110.4143008
 106.0480232  76.4099277 110.6532103 102.5223698  62.7864057  91.0288129
 102.5102368  63.7305897  91.1856400 103.4147120  62.6034202  90.7347590
 100.6959660  82.7101961 102.4545807 101.5986907  82.7425571 102.7712302
 100.4697030  81.7802412 102.4692143 102.4513262  81.4632947  99.1155886
 101.5008893  81.4634809  99.0020258 102.7545749  80.7165682  98.5991920
 106.3375818  59.3806834  95.2834066 105.5708214  58.8265320  95.4290748
 106.7486523  59.4528702  96.1448218  98.3417579  65.6691629 109.3739247
  99.2049041  65.3128434 109.5842572  97.7682990  65.3305524 110.0614651
 118.1865956  87.2993486 100.1801648 118.8244366  87.1800233  99.4764988
 118.0686799  88.2474330 100.2389600 114.9955662  87.2520914 100.1163173
 114.6574174  87.1361979  99.2283708 115.8645430  86.8512079 100.0964179
 110.8542478  89.1056390  96.1060064 110.2907343  89.0146327  95.3376352
 110.7394873  88.2856295  96.5862556 115.4775445  88.4055766 106.0749378
 115.4664086  88.0108564 105.2029882 115.6396085  87.6721838 106.6683150
 108.4006910  90.6007582  98.9444284 109.1928202  90.2598407  98.5290584
 108.6403560  90.7102557  99.8646438 116.4342037  92.7727358  91.4174529
 115.7830016  93.3581438  91.0308543 117.2286399  93.3033553  91.4769566
 110.3597664  89.8616495  91.8161663 111.1328540  89.3145482  91.6774539
 110.7123063  90.7260744  92.0276124 112.1982706  91.1892877 105.0228562
 111.9072572  92.0938508 104.9075229 112.8339691  91.2309405 105.7372632
 113.1238913  88.5669726 101.6129922 113.7202485  88.3425748 100.8986885
 113.1813885  87.8254471 102.2155370 112.6963942  86.0209161  89.4480113
 112.9489462  85.4990683  88.6863576 111.7588501  85.8575307  89.5506797
 117.7407224  85.0244940  97.2554856 118.5270314  84.6064363  96.9045273
 118.0045929  85.9291032  97.4236505 117.9117302  90.4617790  91.9543513
 117.2763135  90.5352416  92.6664418 117.5814708  91.0511389  91.2762592
 123.1415652  84.9620173  98.1587835 123.8740823  84.3919390  98.3925664
 122.3855007  84.5741773  98.5994340 112.4160230  87.9237267  91.6504488
 112.2996488  87.2482171  92.3185572 112.5262490  87.4369641  90.8336641
 114.7591771  87.3847414  95.3551177 114.3949979  86.8578035  96.0664099
 115.6158887  86.9945883  95.1817663 120.6641072  78.6741747 102.6182443
 120.3324397  79.5437158 102.3943658 120.0686685  78.3578031 103.2976474
 114.3997258  82.4137314  90.3512526 114.5671661  83.2817550  90.7182997
 114.2094427  82.5764596  89.4273815 117.1572591  90.8754293 102.0178356
 116.8573315  91.7779332 101.9094163 116.8123651  90.6086476 102.8699509
 110.6085073  87.3268090  98.0515061 109.6835569  87.1944304  98.2592752
 110.8569486  88.1062309  98.5485003 120.5569735  83.3936833  99.6975793
 119.6486613  83.3252242  99.4034554 120.5057331  83.8708778 100.5257619
 114.3786479  84.8694972  91.3359193 114.2586104  85.3152022  92.1744673
 113.6839068  85.2180289  90.7772731 107.9693884  86.9701363  98.8858850
 108.0986265  87.2235842  99.7998261 107.2891335  87.5629071  98.5663505
 112.1393371  97.6398613  94.9849324 112.0617401  98.5906438  95.0637804
 111.5355015  97.2944486  95.6424250 114.6310601  84.8126479 107.6410691
 113.8543935  85.3720399 107.6313555 115.2701164  85.2983262 108.1625561
 122.4231382  81.5953272 101.4753667 121.7805762  81.8885805 100.8293462
 121.9186310  81.4806192 102.2806864 120.0771545  85.3416445  92.1639527
 120.9889401  85.5743831  91.9887224 119.5681192  85.9253489  91.6014605
 112.8856973  87.6211932 107.2028658 113.6271658  88.1596976 106.9263481
 112.1793959  88.2478221 107.3600209 118.3612313  89.7641073 105.8000819
 118.7695669  89.3223483 105.0555452 117.6389574  89.1893700 106.0535012
 114.7143383  84.7013679 103.1734376 115.5604578  85.1253093 103.3169025
 114.6542021  84.0447304 103.8672939 118.6841128  90.3242263  99.5553108
 118.0549990  90.4887977  98.8529176 118.2966790  90.7383873 100.3264072
 122.5630359  91.2596701  96.9097472 121.8781398  91.6395602  96.3594505
 122.6474209  91.8692028  97.6429420 117.8642828  82.3618048 104.8315550
 117.6203760  83.1160108 104.2949825 118.1402759  82.7403395 105.6662797
 119.8181291  88.9056660 103.5092815 120.0298186  89.5488420 102.8327196
 119.7711039  88.0718977 103.0414745 117.4207520  81.5174481 100.4129387
 116.5591999  81.8155734 100.7046125 117.4469955  81.7344880  99.4810420
 114.2369089  90.0616671  96.8203193 114.7007435  90.3404374  96.0307816
 113.9725888  89.1600116  96.6376284 111.1293171  89.6088153  99.7582956
 111.6994528  90.0375421  99.1200441 111.7201282  89.3270737 100.4567142
 113.1737976  86.1839824  93.6292758 113.8762019  86.6360867  94.0966685
 112.8418604  85.5423642  94.2572651 111.6218337  84.7751580 108.0043968
 110.9916998  85.4567861 108.2379365 111.5154425  84.6634662 107.0597106
 106.9163309  84.4423376  98.9309892 106.1262363  84.6980905  98.4550002
 107.4074557  85.2571714  99.0361932 120.9327119  91.7828615 101.6815173
 121.7544563  91.3808803 101.3997854 120.9289522  91.6796850 102.6331288
 108.8678055  84.8067956  95.8893369 108.0709218  84.9186650  96.4076864
 108.6403647  85.1454608  95.0234259 114.6983722  91.3312659 103.8375883
 114.7628155  91.7933066 104.6734055 113.9894646  90.7010024 103.9658193
 105.2001012  84.6953867 101.3624883 105.4509051  85.5800877 101.6282459
 105.7360561  84.5158468 100.5899974 129.0233112  88.1267364  98.0300144
 128.2696820  87.5574762  97.8744149 129.1580653  88.0930028  98.9770779
 114.4131740  92.9980766  93.7054864 114.2777415  93.8432302  94.1339711
 114.9541553  93.2000044  92.9420797 110.8999080  79.0772346 110.3669219
 110.5066025  78.5238545 111.0416863 111.7165220  79.3882925 110.7575736
 107.8661138  90.5156204  94.2782789 108.3785658  91.3099455  94.4288353
 108.5183850  89.8182495  94.2116390 109.6756022  93.6321961  96.3605542
 109.8522651  94.5539925  96.1726526 110.4712856  93.3180380  96.7899922
 113.8167041  80.4930225 107.9589475 114.5576754  81.0937378 107.8793938
 114.0484964  79.7507863 107.4007518 108.9608379  85.6786592 106.2367705
 108.8461894  84.7771850 106.5374804 108.1052897  85.9250289 105.8852522
 116.0400217  93.6204333 107.8355206 115.5964071  92.8340711 107.5176110
 116.7017430  93.8083483 107.1699096 110.7987338  95.1500134 102.3615884
 111.3494763  95.0217198 101.5892878 109.9598814  95.4495023 102.0110777
 118.1381455  93.9007133 105.8636607 118.1199930  94.7216014 105.3716876
 119.0601375  93.7761208 106.0886748 114.5954509  91.4151262 106.7060115
 115.1282846  90.6539550 106.4759423 114.0668590  91.1224914 107.4484270
 117.7624204  76.5211328 102.2353757 117.4188473  77.4112970 102.1592868
 118.1303166  76.3312986 101.3723342 105.8310054  88.8444859  95.0542359
 106.6685276  89.2541867  94.8376067 106.0088322  87.9044301  95.0242553
 117.7274486  86.5119939  90.7426192 117.2121110  87.2824544  90.9814579
 117.4551795  85.8385075  91.3659254 115.3121597  81.3569640  95.8011430
 114.4563194  80.9676490  95.6217069 115.7248549  81.4361601  94.9411216
 116.8420744  78.8915983 100.2002990 116.3385540  78.8546118  99.3870796
 117.1351351  79.8008726 100.2599647 113.0863630  78.9754713  99.2069172
 113.9516627  78.7797522  98.8475061 113.1541139  78.7465065 100.1338529
 122.7008761  89.2652294  92.6779366 121.9238203  88.9263453  92.2334528
 123.3800242  89.2704917  92.0034331 117.5160790  84.3847031  92.5685973
 117.2110925  84.6993180  93.4196116 118.4691232  84.4628451  92.6113306
 115.9607221  90.5437255  94.2178927 115.4328583  89.8090014  93.9052165
 115.4594724  91.3211931  93.9718896 120.9400067  88.7386275  99.3345974
 120.2823742  89.4285537  99.4226102 121.7440467  89.1282707  99.6779960
 110.6925949  81.2056921  96.5785539 111.2669701  80.9832102  95.8458732
 111.2796932  81.2745615  97.3314140 119.7505526  87.0930648  97.3849915
 120.2637408  87.7260640  97.8871625 120.4006750  86.4931843  97.0193275
 111.0195536  83.2361382  90.5981424 110.1832848  83.5736068  90.9190699
 110.8800306  83.1010362  89.6608561 112.9948617  78.0798170  95.3060608
 112.3413029  77.7647187  94.6817223 112.9529091  77.4573910  96.0320431
 114.1059822  88.3617465  87.2213900 113.1986883  88.1306718  87.4205049
 114.6030854  87.5655084  87.4087882 117.0127901  97.0714972  90.1410586
 116.3389599  97.3746669  90.7495544 117.3993722  97.8744052  89.7916044
 116.2286357  84.5680103  99.6308256 115.3108919  84.7895050  99.4729944
 116.6446501  84.6426414  98.7719963 117.0121405  85.9671519  94.7610936
 117.7593224  86.4792916  94.4518058 117.2812994  85.6455572  95.6215330
 115.2848055  88.4630060  91.7437890 114.3759274  88.1789093  91.8410360
 115.3143139  88.8829138  90.8841197 120.5167322  92.0736649  95.5129058
 120.0629650  91.2327559  95.5694248 119.8861289  92.7098048  95.8503838
 119.4600242  83.0028635  96.7429725 118.7222999  82.4906022  97.0739968
 119.7127016  82.5629017  95.9313002 118.9600262  93.9113146  96.4478876
 119.2523236  94.4718203  95.7291242 119.4698882  94.2041707  97.2032035
 119.5611869  75.7804887  97.3371495 119.8670746  74.9202251  97.0497410
 120.2864474  76.3722507  97.1370489 105.8536225  86.1835574  95.7253093
 105.6560625  85.5904935  95.0004159 105.2982889  85.8787784  96.4429031
 113.8332949  86.0758680  97.8447686 113.8881559  85.1232517  97.7690162
 113.0224151  86.2318119  98.3288984 114.9824143  90.0038803  89.0825969
 114.5443573  89.2874662  88.6231606 115.7234584  90.2314918  88.5211060
 111.7725309  84.6935740  95.6038065 110.9593175  84.9929911  96.0103257
 112.2684303  84.2991429  96.3212547 113.9233887  94.6893497  97.5372329
 113.8810066  94.9154343  96.6080861 114.8396586  94.4556872  97.6858130
 117.3699521  85.1577565 104.4352958 117.7248908  85.3849038 105.2947424
 118.0171652  85.4895941 103.8130214 123.0997258  88.2796000  95.1402288
 122.9615156  88.4697596  94.2123477 122.7433476  89.0415383  95.5970339
 111.2639384  82.2654096 101.2199300 111.9038763  82.1242855 100.5222263
 110.4316914  81.9788609 100.8437902 123.1266637  90.3472527 100.1513559
 123.5603144  90.2547817 100.9996613 123.8398218  90.3230028  99.5133575
 112.0399688  91.5656526  97.3334292 112.8340286  91.0706846  97.1316867
 111.3291380  91.0374389  96.9701998 116.8594532  93.9474622 101.6846660
 116.9131554  94.5165558 102.4524376 115.9909314  94.1176507 101.3200697
 108.3482451  85.7099608  93.4094045 107.4180039  85.6484063  93.6264007
 108.4439923  85.1875561  92.6130686 108.2668000  82.2354421  95.9972286
 108.5274818  83.1499754  95.8881447 109.0885173  81.7678863  96.1468899
 109.7392926  83.6492178 103.1671111 110.4115979  83.4409540 102.5183760
 108.9122712  83.4514264 102.7276343 123.9882187  90.3896228 102.6846444
 124.1818077  91.2942039 102.9305719 123.8882805  89.9303647 103.5185029
 115.6418498  80.2754119 105.1836772 114.9946413  80.9744068 105.0901248
 116.4119513  80.7090263 105.5513020 119.0497296  90.5402971 108.2587325
 118.8982802  90.3113523 107.3417409 119.0401975  91.4973572 108.2718670
 115.8182632  88.1134884 103.2433591 116.7474692  88.2646043 103.0702559
 115.3973662  88.2018904 102.3882238 114.6170964  92.1385548 101.0132129
 114.4782049  91.7704332 101.8858067 113.8285560  92.6533187 100.8416087
 115.2119116  97.2394645  92.3557666 115.3870871  96.7682688  93.1703288
 114.5251904  97.8660411  92.5838926 116.1676179  91.5167151  98.4020967
 115.8326011  91.4767921  99.2978617 115.6680125  90.8511867  97.9291377
 110.1420423  86.9234781 103.9273548 110.0040221  86.1915020 104.5285087
 111.0525346  86.8343681 103.6457736 119.1035370  88.8623185  88.6758027
 118.4864541  88.1370013  88.5791079 118.6351859  89.6232545  88.3325101
 112.7702723  86.6354740 103.4157228 113.4802342  85.9947932 103.3743846
 112.7272032  86.8867635 104.3383408 120.7589502  93.5722093 106.3363807
 120.7002048  92.8881314 105.6694390 121.1609021  94.3141083 105.8844433
 111.4831657  83.6219958 105.2352867 110.9469014  83.1710696 105.8874463
 110.8948366  83.7565867 104.4923332 109.7780201 100.3884007  99.1297526
 110.0176799 101.0202531  99.8076544 108.9349397 100.0372047  99.4162885
 110.8933916  83.0808609  87.7979331 110.0163383  82.9597410  87.4341577
 111.3691669  82.2894688  87.5458219 120.7606909  91.5361677 104.5677787
 119.8733688  91.1987599 104.6904185 121.3305460  90.8044709 104.8046552
 102.4136057  87.8685769  97.8920838 103.1007096  87.5547499  97.3041853
 102.2584185  88.7727134  97.6188089 107.2170779  82.7575966 102.3205862
 107.1328967  82.1501635 101.5856272 106.3953485  83.2484984 102.3215358
 114.2908063  96.1963130 101.5339030 114.2178234  97.0018101 102.0458334
 113.8485456  96.3955096 100.7087051 114.0797842  95.4334900  95.0441851
 113.2965364  95.9756580  95.1380076 114.7790588  95.9508879  95.4436092
 117.3894493  81.2429529  97.6876057 117.8863192  80.4899492  97.3677127
 116.6181474  81.2793846  97.1219266 125.2424250  86.9469895  99.3294348
 125.2314126  87.8294610  98.9588281 124.3741629  86.5941446  99.1348885
 116.7506746  96.0949964 103.6897188 117.4634719  96.7297429 103.6173090
 116.2596775  96.1913830 102.8737190 118.4724273  90.0001216  95.2614480
 117.5380552  90.1202679  95.0919184 118.6500942  89.0973683  94.9974490
 113.9729461  83.3846912  97.4147741 113.6027249  82.8317953  98.1028647
 114.4688554  82.7805046  96.8622741 121.8596825  85.8418536  95.7964514
 122.3257277  86.6746527  95.7224817 122.3104325  85.3763517  96.5009773
 111.8018660  93.8444407 104.5102759 112.5028119  94.4780890 104.6632153
 111.3313775  94.1859139 103.7498399 119.9273056  92.1862357  92.7950666
 120.2032900  92.0718952  93.7044540 119.0577554  91.7879842  92.7562839
 119.8313487  78.2099123  99.8355416 118.9176567  78.4403350 100.0037623
 120.2606589  78.2937567 100.6869448 119.6019946  86.3989015 102.3355310
 118.9491396  86.6464922 101.6807762 119.9800326  85.5853153 102.0017787
 116.5627120  96.4348708  96.4383480 116.7449514  95.6170364  96.9011232
 117.3860106  96.6516400  96.0008370 116.8969285  95.3616893  93.6998528
 117.4257052  94.8509348  93.0868690 117.1597505  95.0459423  94.5644061
 115.6507519  87.1408826 108.8221347 114.9748156  87.0402955 109.4923722
 116.4735153  86.9848039 109.2857344 107.3986378  93.3780762 101.4433862
 107.9839815  92.6324450 101.5761766 107.2011216  93.6884719 102.3270526
 110.2525033  96.4132010  96.4596304 109.5835408  96.8978137  95.9760344
 110.1137903  96.6601230  97.3739683 101.9904033  85.9486362 100.1638305
 102.0288132  85.4149953 100.9575423 101.4844325  85.4221568  99.5449282
 114.3930302  98.4475753 103.0578963 114.9448610  98.6107375 103.8228048
 114.7336495  99.0380191 102.3858988 109.3694795  80.7950903 103.6600847
 109.4336121  81.6565734 103.2478245 109.3061915  80.1824905 102.9273206
 108.8447067  82.8674036 107.3073882 109.4719106  82.4851113 107.9211406
 107.9874986  82.6488237 107.6729574 119.2441176  93.2737011 108.9127617
 119.7881080  93.8866969 108.4182572 118.6628021  93.8316589 109.4294630
 105.6212610  84.6750465  93.2392236 105.9166051  83.7661143  93.1859290
 104.7200646  84.6538204  92.9173239 117.5298689  96.3957729 100.0442645
 117.4049828  95.5947469  99.5353590 118.1877780  96.8903922  99.5556615
 109.1506857  82.7506461  99.2219785 108.4293443  83.3642429  99.0827258
 109.9400113  83.2864226  99.1436431 119.5933597  94.1966749 101.6722195
 118.6463933  94.0772100 101.6000522 119.9416371  93.3089247 101.7548456
 111.9533171  80.0860888 105.4960437 112.4767573  80.3323184 106.2586746
 111.7345504  80.9180923 105.0763574 107.3500452  82.3564562  93.3631562
 107.0213158  81.4761941  93.1806668 107.7039823  82.3012231  94.2507951
 116.5980031  93.9919465  97.8726547 116.4504993  93.0636172  98.0534117
 117.4233524  94.0139556  97.3883622 110.4642275  82.6437532  93.7307039
 110.8038347  83.1723453  93.0085648 110.9114395  82.9817938  94.5065606
 120.2014153  94.8148024  98.9591420 121.1260700  94.6090885  98.8215871
 120.0329456  94.5664425  99.8680761 113.1585716  81.0274583 103.1810107
 112.8182536  80.2282396 103.5830787 112.4524722  81.3276294 102.6086941
 113.8102188  78.1123895 101.6337430 114.6328257  77.6384373 101.5116321
 114.0540251  78.8914379 102.1336117 112.4510422  81.1412154  91.9300332
 113.1718785  81.5193406  91.4264049 111.8275726  81.8601030  92.0335310
 116.5941545  81.8457303  92.8658664 116.8105159  82.7281941  92.5647493
 116.1135612  81.4543516  92.1364306 111.3340766  84.8043016  99.4429409
 111.1885347  85.1183319 100.3353691 110.8565970  85.4227916  98.8900308
 113.1937149  81.7945564  99.4910299 113.1798718  80.8986657  99.1542596
 113.9109577  81.8016228 100.1248585 115.0463280  82.2282904 101.5363426
 114.7881058  83.1499975 101.5347756 114.5148320  81.8313339 102.2263890
 119.9909469  95.3333691  94.3153511 120.1646346  94.7680114  93.5627364
 120.4838360  96.1334586  94.1333001 105.8086429  87.3448360 102.3817070
 105.2639897  88.1208168 102.5137345 106.6865778  87.6919165 102.2236192
 112.5974045  80.6759944  94.7597869 112.7189956  79.7476590  94.9588756
 112.3076088  80.6898630  93.8476184 115.4665236  78.3614855  97.8964589
 115.4886932  78.4254188  96.9416568 115.8833295  77.5219363  98.0905095
 125.8448860  88.0970114  95.9343811 126.2880006  87.3477439  95.5362934
 124.9675370  88.0880250  95.5517543 120.9784641  94.6500456  91.4150410
 121.6735546  95.2707148  91.6337724 121.3207791  93.7995807  91.6902788
 106.5952450  86.4718257 105.2747227 105.8534186  86.6200892 105.8611857
 106.2745195  86.7326522 104.4113976 122.8776064  92.1000161  92.9437740
 123.4027388  92.4387434  92.2187060 122.7898417  91.1647176  92.7600875
 114.5396113  96.0134235 105.0727617 114.8483240  95.7683382 105.9450317
 115.3371595  96.2180873 104.5846487 114.5616725  98.1672144  97.3032994
 114.1221715  97.6748523  97.9965850 115.3124842  97.6245112  97.0625069
 107.0409064  94.3583685  97.3057622 107.8667084  94.0587457  96.9256265
 106.6903116  93.5891308  97.7547410 112.0090597  93.7110153  99.3755295
 111.3870607  93.0480859  99.0757523 112.6795464  93.7371285  98.6928943
 105.2417669  92.2770012  98.2646555 104.4049577  91.8492186  98.0830557
 105.2141315  92.4702455  99.2017346 112.0815125  82.1891942 108.9687801
 112.1303280  83.0654064 108.5865571 112.6237639  81.6469335 108.3959445
 122.5669970  92.7333065 108.2488938 121.7765514  92.7157204 107.7093438
 122.3303325  93.2721358 109.0037975 122.6867845  89.5825531 105.5621667
 122.7365850  89.4175539 106.5037190 122.5781769  88.7152790 105.1719548
 111.5704104  92.2614077  92.8513756 111.7192225  92.9449541  92.1980429
 112.3770548  92.2419167  93.3663212 119.9771608  85.5656459 106.8780974
 120.8781471  85.4262924 106.5864971 120.0519582  85.7310914 107.8179151
 114.3114413  82.9423314 105.7234160 113.4417723  83.2356880 105.4516748
 114.5473894  83.5263759 106.4441424 124.1886042  92.0022473 105.8063688
 123.8970851  92.3652453 106.6427149 123.5758174  91.2889481 105.6277021
 125.3881725  89.5675352  98.3266259 126.2228616  90.0065156  98.4903819
 125.5240853  89.0914006  97.5074504 122.4373231  87.1255087 104.2743746
 122.9127352  87.3182734 103.4662598 121.5138796  87.1814273 104.0287130
 109.3256737  88.2879254  93.8574825 109.0802779  87.3841584  94.0555035
 109.4952652  88.2896405  92.9154303 117.0153447  79.1602931 103.2399580
 117.5335391  79.8963958 102.9146069 116.6608580  79.4666924 104.0746339
 108.5952385  84.0207612  91.3560986 107.9021630  84.0951967  90.7001022
 108.3504137  83.2567956  91.8782503 117.2666041  75.5803213  98.7600477
 117.5467795  74.9126402  99.3860903 118.0516648  75.7732309  98.2475141
 115.0699510  94.7562207  90.3225503 114.4973477  95.3752394  89.8695975
 115.6432303  95.3061569  90.8565425 121.1374900  84.0020847 102.5072052
 122.0892322  84.1018945 102.5284276 120.9678350  83.2099116 103.0170136
 119.1589279  81.0876431 102.6931453 118.5639211  81.3681443 101.9977942
 118.8738976  81.5770332 103.4648194 118.2896769  95.0399357  91.4534086
 119.2227443  94.9744919  91.6566961 118.2019982  95.8755624  90.9948618
 120.9184786  94.3565228  88.4138033 120.8398418  94.0225091  89.3073791
 121.7394453  94.8486996  88.4129505 123.6162977  87.2226967 101.6214352
 123.5839297  86.2842968 101.8074036 124.2263601  87.3011004 100.8880177
 115.4546308  86.0923020  87.6641556 116.4005413  85.9629228  87.7329974
 115.0760553  85.3537682  88.1410984 123.7657466  84.0138010 101.6672635
 123.2496514  83.2296467 101.4802564 124.6497414  83.6856727 101.8319154
 121.4268193  77.7579026  97.6268448 121.2293014  77.4494114  98.5111780
 122.0367898  78.4840665  97.7566377 129.4339527  88.2842974 100.7620388
 130.1642916  88.0228262 101.3228092 128.8246473  87.5471696 100.8022456
 127.5154824  86.4250836 101.3594840 126.7887988  86.2906801 100.7511331
 127.1002111  86.7327665 102.1651558 115.3385001  90.1440766 109.1242213
 116.2588010  90.3219365 109.3182259 115.3034584  89.1996812 108.9721912
 113.6389225  84.0172996  87.5996441 112.7320681  83.7206109  87.6759155
 113.9165206  83.7202814  86.7330727 104.5567166  85.3379360  98.0495487
 104.2369950  84.4844668  97.7569861 104.0100594  85.5527938  98.8053455
 108.3347073  88.0541801 101.7664994 108.5533083  88.9858909 101.7853028
 108.7472847  87.6949775 102.5519798 115.2551291  78.5609886  93.7540682
 114.4452019  78.2156971  94.1295928 115.9435708  78.2517430  94.3428294
 117.1841839  77.6387933  95.3764979 117.7372878  78.0583386  96.0355002
 117.4211926  76.7123681  95.4187935 113.2074939  83.6275007 111.1567743
 113.1071665  84.5769364 111.0879834 112.9896481  83.2993245 110.2843813
 112.4088010  80.8759932  87.7408420 113.2707174  81.2014830  88.0004238
 112.5938354  80.0891428  87.2281486 104.4255426  88.9582271 100.0188609
 103.7318897  88.5436224  99.5058563 105.1728417  89.0002808  99.4222028
 120.5620646  79.7488458  94.8843643 119.9819315  80.4073262  94.5021696
 120.2956579  78.9265803  94.4731061 119.0124213  79.1493516  97.0864963
 119.5123991  79.2610050  96.2779282 119.6559821  78.8454569  97.7265772
 113.0706209  87.0572145 109.9732804 112.5873290  87.8572506 110.1796693
 113.1567148  87.0680090 109.0200248 106.3392168  88.8900525  97.8954624
 106.3162856  88.9888212  96.9436507 106.6492805  89.7365676  98.2171790
 108.9979546  90.9476680 102.0101238 109.9522800  90.9160622 101.9431170
 108.7992070  90.4867304 102.8251464 109.5878928  89.5177796 104.5772036
 110.4071817  90.0121875 104.6006873 109.8615736  88.6009764 104.5489603
 119.3445524  81.9088548  93.9399991 118.4571379  82.1938199  93.7220186
 119.7599514  81.7482312  93.0927268 122.6960061  81.9335069  97.6554331
 123.4720451  82.4231522  97.9278947 121.9708195  82.3593124  98.1126200
 125.1332619  82.6462689  98.7128271 125.7277110  82.4058425  98.0021580
 125.2059203  81.9269819  99.3401808 107.3529775  96.4896300  99.0271436
 107.2184243  95.7296700  98.4609434 106.9361837  97.2137199  98.5600225
 118.4888738  91.6733223  88.0348011 119.1924588  91.8783226  88.6505667
 117.7651387  92.2409985  88.2997095 119.3186548  87.4243084  94.1550282
 119.2621750  87.8811636  93.3157914 119.8714891  86.6633769  93.9773124
 123.1291354  83.2132816  94.9800401 122.8728288  82.8129452  95.8108609
 122.5044222  83.9276610  94.8550540 127.4403692  85.9528890  97.4871692
 126.8803250  86.0222079  98.2603255 126.8347195  85.7769874  96.7671189
 110.5098901  97.3865617  99.2389879 110.3931285  98.3311049  99.1368569
 109.6891347  97.0839178  99.6275678 120.3975435  92.1115752  90.0846471
 121.2321039  91.6796951  89.9023946 120.2359778  91.9397766  91.0123366
 120.0521328  88.6147866  91.4502811 119.9970131  88.4492137  90.5091255
 119.4267383  89.3223899  91.6065000 104.8413843  83.8515930 105.2764233
 105.4872706  83.3414884 105.7651458 104.6330994  84.5884612 105.8507658
 117.3667235  90.9196778 110.7756374 118.2358394  91.0937430 110.4143008
 116.8873986  91.7391194 110.6532103 113.3617453  78.1155975  91.0288129
 113.3496123  79.0597815  91.1856400 114.2540875  77.9326120  90.7347590
 111.5353415  98.0393879 102.4545807 112.4380662  98.0717489 102.7712302
 111.3090785  97.1094329 102.4692143 113.2907017  96.7924865  99.1155886
 112.3402648  96.7926727  99.0020258 113.5939503  96.0457600  98.5991920
 117.1769572  74.7098751  95.2834066 116.4101968  74.1557238  95.4290748
 117.5880277  74.7820620  96.1448218 109.1811334  80.9983547 109.3739247
 110.0442795  80.6420352 109.5842572 108.6076744  80.6597442 110.0614651
 129.0259710 102.6285403 100.1801648 129.6638120 102.5092151  99.4764988
 128.9080553 103.5766247 100.2389600 125.8349417 102.5812832 100.1163173
 125.4967928 102.4653896  99.2283708 126.7039185 102.1803997 100.0964179
 121.6936232 104.4348308  96.1060064 121.1301098 104.3438245  95.3376352
 121.5788627 103.6148212  96.5862556 126.3169200 103.7347683 106.0749378
 126.3057840 103.3400482 105.2029882 126.4789839 103.0013756 106.6683150
 119.2400664 105.9299500  98.9444284 120.0321956 105.5890324  98.5290584
 119.4797315 106.0394475  99.8646438 127.2735791 108.1019276  91.4174529
 126.6223771 108.6873356  91.0308543 128.0680154 108.6325471  91.4769566
 121.1991418 105.1908413  91.8161663 121.9722294 104.6437400  91.6774539
 121.5516817 106.0552662  92.0276124 123.0376461 106.5184795 105.0228562
 122.7466327 107.4230426 104.9075229 123.6733445 106.5601323 105.7372632
 123.9632668 103.8961644 101.6129922 124.5596240 103.6717666 100.8986885
 124.0207639 103.1546389 102.2155370 123.5357696 101.3501079  89.4480113
 123.7883217 100.8282600  88.6863576 122.5982255 101.1867224  89.5506797
 128.5800979 100.3536857  97.2554856 129.3664068  99.9356280  96.9045273
 128.8439683 101.2582949  97.4236505 128.7511056 105.7909708  91.9543513
 128.1156889 105.8644334  92.6664418 128.4208463 106.3803306  91.2762592
 133.9809406 100.2912091  98.1587835 134.7134578  99.7211307  98.3925664
 133.2248762  99.9033691  98.5994340 123.2553985 103.2529185  91.6504488
 123.1390243 102.5774088  92.3185572 123.3656245 102.7661559  90.8336641
 125.5985526 102.7139332  95.3551177 125.2343733 102.1869953  96.0664099
 126.4552642 102.3237801  95.1817663 131.5034826  94.0033665 102.6182443
 131.1718151  94.8729076 102.3943658 130.9080440  93.6869949 103.2976474
 125.2391013  97.7429232  90.3512526 125.4065415  98.6109468  90.7182997
 125.0488182  97.9056513  89.4273815 127.9966346 106.2046211 102.0178356
 127.6967069 107.1071249 101.9094163 127.6517405 105.9378394 102.8699509
 121.4478827 102.6560007  98.0515061 120.5229324 102.5236222  98.2592752
 121.6963241 103.4354227  98.5485003 131.3963490  98.7228751  99.6975793
 130.4880367  98.6544159  99.4034554 131.3451086  99.2000696 100.5257619
 125.2180234 100.1986889  91.3359193 125.0979859 100.6443940  92.1744673
 124.5232822 100.5472207  90.7772731 118.8087638 102.2993281  98.8858850
 118.9380020 102.5527760  99.7998261 118.1285090 102.8920989  98.5663505
 122.9787126 112.9690531  94.9849324 122.9011155 113.9198356  95.0637804
 122.3748769 112.6236403  95.6424250 125.4704355 100.1418396 107.6410691
 124.6937690 100.7012317 107.6313555 126.1094919 100.6275179 108.1625561
 133.2625136  96.9245189 101.4753667 132.6199516  97.2177722 100.8293462
 132.7580065  96.8098110 102.2806864 130.9165300 100.6708362  92.1639527
 131.8283156 100.9035749  91.9887224 130.4074947 101.2545407  91.6014605
 123.7250728 102.9503850 107.2028658 124.4665412 103.4888894 106.9263481
 123.0187713 103.5770138 107.3600209 129.2006067 105.0932990 105.8000819
 129.6089423 104.6515401 105.0555452 128.4783329 104.5185618 106.0535012
 125.5537137 100.0305597 103.1734376 126.3998333 100.4545011 103.3169025
 125.4935775  99.3739221 103.8672939 129.5234882 105.6534181  99.5553108
 128.8943745 105.8179895  98.8529176 129.1360544 106.0675790 100.3264072
 133.4024114 106.5888619  96.9097472 132.7175152 106.9687520  96.3594505
 133.4867963 107.1983945  97.6429420 128.7036583  97.6909965 104.8315550
 128.4597515  98.4452026 104.2949825 128.9796513  98.0695313 105.6662797
 130.6575046 104.2348578 103.5092815 130.8691941 104.8780338 102.8327196
 130.6104794 103.4010894 103.0414745 128.2601275  96.8466398 100.4129387
 127.3985754  97.1447652 100.7046125 128.2863709  97.0636797  99.4810420
 125.0762844 105.3908589  96.8203193 125.5401189 105.6696292  96.0307816
 124.8119642 104.4892033  96.6376284 121.9686925 104.9380070  99.7582956
 122.5388282 105.3667339  99.1200441 122.5595037 104.6562655 100.4567142
 124.0131730 101.5131741  93.6292758 124.7155773 101.9652785  94.0966685
 123.6812359 100.8715560  94.2572651 122.4612092 100.1043498 108.0043968
 121.8310752 100.7859779 108.2379365 122.3548179  99.9926580 107.0597106
 117.7557064  99.7715294  98.9309892 116.9656118 100.0272822  98.4550002
 118.2468311 100.5863632  99.0361932 131.7720874 107.1120533 101.6815173
 132.5938317 106.7100720 101.3997854 131.7683276 107.0088767 102.6331288
 119.7071809 100.1359873  95.8893369 118.9102973 100.2478567  96.4076864
 119.4797402 100.4746525  95.0234259 125.5377477 106.6604576 103.8375883
 125.6021910 107.1224984 104.6734055 124.8288401 106.0301941 103.9658193
 116.0394767 100.0245784 101.3624883 116.2902805 100.9092794 101.6282459
 116.5754315  99.8450386 100.5899974 139.8626867 103.4559282  98.0300144
 139.1090575 102.8866680  97.8744149 139.9974408 103.4221946  98.9770779
 125.2525495 108.3272684  93.7054864 125.1171169 109.1724220  94.1339711
 125.7935307 108.5291962  92.9420797 121.7392834  94.4064264 110.3669219
 121.3459780  93.8530462 111.0416863 122.5558975  94.7174842 110.7575736
 118.7054892 105.8448122  94.2782789 119.2179413 106.6391372  94.4288353
 119.3577605 105.1474412  94.2116390 120.5149777 108.9613878  96.3605542
 120.6916405 109.8831843  96.1726526 121.3106610 108.6472297  96.7899922
 124.6560795  95.8222143 107.9589475 125.3970509  96.4229296 107.8793938
 124.8878718  95.0799781 107.4007518 119.8002133 101.0078510 106.2367705
 119.6855648 100.1063767 106.5374804 118.9446651 101.2542207 105.8852522
 126.8793971 108.9496250 107.8355206 126.4357825 108.1632629 107.5176110
 127.5411185 109.1375401 107.1699096 121.6381092 110.4792052 102.3615884
 122.1888517 110.3509115 101.5892878 120.7992568 110.7786941 102.0110777
 128.9775209 109.2299050 105.8636607 128.9593684 110.0507931 105.3716876
 129.8995129 109.1053126 106.0886748 125.4348263 106.7443180 106.7060115
 125.9676600 105.9831468 106.4759423 124.9062344 106.4516832 107.4484270
 128.6017958  91.8503246 102.2353757 128.2582228  92.7404887 102.1592868
 128.9696921  91.6604903 101.3723342 116.6703809 104.1736776  95.0542359
 117.5079031 104.5833785  94.8376067 116.8482077 103.2336218  95.0242553
 128.5668241 101.8411857  90.7426192 128.0514864 102.6116462  90.9814579
 128.2945549 101.1676993  91.3659254 126.1515352  96.6861558  95.8011430
 125.2956948  96.2968408  95.6217069 126.5642304  96.7653518  94.9411216
 127.6814499  94.2207901 100.2002990 127.1779294  94.1838036  99.3870796
 127.9745105  95.1300644 100.2599647 123.9257384  94.3046631  99.2069172
 124.7910381  94.1089439  98.8475061 123.9934893  94.0756982 100.1338529
 133.5402515 104.5944212  92.6779366 132.7631958 104.2555371  92.2334528
 134.2193996 104.5996835  92.0034331 128.3554544  99.7138949  92.5685973
 128.0504680 100.0285098  93.4196116 129.3084986  99.7920369  92.6113306
 126.8000976 105.8729172  94.2178927 126.2722338 105.1381932  93.9052165
 126.2988479 106.6503849  93.9718896 131.7793822 104.0678193  99.3345974
 131.1217496 104.7577454  99.4226102 132.5834221 104.4574625  99.6779960
 121.5319704  96.5348839  96.5785539 122.1063455  96.3124020  95.8458732
 122.1190686  96.6037533  97.3314140 130.5899281 102.4222565  97.3849915
 131.1031163 103.0552557  97.8871625 131.2400505 101.8223761  97.0193275
 121.8589291  98.5653300  90.5981424 121.0226603  98.9027986  90.9190699
 121.7194060  98.4302279  89.6608561 123.8342371  93.4090087  95.3060608
 123.1806784  93.0939105  94.6817223 123.7922845  92.7865828  96.0320431
 124.9453576 103.6909383  87.2213900 124.0380638 103.4598636  87.4205049
 125.4424608 102.8947002  87.4087882 127.8521655 112.4006890  90.1410586
 127.1783354 112.7038587  90.7495544 128.2387477 113.2035970  89.7916044
 127.0680112  99.8972021  99.6308256 126.1502673 100.1186968  99.4729944
 127.4840255  99.9718332  98.7719963 127.8515159 101.2963437  94.7610936
 128.5986978 101.8084834  94.4518058 128.1206749 100.9747489  95.6215330
 126.1241810 103.7921977  91.7437890 125.2153029 103.5081010  91.8410360
 126.1536893 104.2121056  90.8841197 131.3561077 107.4028567  95.5129058
 130.9023404 106.5619477  95.5694248 130.7255044 108.0389965  95.8503838
 130.2993997  98.3320553  96.7429725 129.5616753  97.8197939  97.0739968
 130.5520770  97.8920935  95.9313002 129.7994016 109.2405064  96.4478876
 130.0916991 109.8010121  95.7291242 130.3092637 109.5333625  97.2032035
 130.4005624  91.1096805  97.3371495 130.7064501  90.2494168  97.0497410
 131.1258229  91.7014425  97.1370489 116.6929980 101.5127492  95.7253093
 116.4954380 100.9196852  95.0004159 116.1376644 101.2079702  96.4429031
 124.6726704 101.4050598  97.8447686 124.7275313 100.4524434  97.7690162
 123.8617906 101.5610037  98.3288984 125.8217897 105.3330721  89.0825969
 125.3837327 104.6166580  88.6231606 126.5628338 105.5606836  88.5211060
 122.6119064 100.0227658  95.6038065 121.7986929 100.3221828  96.0103257
 123.1078058  99.6283347  96.3212547 124.7627641 110.0185415  97.5372329
 124.7203820 110.2446261  96.6080861 125.6790340 109.7848789  97.6858130
 128.2093275 100.4869482 104.4352958 128.5642663 100.7140955 105.2947424
 128.8565406 100.8187859 103.8130214 133.9391012 103.6087918  95.1402288
 133.8008911 103.7989514  94.2123477 133.5827231 104.3707301  95.5970339
 122.1033138  97.5946013 101.2199300 122.7432518  97.4534772 100.5222263
 121.2710669  97.3080527 100.8437902 133.9660392 105.6764445 100.1513559
 134.3996898 105.5839734 100.9996613 134.6791972 105.6521946  99.5133575
 122.8793442 106.8948444  97.3334292 123.6734041 106.3998764  97.1316867
 122.1685135 106.3666307  96.9701998 127.6988287 109.2766539 101.6846660
 127.7525309 109.8457476 102.4524376 126.8303068 109.4468424 101.3200697
 119.1876206 101.0391525  93.4094045 118.2573794 100.9775981  93.6264007
 119.2833678 100.5167478  92.6130686 119.1061755  97.5646338  95.9972286
 119.3668572  98.4791672  95.8881447 119.9278927  97.0970781  96.1468899
 120.5786680  98.9784095 103.1671111 121.2509733  98.7701458 102.5183760
 119.7516467  98.7806181 102.7276343 134.8275941 105.7188146 102.6846444
 135.0211831 106.6233956 102.9305719 134.7276559 105.2595565 103.5185029
 126.4812252  95.6046036 105.1836772 125.8340167  96.3035986 105.0901248
 127.2513267  96.0382180 105.5513020 129.8891050 105.8694889 108.2587325
 129.7376556 105.6405440 107.3417409 129.8795729 106.8265490 108.2718670
 126.6576386 103.4426801 103.2433591 127.5868446 103.5937961 103.0702559
 126.2367416 103.5310822 102.3882238 125.4564718 107.4677466 101.0132129
 125.3175804 107.0996250 101.8858067 124.6679314 107.9825105 100.8416087
 126.0512870 112.5686562  92.3557666 126.2264626 112.0974605  93.1703288
 125.3645658 113.1952328  92.5838926 127.0069933 106.8459068  98.4020967
 126.6719766 106.8059838  99.2978617 126.5073879 106.1803784  97.9291377
 120.9814177 102.2526698 103.9273548 120.8433975 101.5206937 104.5285087
 121.8919101 102.1635599 103.6457736 129.9429125 104.1915103  88.6758027
 129.3258296 103.4661931  88.5791079 129.4745613 104.9524463  88.3325101
 123.6096478 101.9646658 103.4157228 124.3196096 101.3239850 103.3743846
 123.5665786 102.2159553 104.3383408 131.5983257 108.9014011 106.3363807
 131.5395803 108.2173231 105.6694390 132.0002775 109.6433001 105.8844433
 122.3225412  98.9511876 105.2352867 121.7862769  98.5002614 105.8874463
 121.7342120  99.0857784 104.4923332 120.6173955 115.7175925  99.1297526
 120.8570554 116.3494449  99.8076544 119.7743152 115.3663965  99.4162885
 121.7327671  98.4100527  87.7979331 120.8557137  98.2889328  87.4341577
 122.2085424  97.6186605  87.5458219 131.6000664 106.8653595 104.5677787
 130.7127443 106.5279517 104.6904185 132.1699215 106.1336626 104.8046552
 113.2529811 103.1977687  97.8920838 113.9400851 102.8839417  97.3041853
 113.0977940 104.1019051  97.6188089 118.0564533  98.0867883 102.3205862
 117.9722722  97.4793553 101.5856272 117.2347240  98.5776902 102.3215358
 125.1301817 111.5255047 101.5339030 125.0571989 112.3310019 102.0458334
 124.6879210 111.7247013 100.7087051 124.9191597 110.7626817  95.0441851
 124.1359119 111.3048498  95.1380076 125.6184342 111.2800797  95.4436092
 128.2288247  96.5721447  97.6876057 128.7256947  95.8191409  97.3677127
 127.4575229  96.6085764  97.1219266 136.0818004 102.2761812  99.3294348
 136.0707881 103.1586528  98.9588281 135.2135384 101.9233363  99.1348885
 127.5900501 111.4241881 103.6897188 128.3028473 112.0589346 103.6173090
 127.0990529 111.5205747 102.8737190 129.3118028 105.3293134  95.2614480
 128.3774306 105.4494597  95.0919184 129.4894696 104.4265601  94.9974490
 124.8123216  98.7138830  97.4147741 124.4421003  98.1609870  98.1028647
 125.3082308  98.1096963  96.8622741 132.6990579 101.1710453  95.7964514
 133.1651031 102.0038445  95.7224817 133.1498080 100.7055435  96.5009773
 122.6412414 109.1736325 104.5102759 123.3421874 109.8072808 104.6632153
 122.1707529 109.5151056 103.7498399 130.7666810 107.5154275  92.7950666
 131.0426654 107.4010869  93.7044540 129.8971309 107.1171760  92.7562839
 130.6707242  93.5391040  99.8355416 129.7570322  93.7695267 100.0037623
 131.1000343  93.6229484 100.6869448 130.4413700 101.7280932 102.3355310
 129.7885151 101.9756840 101.6807762 130.8194080 100.9145071 102.0017787
 127.4020874 111.7640626  96.4383480 127.5843269 110.9462281  96.9011232
 128.2253860 111.9808318  96.0008370 127.7363040 110.6908811  93.6998528
 128.2650806 110.1801265  93.0868690 127.9991259 110.3751341  94.5644061
 126.4901273 102.4700743 108.8221347 125.8141910 102.3694873 109.4923722
 127.3128907 102.3139957 109.2857344 118.2380132 108.7072680 101.4433862
 118.8233569 107.9616368 101.5761766 118.0404971 109.0176637 102.3270526
 121.0918788 111.7423927  96.4596304 120.4229163 112.2270055  95.9760344
 120.9531657 111.9893148  97.3739683 112.8297787 101.2778280 100.1638305
 112.8681887 100.7441871 100.9575423 112.3238080 100.7513486  99.5449282
 125.2324056 113.7767671 103.0578963 125.7842364 113.9399292 103.8228048
 125.5730250 114.3672109 102.3858988 120.2088549  96.1242821 103.6600847
 120.2729876  96.9857652 103.2478245 120.1455670  95.5116822 102.9273206
 119.6840822  98.1965953 107.3073882 120.3112861  97.8143031 107.9211406
 118.8268741  97.9780155 107.6729574 130.0834931 108.6028928 108.9127617
 130.6274835 109.2158887 108.4182572 129.5021775 109.1608507 109.4294630
 116.4606365 100.0042382  93.2392236 116.7559806  99.0953061  93.1859290
 115.5594400  99.9830122  92.9173239 128.3692444 111.7249646 100.0442645
 128.2443583 110.9239386  99.5353590 129.0271535 112.2195840  99.5556615
 119.9900612  98.0798379  99.2219785 119.2687197  98.6934347  99.0827258
 120.7793868  98.6156144  99.1436431 130.4327352 109.5258666 101.6722195
 129.4857687 109.4064018 101.6000522 130.7810125 108.6381165 101.7548456
 122.7926925  95.4152805 105.4960437 123.3161327  95.6615102 106.2586746
 122.5739259  96.2472840 105.0763574 118.1894206  97.6856480  93.3631562
 117.8606912  96.8053859  93.1806668 118.5433577  97.6304149  94.2507951
 127.4373785 109.3211383  97.8726547 127.2898748 108.3928090  98.0534117
 128.2627279 109.3431473  97.3883622 121.3036029  97.9729450  93.7307039
 121.6432102  98.5015371  93.0085648 121.7508150  98.3109856  94.5065606
 131.0407907 110.1439941  98.9591420 131.9654455 109.9382803  98.8215871
 130.8723210 109.8956343  99.8680761 123.9979470  96.3566500 103.1810107
 123.6576291  95.5574314 103.5830787 123.2918477  96.6568211 102.6086941
 124.6495942  93.4415813 101.6337430 125.4722011  92.9676291 101.5116321
 124.8934006  94.2206297 102.1336117 123.2904177  96.4704071  91.9300332
 124.0112539  96.8485324  91.4264049 122.6669481  97.1892948  92.0335310
 127.4335300  97.1749220  92.8658664 127.6498914  98.0573858  92.5647493
 126.9529367  96.7835434  92.1364306 122.1734521 100.1334934  99.4429409
 122.0279102 100.4475237 100.3353691 121.6959725 100.7519834  98.8900308
 124.0330904  97.1237482  99.4910299 124.0192473  96.2278575  99.1542596
 124.7503332  97.1308145 100.1248585 125.8857034  97.5574822 101.5363426
 125.6274812  98.4791892 101.5347756 125.3542075  97.1605256 102.2263890
 130.8303223 110.6625609  94.3153511 131.0040101 110.0972031  93.5627364
 131.3232114 111.4626504  94.1333001 116.6480183 102.6740278 102.3817070
 116.1033651 103.4500086 102.5137345 117.5259533 103.0211082 102.2236192
 123.4367800  96.0051862  94.7597869 123.5583711  95.0768508  94.9588756
 123.1469842  96.0190548  93.8476184 126.3058990  93.6906772  97.8964589
 126.3280687  93.7546105  96.9416568 126.7227049  92.8511281  98.0905095
 136.6842614 103.4262032  95.9343811 137.1273760 102.6769357  95.5362934
 135.8069125 103.4172168  95.5517543 131.8178396 109.9792373  91.4150410
 132.5129300 110.5999066  91.6337724 132.1601546 109.1287724  91.6902788
 117.4346205 101.8010174 105.2747227 116.6927941 101.9492810 105.8611857
 117.1138949 102.0618440 104.4113976 133.7169819 107.4292079  92.9437740
 134.2421143 107.7679352  92.2187060 133.6292171 106.4939094  92.7600875
 125.3789868 111.3426152 105.0727617 125.6876994 111.0975299 105.9450317
 126.1765350 111.5472791 104.5846487 125.4010480 113.4964062  97.3032994
 124.9615470 113.0040441  97.9965850 126.1518597 112.9537030  97.0625069
 117.8802819 109.6875603  97.3057622 118.7060838 109.3879375  96.9256265
 117.5296871 108.9183225  97.7547410 122.8484352 109.0402071  99.3755295
 122.2264361 108.3772776  99.0757523 123.5189219 109.0663203  98.6928943
 116.0811424 107.6061929  98.2646555 115.2443332 107.1784104  98.0830557
 116.0535069 107.7994373  99.2017346 122.9208879  97.5183859 108.9687801
 122.9697035  98.3945982 108.5865571 123.4631393  96.9761252 108.3959445
 133.4063725 108.0624982 108.2488938 132.6159269 108.0449121 107.7093438
 133.1697079 108.6013276 109.0037975 133.5261600 104.9117449 105.5621667
 133.5759605 104.7467456 106.5037190 133.4175523 104.0444708 105.1719548
 122.4097859 107.5905995  92.8513756 122.5585979 108.2741459  92.1980429
 123.2164302 107.5711085  93.3663212 130.8165362 100.8948377 106.8780974
 131.7175225 100.7554842 106.5864971 130.8913337 101.0602832 107.8179151
 125.1508168  98.2715232 105.7234160 124.2811477  98.5648798 105.4516748
 125.3867648  98.8555677 106.4441424 135.0279797 107.3314390 105.8063688
 134.7364605 107.6944371 106.6427149 134.4151928 106.6181399 105.6277021
 136.2275479 104.8967270  98.3266259 137.0622370 105.3357074  98.4903819
 136.3634608 104.4205923  97.5074504 133.2766985 102.4547005 104.2743746
 133.7521107 102.6474651 103.4662598 132.3532550 102.5106191 104.0287130
 120.1650492 103.6171172  93.8574825 119.9196534 102.7133502  94.0555035
 120.3346406 103.6188323  92.9154303 127.8547202  94.4894849 103.2399580
 128.3729145  95.2255875 102.9146069 127.5002334  94.7958842 104.0746339
 119.4346139  99.3499530  91.3560986 118.7415384  99.4243885  90.7001022
 119.1897891  98.5859873  91.8782503 128.1059796  90.9095131  98.7600477
 128.3861549  90.2418320  99.3860903 128.8910403  91.1024227  98.2475141
 125.9093264 110.0854125  90.3225503 125.3367231 110.7044312  89.8695975
 126.4826058 110.6353487  90.8565425 131.9768654  99.3312765 102.5072052
 132.9286077  99.4310863 102.5284276 131.8072104  98.5391034 103.0170136
 129.9983034  96.4168348 102.6931453 129.4032966  96.6973361 101.9977942
 129.7132730  96.9062249 103.4648194 129.1290524 110.3691275  91.4534086
 130.0621197 110.3036837  91.6566961 129.0413737 111.2047542  90.9948618
 131.7578541 109.6857145  88.4138033 131.6792172 109.3517009  89.3073791
 132.5788207 110.1778913  88.4129505 134.4556732 102.5518885 101.6214352
 134.4233052 101.6134885 101.8074036 135.0657355 102.6302921 100.8880177
 126.2940063 101.4214938  87.6641556 127.2399167 101.2921146  87.7329974
 125.9154308 100.6829600  88.1410984 134.6051220  99.3429928 101.6672635
 134.0890269  98.5588385 101.4802564 135.4891169  99.0148645 101.8319154
 132.2661947  93.0870944  97.6268448 132.0686768  92.7786032  98.5111780
 132.8761653  93.8132583  97.7566377 140.2733282 103.6134892 100.7620388
 141.0036670 103.3520180 101.3228092 139.6640227 102.8763614 100.8022456
 138.3548579 101.7542754 101.3594840 137.6281742 101.6198719 100.7511331
 137.9395866 102.0619583 102.1651558 126.1778755 105.4732684 109.1242213
 127.0981765 105.6511283 109.3182259 126.1428338 104.5288729 108.9721912
 124.4782980  99.3464914  87.5996441 123.5714435  99.0498027  87.6759155
 124.7558961  99.0494732  86.7330727 115.3960920 100.6671278  98.0495487
 115.0763705  99.8136586  97.7569861 114.8494348 100.8819856  98.8053455
 119.1740828 103.3833718 101.7664994 119.3926838 104.3150826 101.7853028
 119.5866602 103.0241693 102.5519798 126.0945046  93.8901804  93.7540682
 125.2845774  93.5448889  94.1295928 126.7829462  93.5809348  94.3428294
 128.0235594  92.9679851  95.3764979 128.5766632  93.3875304  96.0355002
 128.2605680  92.0415599  95.4187935 124.0468693  98.9566924 111.1567743
 123.9465420  99.9061281 111.0879834 123.8290235  98.6285163 110.2843813
 123.2481764  96.2051849  87.7408420 124.1100928  96.5306748  88.0004238
 123.4332109  95.4183345  87.2281486 115.2649180 104.2874189 100.0188609
 114.5712652 103.8728142  99.5058563 116.0122171 104.3294726  99.4222028
 131.4014401  95.0780376  94.8843643 130.8213070  95.7365180  94.5021696
 131.1350334  94.2557720  94.4731061 129.8517967  94.4785433  97.0864963
 130.3517746  94.5901968  96.2779282 130.4953575  94.1746486  97.7265772
 123.9099963 102.3864063 109.9732804 123.4267045 103.1864423 110.1796693
 123.9960902 102.3972008 109.0200248 117.1785923 104.2192443  97.8954624
 117.1556611 104.3180130  96.9436507 117.4886559 105.0657594  98.2171790
 119.8373301 106.2768598 102.0101238 120.7916554 106.2452540 101.9431170
 119.6385824 105.8159222 102.8251464 120.4272683 104.8469714 104.5772036
 121.2465572 105.3413793 104.6006873 120.7009490 103.9301682 104.5489603
 130.1839279  97.2380466  93.9399991 129.2965134  97.5230117  93.7220186
 130.5993268  97.0774230  93.0927268 133.5353815  97.2626987  97.6554331
 134.3114205  97.7523440  97.9278947 132.8101949  97.6885041  98.1126200
 135.9726374  97.9754606  98.7128271 136.5670865  97.7350342  98.0021580
 136.0452957  97.2561737  99.3401808 118.1923529 111.8188217  99.0271436
 118.0577997 111.0588618  98.4609434 117.7755592 112.5429117  98.5600225
 129.3282492 107.0025141  88.0348011 130.0318343 107.2075143  88.6505667
 128.6045141 107.5701903  88.2997095 130.1580303 102.7535002  94.1550282
 130.1015504 103.2103554  93.3157914 130.7108645 101.9925687  93.9773124
 133.9685109  98.5424734  94.9800401 133.7122043  98.1421370  95.8108609
 133.3437977  99.2568528  94.8550540 138.2797446 101.2820807  97.4871692
 137.7197004 101.3513997  98.2603255 137.6740950 101.1061792  96.7671189
 121.3492655 112.7157534  99.2389879 121.2325039 113.6602967  99.1368569
 120.5285102 112.4131096  99.6275678 131.2369190 107.4407670  90.0846471
 132.0714794 107.0088868  89.9023946 131.0753533 107.2689684  91.0123366
 130.8915082 103.9439783  91.4502811 130.8363886 103.7784055  90.5091255
 130.2661137 104.6515816  91.6065000 115.6807597  99.1807848 105.2764233
 116.3266461  98.6706802 105.7651458 115.4724748  99.9176529 105.8507658
 128.2060989 106.2488695 110.7756374 129.0752149 106.4229347 110.4143008
 127.7267741 107.0683112 110.6532103 124.2011207  93.4447892  91.0288129
 124.1889877  94.3889732  91.1856400 125.0934629  93.2618038  90.7347590
 122.3747169 113.3685796 102.4545807 123.2774416 113.4009406 102.7712302
 122.1484539 112.4386247 102.4692143 124.1300771 112.1216783  99.1155886
 123.1796402 112.1218644  99.0020258 124.4333258 111.3749517  98.5991920
 128.0163327  90.0390669  95.2834066 127.2495723  89.4849156  95.4290748
 128.4274032  90.1112538  96.1448218 120.0205088  96.3275465 109.3739247
 120.8836550  95.9712270 109.5842572 119.4470499  95.9889360 110.0614651
 139.8653465 117.9577321 100.1801648 140.5031875 117.8384068  99.4764988
 139.7474308 118.9058165 100.2389600 136.6743171 117.9104749 100.1163173
 136.3361683 117.7945814  99.2283708 137.5432939 117.5095914 100.0964179
 132.5329987 119.7640226  96.1060064 131.9694852 119.6730163  95.3376352
 132.4182382 118.9440130  96.5862556 130.0794419 121.2591417  98.9444284
 130.8715711 120.9182242  98.5290584 130.3191069 121.3686392  99.8646438
 138.1129546 123.4311193  91.4174529 137.4617525 124.0165274  91.0308543
 138.9073908 123.9617388  91.4769566 132.0385173 120.5200331  91.8161663
 132.8116049 119.9729318  91.6774539 132.3910572 121.3844580  92.0276124
 134.8026422 119.2253561 101.6129922 135.3989994 119.0009584 100.8986885
 134.8601394 118.4838307 102.2155370 134.3751451 116.6792997  89.4480113
 134.6276971 116.1574518  88.6863576 133.4376010 116.5159142  89.5506797
 139.4194733 115.6828775  97.2554856 140.2057823 115.2648198  96.9045273
 139.6833438 116.5874867  97.4236505 139.5904811 121.1201625  91.9543513
 138.9550644 121.1936252  92.6664418 139.2602217 121.7095224  91.2762592
 134.0947739 118.5821103  91.6504488 133.9783997 117.9066006  92.3185572
 134.2049999 118.0953477  90.8336641 136.4379280 118.0431250  95.3551177
 136.0737487 117.5161871  96.0664099 137.2946396 117.6529719  95.1817663
 142.3428581 109.3325582 102.6182443 142.0111906 110.2020993 102.3943658
 141.7474194 109.0161866 103.2976474 136.0784767 113.0721149  90.3512526
 136.2459170 113.9401386  90.7182997 135.8881936 113.2348431  89.4273815
 138.8360100 121.5338128 102.0178356 138.5360824 122.4363167 101.9094163
 138.4911160 121.2670311 102.8699509 132.2872582 117.9851925  98.0515061
 131.3623078 117.8528139  98.2592752 132.5356995 118.7646144  98.5485003
 142.2357244 114.0520668  99.6975793 141.3274122 113.9836077  99.4034554
 142.1844840 114.5292613 100.5257619 136.0573988 115.5278807  91.3359193
 135.9373613 115.9735858  92.1744673 135.3626576 115.8764125  90.7772731
 129.6481393 117.6285199  98.8858850 129.7773774 117.8819678  99.7998261
 128.9678844 118.2212907  98.5663505 133.8180880 128.2982449  94.9849324
 133.7404910 129.2490274  95.0637804 133.2142524 127.9528321  95.6424250
 141.7559054 116.0000280  92.1639527 142.6676910 116.2327667  91.9887224
 141.2468701 116.5837324  91.6014605 134.5644482 118.2795767 107.2028658
 135.3059167 118.8180811 106.9263481 133.8581468 118.9062056 107.3600209
 136.3930892 115.3597515 103.1734376 137.2392087 115.7836928 103.3169025
 136.3329530 114.7031139 103.8672939 140.3628637 120.9826099  99.5553108
 139.7337499 121.1471813  98.8529176 139.9754299 121.3967708 100.3264072
 139.5430337 113.0201883 104.8315550 139.2991269 113.7743944 104.2949825
 139.8190268 113.3987231 105.6662797 141.4968800 119.5640495 103.5092815
 141.7085695 120.2072255 102.8327196 141.4498548 118.7302812 103.0414745
 139.0995029 112.1758316 100.4129387 138.2379508 112.4739570 100.7046125
 139.1257464 112.3928715  99.4810420 135.9156598 120.7200507  96.8203193
 136.3794944 120.9988210  96.0307816 135.6513397 119.8183951  96.6376284
 132.8080680 120.2671988  99.7582956 133.3782037 120.6959257  99.1200441
 133.3988791 119.9854573 100.4567142 134.8525485 116.8423659  93.6292758
 135.5549528 117.2944703  94.0966685 134.5206113 116.2007478  94.2572651
 133.3005846 115.4335416 108.0043968 132.6704507 116.1151696 108.2379365
 133.1941934 115.3218497 107.0597106 128.5950818 115.1007212  98.9309892
 127.8049872 115.3564740  98.4550002 129.0862066 115.9155549  99.0361932
 130.5465564 115.4651791  95.8893369 129.7496727 115.5770485  96.4076864
 130.3191156 115.8038443  95.0234259 126.8788521 115.3537702 101.3624883
 127.1296560 116.2384712 101.6282459 127.4148070 115.1742304 100.5899974
 136.0919249 123.6564602  93.7054864 135.9564924 124.5016137  94.1339711
 136.6329062 123.8583879  92.9420797 132.5786589 109.7356181 110.3669219
 132.1853534 109.1822380 111.0416863 133.3952729 110.0466760 110.7575736
 129.5448647 121.1740040  94.2782789 130.0573167 121.9683290  94.4288353
 130.1971359 120.4766330  94.2116390 131.3543531 124.2905796  96.3605542
 131.5310160 125.2123761  96.1726526 132.1500365 123.9764215  96.7899922
 135.4954550 111.1514061 107.9589475 136.2364263 111.7521214 107.8793938
 135.7272473 110.4091698 107.4007518 130.6395888 116.3370428 106.2367705
 130.5249403 115.4355685 106.5374804 129.7840406 116.5834125 105.8852522
 132.4774847 125.8083970 102.3615884 133.0282272 125.6801033 101.5892878
 131.6386323 126.1078859 102.0110777 139.4411713 107.1795163 102.2353757
 139.0975982 108.0696805 102.1592868 139.8090675 106.9896821 101.3723342
 127.5097563 119.5028694  95.0542359 128.3472785 119.9125702  94.8376067
 127.6875831 118.5628136  95.0242553 139.4061995 117.1703775  90.7426192
 138.8908619 117.9408379  90.9814579 139.1339304 116.4968911  91.3659254
 136.9909106 112.0153475  95.8011430 136.1350703 111.6260326  95.6217069
 137.4036058 112.0945436  94.9411216 138.5208253 109.5499819 100.2002990
 138.0173049 109.5129954  99.3870796 138.8138860 110.4592561 100.2599647
 134.7651139 109.6338548  99.2069172 135.6304136 109.4381357  98.8475061
 134.8328648 109.4048900 100.1338529 139.1948299 115.0430867  92.5685973
 138.8898434 115.3577016  93.4196116 140.1478741 115.1212287  92.6113306
 137.6394730 121.2021090  94.2178927 137.1116092 120.4673850  93.9052165
 137.1382233 121.9795766  93.9718896 142.6187576 119.3970110  99.3345974
 141.9611251 120.0869372  99.4226102 143.4227976 119.7866542  99.6779960
 132.3713458 111.8640756  96.5785539 132.9457210 111.6415938  95.8458732
 132.9584440 111.9329451  97.3314140 141.4293035 117.7514483  97.3849915
 141.9424917 118.3844475  97.8871625 142.0794259 117.1515679  97.0193275
 132.6983045 113.8945217  90.5981424 131.8620357 114.2319904  90.9190699
 132.5587815 113.7594197  89.6608561 134.6736126 108.7382005  95.3060608
 134.0200538 108.4231022  94.6817223 134.6316600 108.1157746  96.0320431
 135.7847331 119.0201300  87.2213900 134.8774392 118.7890554  87.4205049
 136.2818363 118.2238920  87.4087882 137.9073866 115.2263939  99.6308256
 136.9896427 115.4478886  99.4729944 138.3234010 115.3010249  98.7719963
 138.6908914 116.6255354  94.7610936 139.4380733 117.1376752  94.4518058
 138.9600503 116.3039407  95.6215330 136.9635564 119.1213895  91.7437890
 136.0546783 118.8372928  91.8410360 136.9930648 119.5412974  90.8841197
 142.1954831 122.7320485  95.5129058 141.7417159 121.8911394  95.5694248
 141.5648798 123.3681883  95.8503838 141.1387751 113.6612471  96.7429725
 140.4010508 113.1489857  97.0739968 141.3914525 113.2212852  95.9313002
 141.2399378 106.4388723  97.3371495 141.5458255 105.5786086  97.0497410
 141.9651983 107.0306343  97.1370489 127.5323734 116.8419409  95.7253093
 127.3348134 116.2488770  95.0004159 126.9770398 116.5371619  96.4429031
 135.5120458 116.7342516  97.8447686 135.5669068 115.7816352  97.7690162
 134.7011660 116.8901955  98.3288984 136.6611652 120.6622639  89.0825969
 136.2231082 119.9458498  88.6231606 137.4022093 120.8898754  88.5211060
 133.4512818 115.3519575  95.6038065 132.6380684 115.6513746  96.0103257
 133.9471812 114.9575264  96.3212547 135.6021396 125.3477332  97.5372329
 135.5597575 125.5738179  96.6080861 136.5184095 125.1140707  97.6858130
 139.0487030 115.8161400 104.4352958 139.4036417 116.0432873 105.2947424
 139.6959161 116.1479777 103.8130214 132.9426893 112.9237931 101.2199300
 133.5826272 112.7826690 100.5222263 132.1104423 112.6372444 100.8437902
 133.7187197 122.2240361  97.3334292 134.5127795 121.7290682  97.1316867
 133.0078889 121.6958225  96.9701998 130.0269960 116.3683443  93.4094045
 129.0967548 116.3067899  93.6264007 130.1227432 115.8459396  92.6130686
 129.9455509 112.8938256  95.9972286 130.2062326 113.8083589  95.8881447
 130.7672682 112.4262699  96.1468899 131.4180435 114.3076013 103.1671111
 132.0903488 114.0993375 102.5183760 130.5910221 114.1098099 102.7276343
 137.3206007 110.9337954 105.1836772 136.6733922 111.6327904 105.0901248
 138.0907022 111.3674098 105.5513020 137.4970141 118.7718719 103.2433591
 138.4262201 118.9229879 103.0702559 137.0761171 118.8602740 102.3882238
 136.2958473 122.7969383 101.0132129 136.1569558 122.4288168 101.8858067
 135.5073069 123.3117023 100.8416087 137.8463688 122.1750986  98.4020967
 137.5113520 122.1351756  99.2978617 137.3467634 121.5095702  97.9291377
 131.8207932 117.5818616 103.9273548 131.6827730 116.8498855 104.5285087
 132.7312855 117.4927516 103.6457736 140.7822879 119.5207020  88.6758027
 140.1652050 118.7953849  88.5791079 140.3139368 120.2816381  88.3325101
 134.4490232 117.2938575 103.4157228 135.1589851 116.6531768 103.3743846
 134.4059541 117.5451470 104.3383408 133.1619166 114.2803793 105.2352867
 132.6256523 113.8294532 105.8874463 132.5735875 114.4149702 104.4923332
 132.5721425 113.7392445  87.7979331 131.6950892 113.6181246  87.4341577
 133.0479178 112.9478523  87.5458219 124.0923566 118.5269604  97.8920838
 124.7794605 118.2131334  97.3041853 123.9371694 119.4310969  97.6188089
 128.8958288 113.4159801 102.3205862 128.8116476 112.8085471 101.5856272
 128.0740994 113.9068819 102.3215358 135.7585351 126.0918735  95.0441851
 134.9752873 126.6340415  95.1380076 136.4578097 126.6092715  95.4436092
 139.0682002 111.9013365  97.6876057 139.5650701 111.1483327  97.3677127
 138.2968983 111.9377681  97.1219266 140.1511782 120.6585052  95.2614480
 139.2168061 120.7786514  95.0919184 140.3288451 119.7557519  94.9974490
 135.6516970 114.0430748  97.4147741 135.2814758 113.4901788  98.1028647
 136.1476063 113.4388881  96.8622741 141.6060565 122.8446192  92.7950666
 141.8820409 122.7302787  93.7044540 140.7365063 122.4463677  92.7562839
 141.5100996 108.8682958  99.8355416 140.5964076 109.0987185 100.0037623
 141.9394098 108.9521402 100.6869448 141.2807455 117.0572850 102.3355310
 140.6278905 117.3048757 101.6807762 141.6587835 116.2436988 102.0017787
 138.5756794 126.0200728  93.6998528 139.1044561 125.5093183  93.0868690
 138.8385014 125.7043259  94.5644061 129.0773887 124.0364598 101.4433862
 129.6627324 123.2908286 101.5761766 128.8798725 124.3468554 102.3270526
 131.9312542 127.0715845  96.4596304 131.2622917 127.5561973  95.9760344
 131.7925412 127.3185065  97.3739683 123.6691542 116.6070198 100.1638305
 123.7075641 116.0733789 100.9575423 123.1631834 116.0805403  99.5449282
 131.0482304 111.4534738 103.6600847 131.1123630 112.3149569 103.2478245
 130.9849424 110.8408740 102.9273206 130.5234576 113.5257871 107.3073882
 131.1506615 113.1434948 107.9211406 129.6662495 113.3072073 107.6729574
 127.3000119 115.3334300  93.2392236 127.5953560 114.4244978  93.1859290
 126.3988155 115.3122039  92.9173239 130.8294366 113.4090297  99.2219785
 130.1080952 114.0226264  99.0827258 131.6187622 113.9448061  99.1436431
 133.6320680 110.7444723 105.4960437 134.1555082 110.9907020 106.2586746
 133.4133013 111.5764758 105.0763574 129.0287961 113.0148398  93.3631562
 128.7000667 112.1345777  93.1806668 129.3827332 112.9596066  94.2507951
 138.2767540 124.6503300  97.8726547 138.1292502 123.7220008  98.0534117
 139.1021033 124.6723391  97.3883622 132.1429784 113.3021367  93.7307039
 132.4825856 113.8307289  93.0085648 132.5901904 113.6401774  94.5065606
 134.8373225 111.6858418 103.1810107 134.4970045 110.8866231 103.5830787
 134.1312231 111.9860129 102.6086941 135.4889697 108.7707731 101.6337430
 136.3115766 108.2968209 101.5116321 135.7327760 109.5498214 102.1336117
 134.1297931 111.7995989  91.9300332 134.8506294 112.1777242  91.4264049
 133.5063235 112.5184866  92.0335310 138.2729054 112.5041138  92.8658664
 138.4892668 113.3865776  92.5647493 137.7923121 112.1127351  92.1364306
 133.0128275 115.4626851  99.4429409 132.8672856 115.7767154 100.3353691
 132.5353479 116.0811752  98.8900308 134.8724658 112.4529399  99.4910299
 134.8586227 111.5570493  99.1542596 135.5897086 112.4600063 100.1248585
 136.7250789 112.8866739 101.5363426 136.4668567 113.8083810 101.5347756
 136.1935829 112.4897174 102.2263890 127.4873938 118.0032196 102.3817070
 126.9427406 118.7792004 102.5137345 128.3653287 118.3503000 102.2236192
 134.2761554 111.3343779  94.7597869 134.3977465 110.4060426  94.9588756
 133.9863597 111.3482465  93.8476184 137.1452745 109.0198690  97.8964589
 137.1674441 109.0838023  96.9416568 137.5620804 108.1803199  98.0905095
 128.2739959 117.1302092 105.2747227 127.5321695 117.2784727 105.8611857
 127.9532704 117.3910357 104.4113976 128.7196573 125.0167521  97.3057622
 129.5454593 124.7171292  96.9256265 128.3690625 124.2475143  97.7547410
 133.6878106 124.3693989  99.3755295 133.0658116 123.7064694  99.0757523
 134.3582973 124.3955121  98.6928943 126.9205178 122.9353847  98.2646555
 126.0837086 122.5076021  98.0830557 126.8928824 123.1286290  99.2017346
 133.7602634 112.8475777 108.9687801 133.8090789 113.7237900 108.5865571
 134.3025148 112.3053170 108.3959445 133.2491613 122.9197912  92.8513756
 133.3979734 123.6033377  92.1980429 134.0558057 122.9003002  93.3663212
 135.9901922 113.6007149 105.7234160 135.1205232 113.8940715 105.4516748
 136.2261403 114.1847594 106.4441424 131.0044246 118.9463090  93.8574825
 130.7590288 118.0425420  94.0555035 131.1740161 118.9480240  92.9154303
 138.6940956 109.8186766 103.2399580 139.2122900 110.5547793 102.9146069
 138.3396089 110.1250759 104.0746339 130.2739894 114.6791447  91.3560986
 129.5809139 114.7535802  90.7001022 130.0291646 113.9151791  91.8782503
 138.9453550 106.2387049  98.7600477 139.2255304 105.5710238  99.3860903
 139.7304157 106.4316144  98.2475141 136.7487019 125.4146043  90.3225503
 136.1760986 126.0336230  89.8695975 137.3219812 125.9645404  90.8565425
 140.8376788 111.7460266 102.6931453 140.2426720 112.0265279 101.9977942
 140.5526485 112.2354167 103.4648194 137.1333817 116.7506855  87.6641556
 138.0792922 116.6213063  87.7329974 136.7548062 116.0121517  88.1410984
 135.3176734 114.6756832  87.5996441 134.4108190 114.3789944  87.6759155
 135.5952715 114.3786650  86.7330727 126.2354675 115.9963195  98.0495487
 125.9157459 115.1428503  97.7569861 125.6888103 116.2111773  98.8053455
 130.0134582 118.7125636 101.7664994 130.2320592 119.6442744 101.7853028
 130.4260356 118.3533611 102.5519798 136.9338800 109.2193721  93.7540682
 136.1239528 108.8740806  94.1295928 137.6223217 108.9101265  94.3428294
 138.8629348 108.2971768  95.3764979 139.4160387 108.7167222  96.0355002
 139.0999435 107.3707516  95.4187935 134.0875519 111.5343767  87.7408420
 134.9494683 111.8598665  88.0004238 134.2725863 110.7475263  87.2281486
 126.1042935 119.6166107 100.0188609 125.4106406 119.2020059  99.5058563
 126.8515926 119.6586643  99.4222028 142.2408155 110.4072293  94.8843643
 141.6606824 111.0657097  94.5021696 141.9744088 109.5849638  94.4731061
 140.6911722 109.8077351  97.0864963 141.1911500 109.9193886  96.2779282
 141.3347330 109.5038404  97.7265772 128.0179677 119.5484360  97.8954624
 127.9950365 119.6472048  96.9436507 128.3280314 120.3949511  98.2171790
 130.6767055 121.6060515 102.0101238 131.6310309 121.5744458 101.9431170
 130.4779579 121.1451139 102.8251464 131.2666437 120.1761632 104.5772036
 132.0859326 120.6705710 104.6006873 131.5403245 119.2593600 104.5489603
 141.0233033 112.5672384  93.9399991 140.1358888 112.8522034  93.7220186
 141.4387023 112.4066147  93.0927268 129.0317284 127.1480135  99.0271436
 128.8971752 126.3880536  98.4609434 128.6149346 127.8721035  98.5600225
 140.1676247 122.3317058  88.0348011 140.8712097 122.5367061  88.6505667
 139.4438896 122.8993820  88.2997095 140.9974057 118.0826920  94.1550282
 140.9409259 118.5395471  93.3157914 141.5502400 117.3217604  93.9773124
 132.1886410 128.0449452  99.2389879 132.0718794 128.9894884  99.1368569
 131.3678856 127.7423014  99.6275678 142.0762944 122.7699588  90.0846471
 142.9108548 122.3380786  89.9023946 141.9147287 122.5981601  91.0123366
 141.7308837 119.2731701  91.4502811 141.6757640 119.1075972  90.5091255
 141.1054892 119.9807734  91.6065000 126.5201351 114.5099765 105.2764233
 127.1660215 113.9998719 105.7651458 126.3118503 115.2468447 105.8507658
 135.0404962 108.7739810  91.0288129 135.0283632 109.7181650  91.1856400
 135.9328384 108.5909955  90.7347590 134.9694526 127.4508700  99.1155886
 134.0190157 127.4510562  99.0020258 135.2727012 126.7041435  98.5991920
 138.8557081 105.3682587  95.2834066 138.0889477 104.8141073  95.4290748
 139.2667786 105.4404455  96.1448218 130.8598842 111.6567382 109.3739247
 131.7230304 111.3004187 109.5842572 130.2864253 111.3181277 110.0614651
  54.2038139  -9.0389884  85.6689591  54.9959431  -9.3799059  85.2535890
  54.4434789  -8.9294909  86.5891744  62.2373265  -6.8670108  78.1419835
  61.5861245  -6.2816027  77.7553849  63.0317628  -6.3363913  78.2014873
  58.0013935  -8.4504588  91.7473869  57.7103801  -7.5458958  91.6320535
  58.6370920  -8.4088061  92.4617939  57.9424600  -1.9998853  81.7094630
  57.8648630  -1.0491027  81.7883111  57.3386244  -2.3452980  82.3669557
  60.2162969  -6.6416700  80.4300170  60.0808644  -5.7965164  80.8585018
  60.7572781  -6.4397422  79.6666104  53.6692366  -9.1241262  81.0028095
  54.1816887  -8.3298011  81.1533660  54.3215079  -9.8214971  80.9361697
  55.4787251  -6.0075505  83.0850848  55.6553879  -5.0857541  82.8971832
  56.2744085  -6.3217086  83.5145228  61.8431445  -6.0193133  94.5600512
  61.3995300  -6.8056754  94.2421417  62.5048659  -5.8313983  93.8944403
  56.6018567  -4.4897331  89.0861191  57.1525992  -4.6180268  88.3138185
  55.7630042  -4.1902442  88.7356084  63.9412683  -5.7390333  92.5881914
  63.9231159  -4.9181452  92.0962183  64.8632603  -5.8636258  92.8132055
  62.8159129  -2.5682494  76.8655893  62.1420828  -2.2650797  77.4740851
  63.2024951  -1.7653413  76.5161350  64.7631491  -5.7284320  83.1724183
  65.0554465  -5.1679263  82.4536548  65.2730111  -5.4355759  83.9277342
  59.7265116  -4.9503969  84.2617636  59.6841295  -4.7243122  83.3326168
  60.6427815  -5.1840594  84.4103437  62.6625761  -5.6922844  88.4091966
  62.7162783  -5.1231908  89.1769682  61.7940542  -5.5220959  88.0446003
  60.4202193  -7.5011918  87.7377436  60.2813278  -7.8693133  88.6103374
  59.6316789  -6.9864278  87.5661394  61.0150344  -2.4002821  79.0802972
  61.1902100  -2.8714778  79.8948595  60.3283133  -1.7737055  79.3084233
  55.5811430   0.7486541  85.8542832  55.8208028   1.3805066  86.5321851
  54.7380626   0.3974582  86.1408192  60.0939292  -3.4434336  88.2584336
  60.0209463  -2.6379365  88.7703641  59.6516685  -3.2442370  87.4332358
  59.8829071  -4.2062566  81.7687158  59.0996593  -3.6640886  81.8625382
  60.5821816  -3.6888586  82.1681399  62.5537975  -3.5447502  90.4142495
  63.2665947  -2.9100037  90.3418397  62.0628004  -3.4483636  89.5982497
  57.6049889  -5.7953059  91.2348066  58.3059348  -5.1616576  91.3877460
  57.1345004  -5.4538327  90.4743705  62.3658349  -3.2048758  83.1628787
  62.5480743  -4.0227102  83.6256539  63.1891335  -2.9881066  82.7253677
  62.7000514  -4.2780573  80.4243835  63.2288280  -4.7888118  79.8113997
  62.9628734  -4.5938043  81.2889368  53.2017607  -6.2616704  88.1679169
  53.7871044  -7.0073016  88.3007073  53.0042445  -5.9512747  89.0515832
  56.0556262  -3.2265456  83.1841611  55.3866637  -2.7419329  82.7005651
  55.9169132  -2.9796236  84.0984990  60.1961531  -1.1921713  89.7824269
  60.7479839  -1.0290091  90.5473355  60.5367724  -0.6017275  89.1104294
  63.3329918  -3.2439737  86.7687952  63.2081057  -4.0449997  86.2598897
  63.9909009  -2.7493544  86.2801921  62.4011260  -5.6478001  84.5971854
  62.2536222  -6.5761293  84.7779424  63.2264753  -5.6257910  84.1128929
  66.0045381  -4.8249442  85.6836727  66.9291929  -5.0306581  85.5461178
  65.8360685  -5.0733041  86.5926068  65.7940698  -4.3063775  81.0398818
  65.9677575  -4.8717352  80.2872670  66.2869589  -3.5062880  80.8578308
  60.3427342  -3.6263231  91.7972924  60.6514468  -3.8714084  92.6695623
  61.1402824  -3.4216593  91.3091794  60.3647954  -1.4725321  84.0278300
  59.9252944  -1.9648943  84.7211157  61.1156071  -2.0152354  83.7870375
  52.8440293  -5.2813781  84.0302928  53.6698313  -5.5810009  83.6501572
  52.4934345  -6.0506158  84.4792717  57.8121826  -5.9287312  86.1000602
  57.1901835  -6.5916607  85.8002830  58.4826693  -5.9026180  85.4174250
  51.0448898  -7.3627454  84.9891862  50.2080806  -7.7905280  84.8075863
  51.0172543  -7.1695011  85.9262653  57.3735333  -7.3783389  79.5759062
  57.5223453  -6.6947925  78.9225735  58.1801776  -7.3978299  80.0908518
  60.8730738  -4.8835259  77.0470810  60.3004706  -4.2645071  76.5941282
  61.4463532  -4.3335897  77.5810732  64.0927998  -4.5998108  78.1779392
  65.0258671  -4.6652547  78.3812268  64.0051211  -3.7641842  77.7193925
  66.7216015  -5.2832238  75.1383340  66.6429646  -5.6172374  76.0319098
  67.5425682  -4.7910470  75.1374812  50.2286655 -10.6815194  86.7433916
  49.5350126 -11.0961242  86.2303870  50.9759646 -10.6394658  86.1467334
  52.1423397 -10.7496941  84.6199930  52.1194085 -10.6509253  83.6681814
  52.4524034  -9.9031790  84.9417097  54.8010775  -8.6920786  88.7346545
  55.7554028  -8.7236843  88.6676476  54.6023299  -9.1530162  89.5496771
  53.1561004  -3.1501166  85.7516743  53.0215472  -3.9100765  85.1854741
  52.7393066  -2.4260266  85.2845532  56.3130130  -2.2531849  85.9635185
  56.1962514  -1.3086417  85.8613876  55.4922576  -2.5558288  86.3520985
  57.3384644  -1.6003587  89.1791114  58.2411890  -1.5679977  89.4957609
  57.1122014  -2.5303136  89.1937450  59.0938246  -2.8472601  85.8401192
  58.1433877  -2.8470739  85.7265565  59.3970732  -3.5939866  85.3237227
  74.8290939   2.9887938  86.9046955  75.4669349   2.8694685  86.2010295
  74.7111782   3.9368782  86.9634907  71.6380646   2.9415366  86.8408480
  71.2999157   2.8256430  85.9529014  72.5070414   2.5406531  86.8209486
  67.4967461   4.7950842  82.8305370  66.9332326   4.7040779  82.0621658
  67.3819856   3.9750747  83.3107863  72.1200429   4.0950218  92.7994685
  72.1089069   3.7003016  91.9275189  72.2821068   3.3616290  93.3928457
  65.0431893   6.2902034  85.6689591  65.8353185   5.9492858  85.2535890
  65.2828543   6.3997009  86.5891744  73.0767020   8.4621810  78.1419835
  72.4255000   9.0475890  77.7553849  73.8711383   8.9928005  78.2014873
  67.0022647   5.5510947  78.5406970  67.7753523   5.0039934  78.4019846
  67.3548046   6.4155196  78.7521431  68.8407690   6.8787329  91.7473869
  68.5497556   7.7832960  91.6320535  69.4764674   6.9203857  92.4617939
  69.7663897   4.2564178  88.3375229  70.3627469   4.0320200  87.6232192
  69.8238868   3.5148923  88.9400677  69.3388925   1.7103613  76.1725420
  69.5914446   1.1885134  75.4108883  68.4013484   1.5469759  76.2752103
  74.3832208   0.7139392  83.9800163  75.1695297   0.2958815  83.6290580
  74.6470912   1.6185484  84.1481811  74.5542285   6.1512242  78.6788820
  73.9188118   6.2246868  79.3909724  74.2239691   6.7405841  78.0007899
  79.7840635   0.6514625  84.8833141  80.5165807   0.0813842  85.1170971
  79.0279991   0.2636225  85.3239647  69.0585214   3.6131719  78.3749795
  68.9421472   2.9376622  79.0430879  69.1687474   3.1264093  77.5581948
  71.4016755   3.0741866  82.0796484  71.0374962   2.5472487  82.7909405
  72.2583870   2.6840335  81.9062969  71.0422242  -1.8968234  77.0757832
  71.2096644  -1.0287998  77.4428303  70.8519411  -1.7340952  76.1519122
  73.7997575   6.5648745  88.7423663  73.4998298   7.4673784  88.6339470
  73.4548634   6.2980928  89.5944816  67.2510056   3.0162542  84.7760367
  66.3260553   2.8838756  84.9838059  67.4994469   3.7956761  85.2730310
  77.1994719  -0.9168715  86.4221100  76.2911596  -0.9853307  86.1279861
  77.1482314  -0.4396770  87.2502926  71.0211462   0.5589423  78.0604499
  70.9011088   1.0046474  78.8989979  70.3264051   0.9074741  77.5018037
  64.6118867   2.6595815  85.6104156  64.7411248   2.9130294  86.5243568
  63.9316319   3.2523523  85.2908811  68.7818355  13.3293065  81.7094630
  68.7042384  14.2800890  81.7883111  68.1779998  12.9838938  82.3669557
  71.2735584   0.5020931  94.3655997  70.4968918   1.0614851  94.3558862
  71.9126147   0.9877714  94.8870867  76.7196529   1.0310897  78.8884833
  77.6314385   1.2638283  78.7132531  76.2106176   1.6147941  78.3259912
  69.5281957   3.3106384  93.9273964  70.2696641   3.8491428  93.6508788
  68.8218942   3.9372673  94.0845516  75.0037296   5.4535524  92.5246126
  75.4120652   5.0117935  91.7800758  74.2814558   4.8788152  92.7780319
  71.3568366   0.3908131  89.8979683  72.2029561   0.8147545  90.0414332
  71.2967004  -0.2658244  90.5918246  75.3266111   6.0136715  86.2798415
  74.6974973   6.1782429  85.5774483  74.9391773   6.4278325  87.0509379
  79.2055343   6.9491153  83.6342778  78.5206381   7.3290054  83.0839812
  79.2899192   7.5586480  84.3674726  74.5067812  -1.9487500  91.5560856
  74.2628744  -1.1945440  91.0195132  74.7827742  -1.5702153  92.3908103
  76.4606274   4.5951112  90.2338122  76.6723170   5.2382872  89.5572503
  76.4136023   3.7613428  89.7660052  74.0632503  -2.7931067  87.1374694
  73.2016982  -2.4949814  87.4291432  74.0894938  -2.5760669  86.2055727
  70.8794073   5.7511123  83.5448500  71.3432418   6.0298826  82.7553122
  70.6150871   4.8494568  83.3621590  67.7718154   5.2982605  86.4828263
  68.3419511   5.7269873  85.8445748  68.3626266   5.0165189  87.1812449
  69.8162959   1.8734276  80.3538065  70.5187002   2.3255319  80.8211991
  69.4843587   1.2318094  80.9817958  68.2643320   0.4646032  94.7289274
  67.6341981   1.1462313  94.9624671  68.1579408   0.3529114  93.7842413
  63.5588293   0.1317828  85.6555199  62.7687347   0.3875357  85.1795309
  64.0499540   0.9466166  85.7607239  77.5752102   7.4723067  88.4060479
  78.3969546   7.0703255  88.1243161  77.5714505   7.3691302  89.3576595
  65.5103038   0.4962407  82.6138675  64.7134201   0.6081102  83.1322171
  65.2828630   0.8349060  81.7479566  71.3408706   7.0207111  90.5621190
  71.4053138   7.4827518  91.3979362  70.6319630   6.3904476  90.6903500
  61.8425996   0.3848319  88.0870189  62.0934034   1.2695329  88.3527765
  62.3785544   0.2052920  87.3145281  85.6658095   3.8161816  84.7545451
  84.9121804   3.2469214  84.5989455  85.8005637   3.7824480  85.7016085
  71.0556723   8.6875218  80.4300170  70.9202398   9.5326754  80.8585018
  71.5966536   8.8894496  79.6666104  64.5086121   6.2050656  81.0028095
  65.0210641   6.9993906  81.1533660  65.1608834   5.5076947  80.9361697
  66.3181006   9.3216412  83.0850848  66.4947634  10.2434377  82.8971832
  67.1137839   9.0074832  83.5145228  65.6033362   1.3681044  92.9613012
  65.4886877   0.4666302  93.2620111  64.7477880   1.6144741  92.6097828
  72.6825200   9.3098785  94.5600512  72.2389054   8.5235163  94.2421417
  73.3442413   9.4977935  93.8944403  67.4412321  10.8394586  89.0861191
  67.9919746  10.7111650  88.3138185  66.6023797  11.1389475  88.7356084
  74.7806438   9.5901585  92.5881914  74.7624913  10.4110466  92.0962183
  75.7026358   9.4655660  92.8132055  71.2379492   7.1045714  93.4305422
  71.7707829   6.3434002  93.2004730  70.7093573   6.8119366  94.1729576
  62.4735038   4.5339310  81.7787666  63.3110260   4.9436319  81.5621373
  62.6513305   3.5938753  81.7487860  74.3699470   2.2014391  77.4671499
  73.8546093   2.9718996  77.7059886  74.0976778   1.5279527  78.0904560
  71.9546581  -2.9535908  82.5256737  71.0988177  -3.3429058  82.3462376
  72.3673533  -2.8743947  81.6656523  79.3433744   4.9546746  79.4024672
  78.5663187   4.6157905  78.9579834  80.0225225   4.9599369  78.7279637
  74.1585773   0.0741483  79.2931280  73.8535908   0.3887632  80.1441423
  75.1116215   0.1522903  79.3358613  72.6032205   6.2331707  80.9424234
  72.0753566   5.4984466  80.6297471  72.1019707   7.0106383  80.6964202
  77.5825051   4.4280727  86.0591280  76.9248725   5.1179988  86.1471409
  78.3865450   4.8177159  86.4025267  67.3350932  -3.1048627  83.3030845
  67.9094684  -3.3273446  82.5704038  67.9221915  -3.0359933  84.0559447
  76.3930510   2.7825100  84.1095222  76.9062391   3.4155092  84.6116932
  77.0431733   2.1826295  83.7438582  67.6620519  -1.0744166  77.3226731
  66.8257832  -0.7369480  77.6436005  67.5225289  -1.2095186  76.3853868
  70.7484805   4.0511917  73.9459207  69.8411867   3.8201170  74.1450356
  71.2455837   3.2549536  74.1333188  73.6552884  12.7609424  76.8655893
  72.9814583  13.0641121  77.4740851  74.0418706  13.5638504  76.5161350
  72.8711340   0.2574555  86.3553562  71.9533902   0.4789502  86.1975251
  73.2871484   0.3320866  85.4965270  73.6546388   1.6565971  81.4856243
  74.4018207   2.1687368  81.1763365  73.9237978   1.3350024  82.3460636
  71.9273038   4.1524512  78.4683197  71.0184258   3.8683544  78.5655667
  71.9568122   4.5723590  77.6086504  77.1592306   7.7631101  82.2374365
  76.7054633   6.9222011  82.2939555  76.5286272   8.3992500  82.5749145
  76.1025225  -1.3076913  83.4675032  75.3647982  -1.8199527  83.7985275
  76.3551999  -1.7476531  82.6558309  75.6025245   9.6007598  83.1724183
  75.8948219  10.1612655  82.4536548  76.1123866   9.8936159  83.9277342
  62.4961209   1.8730026  82.4498399  62.2985609   1.2799386  81.7249466
  61.9407873   1.5682236  83.1674338  70.4757932   1.7653132  84.5692992
  70.5306542   0.8126969  84.4935469  69.6649134   1.9212571  85.0534291
  71.6249126   5.6933255  75.8071276  71.1868556   4.9769114  75.3476913
  72.3659567   5.9209370  75.2456367  68.4150292   0.3830192  82.3283371
  67.6018158   0.6824363  82.7348563  68.9109287  -0.0114119  83.0457853
  70.5658870  10.3787949  84.2617636  70.5235049  10.6048795  83.3326168
  71.4821569  10.1451324  84.4103437  74.0124504   0.8472016  91.1598265
  74.3673892   1.0743490  92.0192731  74.6596635   1.1790393  90.5375520
  79.7422241   3.9690452  81.8647594  79.6040140   4.1592048  80.9368783
  79.3858460   4.7309835  82.3215645  67.9064367  -2.0451452  87.9444606
  68.5463746  -2.1862693  87.2467570  67.0741898  -2.3316939  87.5683208
  79.7691621   6.0366979  86.8758866  80.2028127   5.9442268  87.7241920
  80.4823201   6.0124480  86.2378882  68.6824671   7.2550978  84.0579599
  69.4765269   6.7601298  83.8562174  67.9716363   6.7268841  83.6947304
  73.5019515   9.6369073  88.4091966  73.5556538  10.2060010  89.1769682
  72.6334297   9.8070959  88.0446003  64.9907434   1.3994060  80.1339351
  64.0605023   1.3378515  80.3509313  65.0864906   0.8770012  79.3375993
  64.9092984  -2.0751127  82.7217593  65.1699801  -1.1605794  82.6126753
  65.7310156  -2.5426685  82.8714206  66.3817909  -0.6613370  89.8916418
  67.0540962  -0.8696008  89.2429066  65.5547695  -0.8591284  89.4521650
  80.6307170   6.0790680  89.4091751  80.8243060   6.9836491  89.6551026
  80.5307788   5.6198099  90.2430336  75.6922279   6.2297423  94.9832632
  75.5407785   6.0007974  94.0662715  75.6826958   7.1868024  94.9963977
  72.4607615   3.8029336  89.9678898  73.3899675   3.9540495  89.7947865
  72.0398645   3.8913356  89.1127545  71.2595947   7.8280000  87.7377436
  71.1207033   7.4598784  88.6103374  70.4710543   8.3427639  87.5661394
  71.8544099  12.9289096  79.0802972  72.0295855  12.4577140  79.8948595
  71.1676887  13.5554863  79.3084233  72.8101162   7.2061603  85.1266274
  72.4750995   7.1662373  86.0223923  72.3105108   6.5406319  84.6536684
  66.7845406   2.6129233  90.6518855  66.6465204   1.8809471  91.2530394
  67.6950330   2.5238133  90.3703042  75.7460354   4.5517637  75.4003333
  75.1289524   3.8264465  75.3036386  75.2776842   5.3126997  75.0570407
  69.4127707   2.3249192  90.1402534  70.1227325   1.6842384  90.0989153
  69.3697015   2.5762087  91.0628715  77.4014485   9.2616545  93.0609114
  77.3427032   8.5775765  92.3939697  77.8034004  10.0035535  92.6089740
  68.1256641  -0.6885590  91.9598174  67.5893998  -1.1394852  92.6119770
  67.5373349  -0.5539681  91.2168638  66.4205184  16.0778459  85.8542832
  66.6601782  16.7096983  86.5321851  65.5774381  15.7266499  86.1408192
  67.5358900  -1.2296939  74.5224637  66.6588366  -1.3508138  74.1586884
  68.0116653  -2.0210860  74.2703526  77.4031893   7.2256129  91.2923093
  76.5158671   6.8882051  91.4149492  77.9730444   6.4939160  91.5291859
  59.0561040   3.5580221  84.6166145  59.7432080   3.2441951  84.0287160
  58.9009169   4.4621586  84.3433396  63.8595762  -1.5529582  89.0451168
  63.7753951  -2.1603913  88.3101578  63.0378468  -1.0620564  89.0460665
  70.9333046  11.8857582  88.2584336  70.8603218  12.6912553  88.7703641
  70.4910439  12.0849547  87.4332358  70.7222826  11.1229352  81.7687158
  69.9390348  11.6651032  81.8625382  71.4215571  11.6403331  82.1681399
  81.8849233   2.6364347  86.0539655  81.8739109   3.5189062  85.6833588
  81.0166613   2.2835897  85.8594192  73.3931730  11.7844416  90.4142495
  74.1059702  12.4191880  90.3418397  72.9021758  11.8808282  89.5982497
  75.1149257   5.6895668  81.9859787  74.1805535   5.8097131  81.8164491
  75.2925925   4.7868135  81.7219797  70.6154445  -0.9258636  84.1393048
  70.2452232  -1.4787596  84.8273954  71.1113537  -1.5300502  83.5868048
  78.5021808   1.5312988  82.5209821  78.9682260   2.3640979  82.4470124
  78.9529308   1.0657969  83.2255079  68.4443643   9.5338859  91.2348066
  69.1453103  10.1675342  91.3877460  67.9738758   9.8753591  90.4743705
  76.5698039   7.8756809  79.5195973  76.8457883   7.7613403  80.4289847
  75.7002538   7.4774294  79.4808146  76.2444929   2.0883467  89.0600616
  75.5916379   2.3359374  88.4053069  76.6225309   1.2747605  88.7263094
  73.2052103  12.1243160  83.1628787  73.3874498  11.3064816  83.6256539
  74.0285089  12.3410852  82.7253677  73.5394269  11.0511345  80.4243835
  74.0682035  10.5403799  79.8113997  73.8022488  10.7353875  81.2889368
  72.2932502   2.8303278  95.5466653  71.6173139   2.7297407  96.2169029
  73.1160136   2.6742491  96.0102651  64.0411361   9.0675214  88.1679169
  64.6264798   8.3218902  88.3007073  63.8436200   9.3779171  89.0515832
  66.8950016  12.1026462  83.1841611  66.2260392  12.5872589  82.7005651
  66.7562886  12.3495682  84.0984990  58.6329016   1.6380814  86.8883612
  58.6713115   1.1044405  87.6820730  58.1269309   1.1116020  86.2694589
  71.0355285  14.1370205  89.7824269  71.5873593  14.3001827  90.5473355
  71.3761478  14.7274643  89.1104294  66.0119778  -3.5154645  90.3846154
  66.0761105  -2.6539814  89.9723552  65.9486899  -4.1280643  89.6518513
  65.4872051  -1.4431513  94.0319188  66.1144090  -1.8254435  94.6456713
  64.6299970  -1.6617311  94.3974881  75.8866159   8.9631463  95.6372924
  76.4306063   9.5761421  95.1427879  75.3053004   9.5211041  96.1539937
  62.2637594   0.3644917  79.9637543  62.5591035  -0.5444405  79.9104597
  61.3625629   0.3432656  79.6418545  74.1723672  12.0852181  86.7687952
  74.0474812  11.2841920  86.2598897  74.8302763  12.5798374  86.2801921
  65.7931841  -1.5599087  85.9465092  65.0718426  -0.9463119  85.8072565
  66.5825096  -1.0241322  85.8681738  76.2358581   9.8861201  88.3967502
  75.2888916   9.7666552  88.3245828  76.5841354   8.9983699  88.4793763
  68.5958154  -4.2244660  92.2205743  69.1192556  -3.9782364  92.9832053
  68.3770487  -3.3924626  91.8008881  63.9925435  -1.9540986  80.0876868
  63.6638141  -2.8343607  79.9051974  64.3464806  -2.0093317  80.9753258
  73.2405014   9.6813917  84.5971854  73.0929976   8.7530624  84.7779424
  74.0658508   9.7034008  84.1128929  67.1067258  -1.6668016  80.4552346
  67.4463331  -1.1382095  79.7330954  67.5539379  -1.3287610  81.2310912
  76.8439136  10.5042476  85.6836727  77.7685683  10.2985337  85.5461178
  76.6754439  10.2558877  86.5926068  69.8010699  -3.2830965  89.9055414
  69.4607519  -4.0823152  90.3076094  69.0949705  -2.9829254  89.3332247
  69.0935405  -3.1693394  78.6545639  69.8143768  -2.7912142  78.1509356
  68.4700710  -2.4504518  78.7580617  73.2366528  -2.4648245  79.5903971
  73.4530143  -1.5823608  79.2892799  72.7560595  -2.8562032  78.8609613
  67.9765750   0.4937468  86.1674716  67.8310330   0.8077771  87.0598997
  67.4990953   1.1122368  85.6145614  69.8362133  -2.5159984  86.2155605
  69.8223701  -3.4118891  85.8787903  70.5534561  -2.5089321  86.8493891
  71.6888263  -2.0822644  88.2608733  71.4306041  -1.1605573  88.2593063
  71.1573304  -2.4792210  88.9509197  76.6334452  11.0228143  81.0398818
  76.8071330  10.4574566  80.2872670  77.1263343  11.8229038  80.8578308
  62.4511412   3.0342812  89.1062377  61.9064880   3.8102620  89.2382651
  63.3290762   3.3813617  88.9481498  69.2399029  -3.6345604  81.4843175
  69.3614940  -4.5628958  81.6834063  68.9501071  -3.6206918  80.5721491
  82.4873843   3.7864566  82.6589118  82.9304989   3.0371891  82.2608241
  81.6100354   3.7774702  82.2762850  77.6209625  10.3394907  78.1395716
  78.3160529  10.9601600  78.3583031  77.9632775   9.4890259  78.4148094
  63.2377434   2.1612708  91.9992534  62.4959170   2.3095344  92.5857164
  62.9170178   2.4220974  91.1359283  79.5201048   7.7894613  79.6683047
  80.0452372   8.1281886  78.9432367  79.4323400   6.8541628  79.4846182
  71.1821096  11.7028687  91.7972924  71.4908223  11.4577833  92.6695623
  71.9796578  11.9075325  91.3091794  71.2041708  13.8566596  84.0278300
  70.7646699  13.3642975  84.7211157  71.9549825  13.3139564  83.7870375
  63.6834047  10.0478137  84.0302928  64.5092067   9.7481909  83.6501572
  63.3328099   9.2785760  84.4792717  68.6515581   9.4004605  86.1000602
  68.0295590   8.7375310  85.8002830  69.3220447   9.4265737  85.4174250
  61.8842652   7.9664464  84.9891862  61.0474561   7.5386638  84.8075863
  61.8566298   8.1596907  85.9262653  68.7240108  -2.1213607  95.6933108
  68.7728264  -1.2451484  95.3110878  69.2662622  -2.6636214  95.1204751
  79.2094954   8.4227517  94.9734245  78.4190497   8.4051655  94.4338744
  78.9728308   8.9615810  95.7283282  79.3292829   5.2719983  92.2866974
  79.3790834   5.1069990  93.2282496  79.2206752   4.4047242  91.8964854
  68.2129087   7.9508529  79.5759062  68.3617208   8.6343993  78.9225735
  69.0195531   7.9313619  80.0908518  76.6196591   1.2550911  93.6026280
  77.5206454   1.1157376  93.3110278  76.6944566   1.4205366  94.5424458
  70.9539396  -1.3682234  92.4479467  70.0842706  -1.0748668  92.1762055
  71.1898877  -0.7841789  93.1686730  80.8311026   7.6916925  92.5308995
  80.5395834   8.0546905  93.3672456  80.2183157   6.9783933  92.3522327
  82.0306708   5.2569804  85.0511565  82.8653599   5.6959608  85.2149126
  82.1665837   4.7808458  84.2319811  79.0798214   2.8149539  90.9989053
  79.5552335   3.0077185  90.1907904  78.1563779   2.8708725  90.7532437
  65.9681720   3.9773706  80.5820131  65.7227762   3.0736036  80.7800342
  66.1377635   3.9790857  79.6399609  65.2377368  -0.2897936  78.0806293
  64.5446613  -0.2153581  77.4246329  64.9929120  -1.0537592  78.6027810
  71.7124493  10.4456659  77.0470810  71.1398460  11.0646846  76.5941282
  72.2857287  10.9956021  77.5810732  77.7799883  -0.3084701  89.2317359
  78.7317306  -0.2086603  89.2529583  77.6103333  -1.1006432  89.7415443
  74.9321753  10.7293809  78.1779392  75.8652426  10.6639371  78.3812268
  74.8444966  11.5650076  77.7193925  77.5609769  10.0459680  75.1383340
  77.4823401   9.7119543  76.0319098  78.3819436  10.5381448  75.1374812
  80.2587961   2.9121419  88.3459658  80.2264281   1.9737420  88.5319342
  80.8688584   2.9905456  87.6125483  72.0971291   1.7817472  74.3886862
  73.0430396   1.6523680  74.4575280  71.7185536   1.0432134  74.8656291
  86.0764510   3.9737426  87.4865695  86.8067899   3.7122714  88.0473398
  85.4671456   3.2366148  87.5267763  84.1579808   2.1145288  88.0840146
  83.4312971   1.9801253  87.4756638  83.7427094   2.4222117  88.8896864
  71.9809984   5.8335218  95.8487519  72.9012993   6.0113817  96.0427566
  71.9459567   4.8891263  95.6967219  70.2814209  -0.2932552  74.3241748
  69.3745664  -0.5899439  74.4004461  70.5590190  -0.5902734  73.4576034
  61.1992149   1.0273812  84.7740794  60.8794933   0.1739120  84.4815168
  60.6525577   1.2422390  85.5298761  64.9772057   3.7436253  88.4910301
  65.1958066   4.6753361  88.5098334  65.3897830   3.3844227  89.2765104
  69.8499922  -0.6830542  97.8813049  69.7496649   0.2663815  97.8125141
  69.6321464  -1.0112303  97.0089120  69.0512993  -3.4345616  74.4653727
  69.9132157  -3.1090718  74.7249544  69.2363337  -4.2214121  73.9526793
  61.0680409   4.6476723  86.7433916  60.3743880   4.2330676  86.2303870
  61.8153400   4.6897260  86.1467334  69.7131192   2.7466597  96.6978111
  69.2298274   3.5466957  96.9042000  69.7992131   2.7574542  95.7445555
  62.9817152   4.5794977  84.6199930  62.9587840   4.6782664  83.6681814
  63.2917788   5.4260128  84.9417097  65.6404529   6.6371132  88.7346545
  66.5947783   6.6055074  88.6676476  65.4417053   6.1761756  89.5496771
  66.2303912   5.2072248  91.3017343  67.0496801   5.7016327  91.3252180
  66.5040719   4.2904216  91.2734910  63.9954758  12.1790752  85.7516743
  63.8609226  11.4191152  85.1854741  63.5786820  12.9031651  85.2845532
  75.1313721   7.3627675  74.7593318  75.8349571   7.5677678  75.3750974
  74.4076370   7.9304437  75.0242402  75.9611532   3.1137536  80.8795588
  75.9046733   3.5706088  80.0403221  76.5139874   2.3528221  80.7018431
  84.0828675   1.6423341  84.2116999  83.5228233   1.7116531  84.9848561
  83.4772179   1.4664326  83.4916495  67.1523884  13.0760069  85.9635185
  67.0356268  14.0205501  85.8613876  66.3316330  12.7733630  86.3520985
  77.0400419   7.8010204  76.8091778  77.8746023   7.3691403  76.6269253
  76.8784762   7.6292218  77.7368673  76.6946311   4.3042318  78.1748117
  76.6395115   4.1386589  77.2336562  76.0692366   5.0118350  78.3310307
  61.4838826  -0.4589618  92.0009540  62.1297689  -0.9690664  92.4896765
  61.2755977   0.2779064  92.5752965  74.0092218   6.6091229  97.5001680
  74.8783378   6.7831882  97.1388315  73.5298969   7.4285646  97.3777410
  68.1778398  13.7288330  89.1791114  69.0805645  13.7611941  89.4957609
  67.9515768  12.7988781  89.1937450  69.9332000  12.4819317  85.8401192
  68.9827631  12.4821179  85.7265565  70.2364486  11.7352052  85.3237227
  65.8236317  -3.3122001  96.0984554  66.6867778  -3.6685196  96.3087878
  65.2501727  -3.6508106  96.7859958  85.6684694  18.3179855  86.9046955
  86.3063104  18.1986603  86.2010295  85.5505537  19.2660699  86.9634907
  82.4774400  18.2707283  86.8408480  82.1392912  18.1548348  85.9529014
  83.3464168  17.8698449  86.8209486  78.3361216  20.1242760  82.8305370
  77.7726081  20.0332697  82.0621658  78.2213611  19.3042664  83.3107863
  82.9594183  19.4242135  92.7994685  82.9482824  19.0294933  91.9275189
  83.1214822  18.6908208  93.3928457  75.8825648  21.6193951  85.6689591
  76.6746940  21.2784776  85.2535890  76.1222298  21.7288927  86.5891744
  83.9160774  23.7913728  78.1419835  83.2648754  24.3767808  77.7553849
  84.7105137  24.3219922  78.2014873  77.8416402  20.8802865  78.5406970
  78.6147278  20.3331852  78.4019846  78.1941800  21.7447114  78.7521431
  79.6801444  22.2079247  91.7473869  79.3891310  23.1124878  91.6320535
  80.3158428  22.2495775  92.4617939  80.6057651  19.5856096  88.3375229
  81.2021223  19.3612118  87.6232192  80.6632623  18.8440841  88.9400677
  80.1782679  17.0395531  76.1725420  80.4308200  16.5177052  75.4108883
  79.2407238  16.8761676  76.2752103  85.2225962  16.0431309  83.9800163
  86.0089051  15.6250732  83.6290580  85.4864667  16.9477401  84.1481811
  85.3936040  21.4804160  78.6788820  84.7581873  21.5538786  79.3909724
  85.0633446  22.0697758  78.0007899  90.6234389  15.9806542  84.8833141
  91.3559561  15.4105759  85.1170971  89.8673745  15.5928143  85.3239647
  79.8978968  18.9423637  78.3749795  79.7815226  18.2668540  79.0430879
  80.0081228  18.4556011  77.5581948  82.2410509  18.4033784  82.0796484
  81.8768716  17.8764405  82.7909405  83.0977625  18.0132253  81.9062969
  88.1459810   9.6928117  89.3427750  87.8143134  10.5623527  89.1188965
  87.5505423   9.3764401  90.0221780  81.8815996  13.4323684  77.0757832
  82.0490398  14.3003920  77.4428303  81.6913165  13.5950965  76.1519122
  84.6391329  21.8940662  88.7423663  84.3392052  22.7965701  88.6339470
  84.2942389  21.6272846  89.5944816  78.0903811  18.3454459  84.7760367
  77.1654307  18.2130673  84.9838059  78.3388224  19.1248679  85.2730310
  88.0388473  14.4123203  86.4221100  87.1305350  14.3438611  86.1279861
  87.9876069  14.8895148  87.2502926  81.8605217  15.8881341  78.0604499
  81.7404842  16.3338392  78.8989979  81.1657805  16.2366659  77.5018037
  75.4512622  17.9887733  85.6104156  75.5805003  18.2422212  86.5243568
  74.7710073  18.5815441  85.2908811  79.6212109  28.6584983  81.7094630
  79.5436139  29.6092808  81.7883111  79.0173753  28.3130855  82.3669557
  82.1129339  15.8312848  94.3655997  81.3362673  16.3906768  94.3558862
  82.7519902  16.3169631  94.8870867  89.9050119  12.6139641  88.1998974
  89.2624500  12.9072174  87.5538769  89.4005048  12.4992561  89.0052171
  87.5590283  16.3602814  78.8884833  88.4708139  16.5930201  78.7132531
  87.0499930  16.9439858  78.3259912  80.3675711  18.6398302  93.9273964
  81.1090395  19.1783346  93.6508788  79.6612697  19.2664590  94.0845516
  85.8431051  20.7827442  92.5246126  86.2514407  20.3409853  91.7800758
  85.1208312  20.2080070  92.7780319  82.1962121  15.7200049  89.8979683
  83.0423316  16.1439462  90.0414332  82.1360758  15.0633673  90.5918246
  86.1659865  21.3428633  86.2798415  85.5368728  21.5074347  85.5774483
  85.7785527  21.7570242  87.0509379  90.0449097  22.2783071  83.6342778
  89.3600135  22.6581972  83.0839812  90.1292947  22.8878397  84.3674726
  85.3461566  13.3804417  91.5560856  85.1022498  14.1346478  91.0195132
  85.6221497  13.7589765  92.3908103  87.3000029  19.9243030  90.2338122
  87.5116924  20.5674789  89.5572503  87.2529777  19.0905346  89.7660052
  84.9026258  12.5360850  87.1374694  84.0410737  12.8342104  87.4291432
  84.9288693  12.7531249  86.2055727  81.7187827  21.0803041  83.5448500
  82.1826173  21.3590744  82.7553122  81.4544625  20.1786485  83.3621590
  78.6111908  20.6274522  86.4828263  79.1813265  21.0561791  85.8445748
  79.2020020  20.3457107  87.1812449  80.6556713  17.2026193  80.3538065
  81.3580757  17.6547237  80.8211991  80.3237342  16.5610012  80.9817958
  79.1037075  15.7937950  94.7289274  78.4735735  16.4754231  94.9624671
  78.9973163  15.6821031  93.7842413  74.3982047  15.4609746  85.6555199
  73.6081101  15.7167274  85.1795309  74.8893295  16.2758084  85.7607239
  88.4145857  22.8014985  88.4060479  89.2363301  22.3995172  88.1243161
  88.4108260  22.6983219  89.3576595  76.3496793  15.8254325  82.6138675
  75.5527956  15.9373019  83.1322171  76.1222385  16.1640977  81.7479566
  82.1802460  22.3499028  90.5621190  82.2446893  22.8119436  91.3979362
  81.4713384  21.7196393  90.6903500  72.6819750  15.7140236  88.0870189
  72.9327789  16.5987246  88.3527765  73.2179299  15.5344838  87.3145281
  96.5051850  19.1453733  84.7545451  95.7515558  18.5761132  84.5989455
  96.6399391  19.1116398  85.7016085  81.8950478  24.0167136  80.4300170
  81.7596153  24.8618672  80.8585018  82.4360290  24.2186413  79.6666104
  78.3817818  10.0958716  97.0914525  77.9884763   9.5424914  97.7662170
  79.1983958  10.4069294  97.4821043  75.3479875  21.5342574  81.0028095
  75.8604396  22.3285824  81.1533660  76.0002588  20.8368864  80.9361697
  77.1574760  24.6508330  83.0850848  77.3341388  25.5726295  82.8971832
  77.9531594  24.3366749  83.5145228  81.2985779  11.5116595  94.6834782
  82.0395492  12.1123748  94.6039244  81.5303701  10.7694233  94.1252825
  76.4427117  16.6972962  92.9613012  76.3280632  15.7958219  93.2620111
  75.5871634  16.9436659  92.6097828  83.5218954  24.6390702  94.5600512
  83.0782809  23.8527081  94.2421417  84.1836168  24.8269853  93.8944403
  78.2806075  26.1686504  89.0861191  78.8313501  26.0403567  88.3138185
  77.4417551  26.4681393  88.7356084  85.6200192  24.9193502  92.5881914
  85.6018668  25.7402383  92.0962183  86.5420112  24.7947577  92.8132055
  82.0773247  22.4337632  93.4305422  82.6101583  21.6725920  93.2004730
  81.5487328  22.1411284  94.1729576  85.2442942   7.5397698  88.9599064
  84.9007211   8.4299339  88.8838174  85.6121904   7.3499355  88.0968649
  73.3128792  19.8631228  81.7787666  74.1504014  20.2728237  81.5621373
  73.4907060  18.9230670  81.7487860  85.2093224  17.5306309  77.4671499
  84.6939848  18.3010913  77.7059886  84.9370533  16.8571445  78.0904560
  82.7940335  12.3756010  82.5256737  81.9381932  11.9862860  82.3462376
  83.2067287  12.4547970  81.6656523  84.3239482   9.9102353  86.9248297
  83.8204277   9.8732488  86.1116102  84.6170089  10.8195096  86.9844954
  80.5682368   9.9941083  85.9314479  81.4335365   9.7983891  85.5720368
  80.6359877   9.7651434  86.8583835  90.1827498  20.2838663  79.4024672
  89.4056941  19.9449823  78.9579834  90.8618979  20.2891287  78.7279637
  84.9979527  15.4033401  79.2931280  84.6929663  15.7179550  80.1441423
  85.9509970  15.4814821  79.3358613  83.4425959  21.5623624  80.9424234
  82.9147321  20.8276384  80.6297471  82.9413462  22.3398301  80.6964202
  88.4218805  19.7572645  86.0591280  87.7642480  20.4471906  86.1471409
  89.2259204  20.1469077  86.4025267  78.1744687  12.2243290  83.3030845
  78.7488439  12.0018472  82.5704038  78.7615669  12.2931985  84.0559447
  87.2324264  18.1117017  84.1095222  87.7456146  18.7447009  84.6116932
  87.8825488  17.5118213  83.7438582  78.5014274  14.2547752  77.3226731
  77.6651586  14.5922438  77.6436005  78.3619044  14.1196731  76.3853868
  80.4767355   9.0984539  82.0305915  79.8231767   8.7833557  81.4062530
  80.4347829   8.4760280  82.7565738  81.5878559  19.3803834  73.9459207
  80.6805621  19.1493088  74.1450356  82.0849591  18.5841454  74.1333188
  84.4946638  28.0901342  76.8655893  83.8208337  28.3933038  77.4740851
  84.8812460  28.8930422  76.5161350  83.7105095  15.5866473  86.3553562
  82.7927656  15.8081420  86.1975251  84.1265239  15.6612783  85.4965270
  84.4940143  16.9857889  81.4856243  85.2411962  17.4979286  81.1763365
  84.7631732  16.6641941  82.3460636  82.7666793  19.4816429  78.4683197
  81.8578012  19.1975462  78.5655667  82.7961877  19.9015508  77.6086504
  87.9986060  23.0923019  82.2374365  87.5448387  22.2513929  82.2939555
  87.3680027  23.7284417  82.5749145  86.9418980  14.0215005  83.4675032
  86.2041737  13.5092391  83.7985275  87.1945753  13.5815386  82.6558309
  86.4419000  24.9299516  83.1724183  86.7341974  25.4904573  82.4536548
  86.9517620  25.2228077  83.9277342  87.0430607   6.7991257  84.0616801
  87.3489484   5.9388620  83.7742716  87.7683212   7.3908877  83.8615795
  73.3354963  17.2021943  82.4498399  73.1379363  16.6091304  81.7249466
  72.7801627  16.8974154  83.1674338  81.3151687  17.0945050  84.5692992
  81.3700297  16.1418886  84.4935469  80.5042889  17.2504489  85.0534291
  82.4642881  21.0225173  75.8071276  82.0262311  20.3061032  75.3476913
  83.2053322  21.2501288  75.2456367  79.2544047  15.7122110  82.3283371
  78.4411912  16.0116280  82.7348563  79.7503041  15.3177798  83.0457853
  81.4052625  25.7079867  84.2617636  81.3628804  25.9340713  83.3326168
  82.3215324  25.4743241  84.4103437  84.8518259  16.1763934  91.1598265
  85.2067646  16.4035407  92.0192731  85.4990390  16.5082311  90.5375520
  90.5815995  19.2982370  81.8647594  90.4433894  19.4883966  80.9368783
  90.2252214  20.0601753  82.3215645  78.7458122  13.2840465  87.9444606
  79.3857501  13.1429224  87.2467570  77.9135652  12.9974979  87.5683208
  90.6085375  21.3658897  86.8758866  91.0421882  21.2734186  87.7241920
  91.3216956  21.3416398  86.2378882  79.5218425  22.5842896  84.0579599
  80.3159024  22.0893216  83.8562174  78.8110118  22.0560759  83.6947304
  84.3413270  24.9660991  88.4091966  84.3950292  25.5351927  89.1769682
  83.4728051  25.1362876  88.0446003  75.8301189  16.7285977  80.1339351
  74.8998777  16.6670433  80.3509313  75.9258661  16.2061930  79.3375993
  75.7486738  13.2540790  82.7217593  76.0093555  14.1686123  82.6126753
  76.5703910  12.7865233  82.8714206  77.2211663  14.6678547  89.8916418
  77.8934717  14.4595909  89.2429066  76.3941450  14.4700633  89.4521650
  91.4700925  21.4082598  89.4091751  91.6636815  22.3128408  89.6551026
  91.3701543  20.9490017  90.2430336  83.1237235  11.2940488  91.9082078
  82.4765150  11.9930438  91.8146555  83.8938251  11.7276632  92.2758327
  86.5316033  21.5589340  94.9832632  86.3801540  21.3299892  94.0662715
  86.5220713  22.5159942  94.9963977  83.3001370  19.1321253  89.9678898
  84.2293430  19.2832413  89.7947865  82.8792400  19.2205274  89.1127545
  82.0989701  23.1571918  87.7377436  81.9600787  22.7890702  88.6103374
  81.3104298  23.6719557  87.5661394  82.6937853  28.2581014  79.0802972
  82.8689609  27.7869057  79.8948595  82.0070641  28.8846780  79.3084233
  83.6494917  22.5353520  85.1266274  83.3144749  22.4954290  86.0223923
  83.1498862  21.8698236  84.6536684  77.6239161  17.9421150  90.6518855
  77.4858959  17.2101389  91.2530394  78.5344084  17.8530050  90.3703042
  86.5854108  19.8809555  75.4003333  85.9683279  19.1556383  75.3036386
  86.1170597  20.6418915  75.0570407  80.2521461  17.6541110  90.1402534
  80.9621080  17.0134302  90.0989153  80.2090769  17.9054005  91.0628715
  88.2408240  24.5908463  93.0609114  88.1820786  23.9067683  92.3939697
  88.6427758  25.3327453  92.6089740  78.9650395  14.6406328  91.9598174
  78.4287752  14.1897066  92.6119770  78.3767104  14.7752236  91.2168638
  77.2598939  31.4070377  85.8542832  77.4995537  32.0388901  86.5321851
  76.4168135  31.0558417  86.1408192  78.3752654  14.0994979  74.5224637
  77.4982121  13.9783780  74.1586884  78.8510407  13.3081057  74.2703526
  88.2425647  22.5548047  91.2923093  87.3552426  22.2173969  91.4149492
  88.8124198  21.8231078  91.5291859  69.8954794  18.8872139  84.6166145
  70.5825834  18.5733869  84.0287160  69.7402923  19.7913503  84.3433396
  74.6989516  13.7762335  89.0451168  74.6147705  13.1688005  88.3101578
  73.8772223  14.2671354  89.0460665  81.7726801  27.2149499  88.2584336
  81.6996972  28.0204471  88.7703641  81.3304194  27.4141465  87.4332358
  81.5616580  26.4521269  81.7687158  80.7784102  26.9942950  81.8625382
  82.2609325  26.9695249  82.1681399  84.8713230  12.2615899  84.4121363
  85.3681930  11.5085861  84.0922434  84.1000212  12.2980215  83.8464573
  92.7242988  17.9656264  86.0539655  92.7132864  18.8480980  85.6833588
  91.8560367  17.6127815  85.8594192  84.2325484  27.1136333  90.4142495
  84.9453456  27.7483798  90.3418397  83.7415513  27.2100199  89.5982497
  85.9543011  21.0187586  81.9859787  85.0199290  21.1389048  81.8164491
  86.1319679  20.1160053  81.7219797  81.4548199  14.4033282  84.1393048
  81.0845987  13.8504322  84.8273954  81.9507292  13.7991415  83.5868048
  89.3415562  16.8604905  82.5209821  89.8076015  17.6932897  82.4470124
  89.7923063  16.3949887  83.2255079  79.2837398  24.8630777  91.2348066
  79.9846857  25.4967260  91.3877460  78.8132513  25.2045508  90.4743705
  87.4091793  23.2048727  79.5195973  87.6851637  23.0905321  80.4289847
  86.5396292  22.8066211  79.4808146  87.3132225   9.2285492  86.5600722
  86.3995305   9.4589719  86.7282929  87.7425327   9.3123936  87.4114755
  87.0838684  17.4175384  89.0600616  86.4310134  17.6651292  88.4053069
  87.4619064  16.6039522  88.7263094  84.0445858  27.4535077  83.1628787
  84.2268252  26.6356733  83.6256539  84.8678844  27.6702770  82.7253677
  84.3788023  26.3803263  80.4243835  84.9075789  25.8695717  79.8113997
  84.6416243  26.0645793  81.2889368  83.1326257  18.1595195  95.5466653
  82.4566894  18.0589325  96.2169029  83.9553891  18.0034409  96.0102651
  74.8805116  24.3967132  88.1679169  75.4658553  23.6510820  88.3007073
  74.6829954  24.7071089  89.0515832  77.7343771  27.4318379  83.1841611
  77.0654146  27.9164507  82.7005651  77.5956641  27.6787600  84.0984990
  69.4722770  16.9672732  86.8883612  69.5106870  16.4336323  87.6820730
  68.9663063  16.4407938  86.2694589  81.8749040  29.4662123  89.7824269
  82.4267348  29.6293744  90.5473355  82.2155233  30.0566561  89.1104294
  76.8513533  11.8137273  90.3846154  76.9154859  12.6752103  89.9723552
  76.7880653  11.2011274  89.6518513  76.3265805  13.8860405  94.0319188
  76.9537844  13.5037482  94.6456713  75.4693724  13.6674607  94.3974881
  86.7259914  24.2923380  95.6372924  87.2699818  24.9053339  95.1427879
  86.1446759  24.8502959  96.1539937  73.1031348  15.6936834  79.9637543
  73.3984789  14.7847513  79.9104597  72.2019384  15.6724574  79.6418545
  85.0117427  27.4144098  86.7687952  84.8868566  26.6133838  86.2598897
  85.6696518  27.9090292  86.2801921  76.6325595  13.7692831  85.9465092
  75.9112181  14.3828798  85.8072565  77.4218851  14.3050596  85.8681738
  87.0752335  25.2153118  88.3967502  86.1282671  25.0958470  88.3245828
  87.4235108  24.3275616  88.4793763  79.4351909  11.1047257  92.2205743
  79.9586310  11.3509554  92.9832053  79.2164242  11.9367292  91.8008881
  74.8319190  13.3750932  80.0876868  74.5031896  12.4948311  79.9051974
  75.1858560  13.3198601  80.9753258  84.0798768  25.0105835  84.5971854
  83.9323731  24.0822542  84.7779424  84.9052262  25.0325925  84.1128929
  77.9461013  13.6623902  80.4552346  78.2857085  14.1909823  79.7330954
  78.3933133  14.0004308  81.2310912  87.6832890  25.8334393  85.6836727
  88.6079438  25.6277255  85.5461178  87.5148194  25.5850794  86.5926068
  80.6404454  12.0460952  89.9055414  80.3001274  11.2468765  90.3076094
  79.9343460  12.3462663  89.3332247  81.2920925   9.1310265  88.3582737
  82.1146995   8.6570743  88.2361627  81.5358989   9.9100749  88.8581423
  79.9329160  12.1598523  78.6545639  80.6537522  12.5379776  78.1509356
  79.3094464  12.8787400  78.7580617  84.0760283  12.8643672  79.5903971
  84.2923897  13.7468310  79.2892799  83.5954350  12.4729886  78.8609613
  78.8159504  15.8229385  86.1674716  78.6704085  16.1369689  87.0598997
  78.3384708  16.4414286  85.6145614  80.6755887  12.8131933  86.2155605
  80.6617456  11.9173027  85.8787903  81.3928315  12.8202597  86.8493891
  82.5282018  13.2469274  88.2608733  82.2699796  14.1686344  88.2593063
  81.9967058  12.8499708  88.9509197  87.4728207  26.3520061  81.0398818
  87.6465084  25.7866483  80.2872670  87.9657098  27.1520956  80.8578308
  73.2905166  18.3634730  89.1062377  72.7458634  19.1394538  89.2382651
  74.1684516  18.7105534  88.9481498  80.0792783  11.6946314  81.4843175
  80.2008694  10.7662960  81.6834063  79.7894825  11.7085000  80.5721491
  82.9483973   9.3801224  84.6209895  82.9705670   9.4440557  83.6661875
  83.3652032   8.5405733  84.8150401  93.3267598  19.1156484  82.6589118
  93.7698744  18.3663809  82.2608241  92.4494108  19.1066620  82.2762850
  88.4603379  25.6686825  78.1395716  89.1554284  26.2893518  78.3583031
  88.8026529  24.8182176  78.4148094  74.0771188  17.4904626  91.9992534
  73.3352924  17.6387261  92.5857164  73.7563932  17.7512892  91.1359283
  90.3594802  23.1186531  79.6683047  90.8846126  23.4573803  78.9432367
  90.2717155  22.1833546  79.4846182  82.0214851  27.0320604  91.7972924
  82.3301977  26.7869751  92.6695623  82.8190333  27.2367243  91.3091794
  82.0435463  29.1858514  84.0278300  81.6040453  28.6934893  84.7211157
  82.7943580  28.6431482  83.7870375  74.5227802  25.3770055  84.0302928
  75.3485822  25.0773827  83.6501572  74.1721854  24.6077677  84.4792717
  79.4909335  24.7296523  86.1000602  78.8689344  24.0667228  85.8002830
  80.1614202  24.7557655  85.4174250  72.7236407  23.2956381  84.9891862
  71.8868315  22.8678556  84.8075863  72.6960052  23.4888825  85.9262653
  79.5633863  13.2078311  95.6933108  79.6122018  14.0840434  95.3110878
  80.1056377  12.6655704  95.1204751  90.0488708  23.7519434  94.9734245
  89.2584252  23.7343573  94.4338744  89.8122063  24.2907728  95.7283282
  90.1686583  20.6011901  92.2866974  90.2184588  20.4361908  93.2282496
  90.0600507  19.7339160  91.8964854  79.0522842  23.2800446  79.5759062
  79.2010962  23.9635911  78.9225735  79.8589285  23.2605536  80.0908518
  87.4590346  16.5842829  93.6026280  88.3600208  16.4449294  93.3110278
  87.5338320  16.7497284  94.5424458  81.7933151  13.9609683  92.4479467
  80.9236460  14.2543250  92.1762055  82.0292631  14.5450128  93.1686730
  91.6704780  23.0208842  92.5308995  91.3789588  23.3838823  93.3672456
  91.0576911  22.3075850  92.3522327  92.8700462  20.5861722  85.0511565
  93.7047354  21.0251526  85.2149126  93.0059591  20.1100375  84.2319811
  89.9191968  18.1441457  90.9989053  90.3946090  18.3369103  90.1907904
  88.9957534  18.2000643  90.7532437  76.8075475  19.3065624  80.5820131
  76.5621517  18.4027954  80.7800342  76.9771389  19.3082774  79.6399609
  84.4972185  10.1789300  89.9644887  85.0154129  10.9150327  89.6391376
  84.1427318  10.4853294  90.7991646  76.0771122  15.0393982  78.0806293
  75.3840367  15.1138337  77.4246329  75.8322874  14.2754325  78.6027810
  84.7484779   6.5989583  85.4845784  85.0286533   5.9312772  86.1106210
  85.5335386   6.7918679  84.9720447  82.5518247  25.7748577  77.0470810
  81.9792215  26.3938764  76.5941282  83.1251041  26.3247939  77.5810732
  88.6193637  15.0207217  89.2317359  89.5711060  15.1205315  89.2529583
  88.4497088  14.2285485  89.7415443  86.6408017  12.1062800  89.4176760
  86.0457949  12.3867813  88.7223248  86.3557714  12.5956701  90.1893501
  85.7715507  26.0585727  78.1779392  86.7046180  25.9931289  78.3812268
  85.6838720  26.8941994  77.7193925  88.4003524  25.3751597  75.1383340
  88.3217155  25.0411461  76.0319098  89.2213191  25.8673365  75.1374812
  91.0981715  18.2413337  88.3459658  91.0658035  17.3029337  88.5319342
  91.7082339  18.3197373  87.6125483  82.9365046  17.1109390  74.3886862
  83.8824151  16.9815598  74.4575280  82.5579291  16.3724051  74.8656291
  91.2476204  15.0324380  88.3917942  90.7315252  14.2482837  88.2047870
  92.1316152  14.7043097  88.5564461  88.9086931   8.7765396  84.3513754
  88.7111752   8.4680484  85.2357086  89.5186636   9.5027035  84.4811684
  96.9158265  19.3029343  87.4865695  97.6461653  19.0414632  88.0473398
  96.3065210  18.5658065  87.5267763  94.9973562  17.4437206  88.0840146
  94.2706726  17.3093171  87.4756638  94.5820849  17.7514035  88.8896864
  82.8203739  21.1627136  95.8487519  83.7406748  21.3405735  96.0427566
  82.7853322  20.2183181  95.6967219  81.1207963  15.0359366  74.3241748
  80.2139419  14.7392479  74.4004461  81.3983944  14.7389184  73.4576034
  72.0385904  16.3565729  84.7740794  71.7188688  15.5031038  84.4815168
  71.4919332  16.5714308  85.5298761  75.8165811  19.0728170  88.4910301
  76.0351821  20.0045278  88.5098334  76.2291585  18.7136145  89.2765104
  82.7370029   9.5796256  80.4785989  81.9270757   9.2343341  80.8541235
  83.4254446   9.2703799  81.0673600  84.6660577   8.6574303  82.1010286
  85.2191616   9.0769756  82.7600309  84.9030664   7.7310051  82.1433242
  80.6893676  14.6461376  97.8813049  80.5890403  15.5955733  97.8125141
  80.4715218  14.3179615  97.0089120  79.8906748  11.8946301  74.4653727
  80.7525912  12.2201200  74.7249544  80.0757092  11.1077797  73.9526793
  71.9074164  19.9768641  86.7433916  71.2137635  19.5622594  86.2303870
  72.6547155  20.0189177  86.1467334  88.0439384  10.7674828  81.6088950
  87.4638053  11.4259632  81.2267002  87.7775317   9.9452172  81.1976367
  86.4942951  10.1679885  83.8110270  86.9942729  10.2796420  83.0024589
  87.1378559   9.8640938  84.4511079  80.5524946  18.0758515  96.6978111
  80.0692028  18.8758875  96.9042000  80.6385885  18.0866460  95.7445555
  73.8210906  19.9086895  84.6199930  73.7981594  20.0074582  83.6681814
  74.1311543  20.7552045  84.9417097  76.4798284  21.9663050  88.7346545
  77.4341537  21.9346992  88.6676476  76.2810808  21.5053673  89.5496771
  77.0697666  20.5364166  91.3017343  77.8890555  21.0308244  91.3252180
  77.3434474  19.6196134  91.2734910  86.8264262  12.9274918  80.6645298
  85.9390117  13.2124569  80.4465493  87.2418251  12.7668681  79.8172575
  90.1778798  12.9521439  84.3799637  90.9539189  13.4417891  84.6524254
  89.4526933  13.3779493  84.8371507  92.6151357  13.6649058  85.4373578
  93.2095848  13.4244794  84.7266886  92.6877941  12.9456189  86.0647114
  74.8348513  27.5082669  85.7516743  74.7002981  26.7483070  85.1854741
  74.4180575  28.2323569  85.2845532  85.9707476  22.6919593  74.7593318
  86.6743326  22.8969595  75.3750974  85.2470124  23.2596355  75.0242402
  86.8005286  18.4429454  80.8795588  86.7440487  18.8998005  80.0403221
  87.3533628  17.6820139  80.7018431  90.6110092  14.2319186  81.7045708
  90.3547026  13.8315822  82.5353915  89.9862960  14.9462980  81.5795847
  94.9222430  16.9715259  84.2116999  94.3621988  17.0408448  84.9848561
  94.3165933  16.7956244  83.4916495  77.9917639  28.4051986  85.9635185
  77.8750023  29.3497419  85.8613876  77.1710085  28.1025548  86.3520985
  87.8794173  23.1302122  76.8091778  88.7139777  22.6983320  76.6269253
  87.7178516  22.9584136  77.7368673  87.5340065  19.6334235  78.1748117
  87.4788869  19.4678507  77.2336562  86.9086121  20.3410268  78.3310307
  72.3232580  14.8702300  92.0009540  72.9691444  14.3601254  92.4896765
  72.1149731  15.6070981  92.5752965  84.8485972  21.9383147  97.5001680
  85.7177132  22.1123799  97.1388315  84.3692724  22.7577564  97.3777410
  80.8436191   9.1342344  77.7533436  80.8314861  10.0784184  77.9101707
  81.7359613   8.9512490  77.4592897  79.0172153  29.0580248  89.1791114
  79.9199399  29.0903858  89.4957609  78.7909523  28.1280699  89.1937450
  80.7725755  27.8111235  85.8401192  79.8221386  27.8113096  85.7265565
  81.0758241  27.0643969  85.3237227  84.6588310   5.7285121  82.0079373
  83.8920706   5.1743608  82.1536055  85.0699015   5.8006990  82.8693524
  76.6630071  12.0169917  96.0984554  77.5261533  11.6606722  96.3087878
  76.0895482  11.6783811  96.7859958  96.5078448  33.6471773  86.9046955
  97.1456858  33.5278520  86.2010295  96.3899291  34.5952617  86.9634907
  93.3168155  33.5999201  86.8408480  92.9786666  33.4840266  85.9529014
  94.1857923  33.1990366  86.8209486  89.1754970  35.4534678  82.8305370
  88.6119835  35.3624614  82.0621658  89.0607365  34.6334582  83.3107863
  93.7987937  34.7534053  92.7994685  93.7876578  34.3586851  91.9275189
  93.9608577  34.0200125  93.3928457  86.7219402  36.9485869  85.6689591
  87.5140694  36.6076694  85.2535890  86.9616052  37.0580844  86.5891744
  94.7554529  39.1205645  78.1419835  94.1042509  39.7059726  77.7553849
  95.5498892  39.6511840  78.2014873  88.6810156  36.2094782  78.5406970
  89.4541032  35.6623769  78.4019846  89.0335555  37.0739032  78.7521431
  90.5195199  37.5371165  91.7473869  90.2285065  38.4416796  91.6320535
  91.1552183  37.5787692  92.4617939  91.4451405  34.9148013  88.3375229
  92.0414978  34.6904036  87.6232192  91.5026377  34.1732759  88.9400677
  91.0176434  32.3687449  76.1725420  91.2701955  31.8468970  75.4108883
  90.0800993  32.2053594  76.2752103  96.0619717  31.3723227  83.9800163
  96.8482806  30.9542650  83.6290580  96.3258421  32.2769319  84.1481811
  96.2329794  36.8096077  78.6788820  95.5975627  36.8830704  79.3909724
  95.9027200  37.3989676  78.0007899 101.4628144  31.3098460  84.8833141
 102.1953316  30.7397677  85.1170971 100.7067500  30.9220061  85.3239647
  90.7372723  34.2715554  78.3749795  90.6208981  33.5960458  79.0430879
  90.8474983  33.7847928  77.5581948  93.0804264  33.7325702  82.0796484
  92.7162471  33.2056323  82.7909405  93.9371379  33.3424171  81.9062969
  98.9853564  25.0220034  89.3427750  98.6536889  25.8915445  89.1188965
  98.3899178  24.7056318  90.0221780  92.7209751  28.7615601  77.0757832
  92.8884153  29.6295838  77.4428303  92.5306920  28.9242883  76.1519122
  95.4785084  37.2232580  88.7423663  95.1785807  38.1257619  88.6339470
  95.1336143  36.9564763  89.5944816  88.9297565  33.6746377  84.7760367
  88.0048062  33.5422591  84.9838059  89.1781978  34.4540596  85.2730310
  98.8782228  29.7415120  86.4221100  97.9699105  29.6730529  86.1279861
  98.8269823  30.2187065  87.2502926  92.6998971  31.2173259  78.0604499
  92.5798597  31.6630310  78.8989979  92.0051560  31.5658576  77.5018037
  86.2906376  33.3179651  85.6104156  86.4198757  33.5714129  86.5243568
  85.6103828  33.9107359  85.2908811  90.4605864  43.9876901  81.7094630
  90.3829893  44.9384726  81.7883111  89.8567507  43.6422773  82.3669557
  92.9523093  31.1604766  94.3655997  92.1756427  31.7198686  94.3558862
  93.5913656  31.6461549  94.8870867 100.7443874  27.9431559  88.1998974
 100.1018254  28.2364092  87.5538769 100.2398802  27.8284479  89.0052171
  98.3984038  31.6894732  78.8884833  99.3101894  31.9222119  78.7132531
  97.8893685  32.2731776  78.3259912  91.2069466  33.9690219  93.9273964
  91.9484150  34.5075263  93.6508788  90.5006451  34.5956508  94.0845516
  96.6824805  36.1119360  92.5246126  97.0908161  35.6701770  91.7800758
  95.9602067  35.5371987  92.7780319  93.0355875  31.0491967  89.8979683
  93.8817070  31.4731380  90.0414332  92.9754513  30.3925591  90.5918246
  97.0053620  36.6720550  86.2798415  96.3762482  36.8366265  85.5774483
  96.6179282  37.0862160  87.0509379 100.8842852  37.6074988  83.6342778
 100.1993890  37.9873890  83.0839812 100.9686701  38.2170315  84.3674726
  96.1855321  28.7096335  91.5560856  95.9416252  29.4638395  91.0195132
  96.4615251  29.0881683  92.3908103  98.1393783  35.2534947  90.2338122
  98.3510679  35.8966707  89.5572503  98.0923532  34.4197264  89.7660052
  95.7420012  27.8652768  87.1374694  94.8804491  28.1634021  87.4291432
  95.7682447  28.0823167  86.2055727  92.5581582  36.4094958  83.5448500
  93.0219927  36.6882661  82.7553122  92.2938380  35.5078403  83.3621590
  89.4505663  35.9566440  86.4828263  90.0207020  36.3853708  85.8445748
  90.0413775  35.6749025  87.1812449  91.4950468  32.5318111  80.3538065
  92.1974511  32.9839155  80.8211991  91.1631096  31.8901930  80.9817958
  89.9430829  31.1229867  94.7289274  89.3129490  31.8046148  94.9624671
  89.8366917  31.0112949  93.7842413  85.2375802  30.7901664  85.6555199
  84.4474856  31.0459192  85.1795309  85.7287049  31.6050001  85.7607239
  99.2539611  38.1306903  88.4060479 100.0757055  37.7287090  88.1243161
  99.2502014  38.0275137  89.3576595  87.1890547  31.1546243  82.6138675
  86.3921710  31.2664937  83.1322171  86.9616139  31.4932895  81.7479566
  93.0196215  37.6790946  90.5621190  93.0840647  38.1411353  91.3979362
  92.3107139  37.0488311  90.6903500  83.5213505  31.0432154  88.0870189
  83.7721543  31.9279164  88.3527765  84.0573053  30.8636755  87.3145281
 107.3445604  34.4745651  84.7545451 106.5909313  33.9053049  84.5989455
 107.4793146  34.4408316  85.7016085  92.7344232  39.3459053  80.4300170
  92.5989907  40.1910589  80.8585018  93.2754045  39.5478331  79.6666104
  89.2211572  25.4250633  97.0914525  88.8278518  24.8716832  97.7662170
  90.0377712  25.7361212  97.4821043  86.1873630  36.8634492  81.0028095
  86.6998150  37.6577742  81.1533660  86.8396343  36.1660782  80.9361697
  87.9968515  39.9800248  83.0850848  88.1735143  40.9018212  82.8971832
  88.7925348  39.6658667  83.5145228  92.1379533  26.8408512  94.6834782
  92.8789246  27.4415666  94.6039244  92.3697456  26.0986150  94.1252825
  87.2820871  32.0264880  92.9613012  87.1674386  31.1250137  93.2620111
  86.4265389  32.2728576  92.6097828  94.3612709  39.9682620  94.5600512
  93.9176563  39.1818999  94.2421417  95.0229922  40.1561770  93.8944403
  89.1199830  41.4978422  89.0861191  89.6707255  41.3695485  88.3138185
  88.2811306  41.7973311  88.7356084  96.4593947  40.2485420  92.5881914
  96.4412422  41.0694301  92.0962183  97.3813867  40.1239495  92.8132055
  92.9167001  37.7629549  93.4305422  93.4495338  37.0017838  93.2004730
  92.3881082  37.4703201  94.1729576  96.0836696  22.8689615  88.9599064
  95.7400965  23.7591257  88.8838174  96.4515659  22.6791273  88.0968649
  84.1522547  35.1923146  81.7787666  84.9897769  35.6020154  81.5621373
  84.3300814  34.2522588  81.7487860  96.0486979  32.8598226  77.4671499
  95.5333602  33.6302831  77.7059886  95.7764287  32.1863363  78.0904560
  93.6334090  27.7047927  82.5256737  92.7775686  27.3154778  82.3462376
  94.0461042  27.7839888  81.6656523  95.1633236  25.2394271  86.9248297
  94.6598032  25.2024406  86.1116102  95.4563843  26.1487013  86.9844954
  91.4076122  25.3233000  85.9314479  92.2729119  25.1275809  85.5720368
  91.4753631  25.0943352  86.8583835 101.0221253  35.6130581  79.4024672
 100.2450696  35.2741741  78.9579834 101.7012734  35.6183204  78.7279637
  95.8373282  30.7325319  79.2931280  95.5323417  31.0471468  80.1441423
  96.7903724  30.8106738  79.3358613  94.2819714  36.8915542  80.9424234
  93.7541075  36.1568301  80.6297471  93.7807216  37.6690218  80.6964202
  99.2612560  35.0864562  86.0591280  98.6036234  35.7763824  86.1471409
 100.0652959  35.4760994  86.4025267  89.0138441  27.5535208  83.3030845
  89.5882193  27.3310390  82.5704038  89.6009424  27.6223903  84.0559447
  98.0718019  33.4408935  84.1095222  98.5849900  34.0738927  84.6116932
  98.7219242  32.8410131  83.7438582  89.3408028  29.5839669  77.3226731
  88.5045341  29.9214356  77.6436005  89.2012798  29.4488649  76.3853868
  91.3161109  24.4276457  82.0305915  90.6625521  24.1125474  81.4062530
  91.2741583  23.8052198  82.7565738  92.4272314  34.7095752  73.9459207
  91.5199376  34.4785006  74.1450356  92.9243346  33.9133371  74.1333188
  95.3340393  43.4193259  76.8655893  94.6602092  43.7224956  77.4740851
  95.7206215  44.2222340  76.5161350  94.5498849  30.9158391  86.3553562
  93.6321411  31.1373338  86.1975251  94.9658993  30.9904701  85.4965270
  95.3333897  32.3149806  81.4856243  96.0805716  32.8271204  81.1763365
  95.6025487  31.9933859  82.3460636  93.6060547  34.8108347  78.4683197
  92.6971767  34.5267380  78.5655667  93.6355631  35.2307426  77.6086504
  98.8379815  38.4214937  82.2374365  98.3842142  37.5805846  82.2939555
  98.2073781  39.0576335  82.5749145  97.7812734  29.3506923  83.4675032
  97.0435491  28.8384309  83.7985275  98.0339508  28.9107304  82.6558309
  97.2812754  40.2591433  83.1724183  97.5735728  40.8196490  82.4536548
  97.7911375  40.5519994  83.9277342  97.8824362  22.1283175  84.0616801
  98.1883238  21.2680538  83.7742716  98.6076966  22.7200795  83.8615795
  84.1748718  32.5313861  82.4498399  83.9773118  31.9383222  81.7249466
  83.6195382  32.2266071  83.1674338  92.1545441  32.4236968  84.5692992
  92.2094051  31.4710804  84.4935469  91.3436643  32.5796407  85.0534291
  93.3036635  36.3517091  75.8071276  92.8656065  35.6352950  75.3476913
  94.0447076  36.5793205  75.2456367  90.0937801  31.0414027  82.3283371
  89.2805667  31.3408198  82.7348563  90.5896796  30.6469716  83.0457853
  92.2446379  41.0371784  84.2617636  92.2022558  41.2632631  83.3326168
  93.1609078  40.8035159  84.4103437  95.6912013  31.5055852  91.1598265
  96.0461401  31.7327325  92.0192731  96.3384144  31.8374229  90.5375520
 101.4209750  34.6274288  81.8647594 101.2827649  34.8175884  80.9368783
 101.0645969  35.3893671  82.3215645  89.5851876  28.6132383  87.9444606
  90.2251255  28.4721142  87.2467570  88.7529407  28.3266896  87.5683208
 101.4479130  36.6950815  86.8758866 101.8815636  36.6026104  87.7241920
 102.1610710  36.6708315  86.2378882  90.3612180  37.9134813  84.0579599
  91.1552778  37.4185133  83.8562174  89.6503872  37.3852676  83.6947304
  95.1807024  40.2952909  88.4091966  95.2344047  40.8643845  89.1769682
  94.3121806  40.4654794  88.0446003  86.6694943  32.0577895  80.1339351
  85.7392532  31.9962351  80.3509313  86.7652415  31.5353848  79.3375993
  86.5880492  28.5832708  82.7217593  86.8487310  29.4978041  82.6126753
  87.4097665  28.1157150  82.8714206  88.0605418  29.9970465  89.8916418
  88.7328471  29.7887827  89.2429066  87.2335204  29.7992551  89.4521650
 102.3094679  36.7374515  89.4091751 102.5030569  37.6420326  89.6551026
 102.2095297  36.2781934  90.2430336  93.9630990  26.6232406  91.9082078
  93.3158905  27.3222356  91.8146555  94.7332005  27.0568550  92.2758327
  97.3709788  36.8881258  94.9832632  97.2195294  36.6591810  94.0662715
  97.3614467  37.8451860  94.9963977  94.1395124  34.4613171  89.9678898
  95.0687184  34.6124330  89.7947865  93.7186154  34.5497192  89.1127545
  92.9383456  38.4863835  87.7377436  92.7994542  38.1182620  88.6103374
  92.1498052  39.0011475  87.5661394  93.5331608  43.5872932  79.0802972
  93.7083364  43.1160975  79.8948595  92.8464396  44.2138698  79.3084233
  94.4888671  37.8645438  85.1266274  94.1538504  37.8246208  86.0223923
  93.9892617  37.1990154  84.6536684  88.4632915  33.2713068  90.6518855
  88.3252713  32.5393307  91.2530394  89.3737839  33.1821968  90.3703042
  97.4247863  35.2101472  75.4003333  96.8077033  34.4848300  75.3036386
  96.9564351  35.9710833  75.0570407  91.0915216  32.9833027  90.1402534
  91.8014834  32.3426220  90.0989153  91.0484524  33.2345922  91.0628715
  99.0801994  39.9200381  93.0609114  99.0214541  39.2359601  92.3939697
  99.4821513  40.6619371  92.6089740  89.8044150  29.9698245  91.9598174
  89.2681507  29.5188984  92.6119770  89.2160858  30.1044154  91.2168638
  88.0992693  46.7362295  85.8542832  88.3389291  47.3680819  86.5321851
  87.2561890  46.3850335  86.1408192  89.2146409  29.4286897  74.5224637
  88.3375875  29.3075697  74.1586884  89.6904162  28.6372975  74.2703526
  99.0819402  37.8839965  91.2923093  98.1946180  37.5465886  91.4149492
  99.6517953  37.1522996  91.5291859  80.7348549  34.2164056  84.6166145
  81.4219589  33.9025786  84.0287160  80.5796678  35.1205421  84.3433396
  85.5383271  29.1054253  89.0451168  85.4541460  28.4979922  88.3101578
  84.7165977  29.5963271  89.0460665  92.6120555  42.5441417  88.2584336
  92.5390727  43.3496388  88.7703641  92.1697948  42.7433383  87.4332358
  92.4010335  41.7813187  81.7687158  91.6177857  42.3234867  81.8625382
  93.1003080  42.2987167  82.1681399  95.7106985  27.5907816  84.4121363
  96.2075684  26.8377779  84.0922434  94.9393966  27.6272133  83.8464573
 103.5636742  33.2948182  86.0539655 103.5526618  34.1772897  85.6833588
 102.6954122  32.9419733  85.8594192  95.0719239  42.4428251  90.4142495
  95.7847211  43.0775716  90.3418397  94.5809267  42.5392117  89.5982497
  96.7936766  36.3479504  81.9859787  95.8593044  36.4680966  81.8164491
  96.9713434  35.4451970  81.7219797  92.2941954  29.7325199  84.1393048
  91.9239741  29.1796240  84.8273954  92.7901046  29.1283333  83.5868048
 100.1809317  32.1896823  82.5209821 100.6469769  33.0224815  82.4470124
 100.6316817  31.7241805  83.2255079  90.1231152  40.1922694  91.2348066
  90.8240612  40.8259177  91.3877460  89.6526267  40.5337426  90.4743705
  98.2485548  38.5340644  79.5195973  98.5245392  38.4197239  80.4289847
  97.3790047  38.1358129  79.4808146  98.1525980  24.5577410  86.5600722
  97.2389059  24.7881637  86.7282929  98.5819081  24.6415854  87.4114755
  97.9232438  32.7467302  89.0600616  97.2703888  32.9943209  88.4053069
  98.3012818  31.9331440  88.7263094  94.8839612  42.7826995  83.1628787
  95.0662007  41.9648651  83.6256539  95.7072598  42.9994687  82.7253677
  95.2181777  41.7095180  80.4243835  95.7469544  41.1987635  79.8113997
  95.4809997  41.3937710  81.2889368  93.9720011  33.4887113  95.5466653
  93.2960648  33.3881242  96.2169029  94.7947645  33.3326327  96.0102651
  85.7198870  39.7259049  88.1679169  86.3052307  38.9802737  88.3007073
  85.5223709  40.0363006  89.0515832  88.5737525  42.7610297  83.1841611
  87.9047901  43.2456425  82.7005651  88.4350395  43.0079517  84.0984990
  80.3116525  32.2964650  86.8883612  80.3500624  31.7628240  87.6820730
  79.8056818  31.7699855  86.2694589  92.7142794  44.7954040  89.7824269
  93.2661102  44.9585662  90.5473355  93.0548987  45.3858478  89.1104294
  87.6907287  27.1429190  90.3846154  87.7548614  28.0044021  89.9723552
  87.6274407  26.5303192  89.6518513  87.1659560  29.2152323  94.0319188
  87.7931599  28.8329400  94.6456713  86.3087479  28.9966525  94.3974881
  97.5653668  39.6215298  95.6372924  98.1093572  40.2345256  95.1427879
  96.9840513  40.1794876  96.1539937  83.9425103  31.0228752  79.9637543
  84.2378544  30.1139430  79.9104597  83.0413138  31.0016491  79.6418545
  95.8511181  42.7436016  86.7687952  95.7262321  41.9425756  86.2598897
  96.5090272  43.2382209  86.2801921  87.4719350  29.0984748  85.9465092
  86.7505935  29.7120716  85.8072565  88.2612605  29.6342513  85.8681738
  97.9146090  40.5445036  88.3967502  96.9676425  40.4250387  88.3245828
  98.2628863  39.6567534  88.4793763  90.2745663  26.4339175  92.2205743
  90.7980065  26.6801471  92.9832053  90.0557996  27.2659210  91.8008881
  85.6712944  28.7042850  80.0876868  85.3425650  27.8240228  79.9051974
  86.0252315  28.6490518  80.9753258  94.9192523  40.3397752  84.5971854
  94.7717485  39.4114460  84.7779424  95.7446016  40.3617843  84.1128929
  88.7854767  28.9915819  80.4552346  89.1250840  29.5201741  79.7330954
  89.2326888  29.3296225  81.2310912  98.5226645  41.1626311  85.6836727
  99.4473192  40.9569172  85.5461178  98.3541948  40.9142712  86.5926068
  91.4798208  27.3752870  89.9055414  91.1395028  26.5760683  90.3076094
  90.7737214  27.6754581  89.3332247  92.1314680  24.4602182  88.3582737
  92.9540749  23.9862661  88.2361627  92.3752743  25.2392666  88.8581423
  90.7722914  27.4890441  78.6545639  91.4931277  27.8671694  78.1509356
  90.1488219  28.2079318  78.7580617  94.9154037  28.1935590  79.5903971
  95.1317652  29.0760228  79.2892799  94.4348104  27.8021803  78.8609613
  89.6553259  31.1521303  86.1674716  89.5097839  31.4661606  87.0598997
  89.1778462  31.7706203  85.6145614  91.5149642  28.1423851  86.2155605
  91.5011210  27.2464944  85.8787903  92.2322070  28.1494515  86.8493891
  93.3675772  28.5761191  88.2608733  93.1093550  29.4978262  88.2593063
  92.8360813  28.1791626  88.9509197  98.3121961  41.6811978  81.0398818
  98.4858839  41.1158401  80.2872670  98.8050852  42.4812873  80.8578308
  84.1298921  33.6926648  89.1062377  83.5852389  34.4686455  89.2382651
  85.0078271  34.0397452  88.9481498  90.9186537  27.0238231  81.4843175
  91.0402449  26.0954878  81.6834063  90.6288580  27.0376917  80.5721491
  93.7877728  24.7093142  84.6209895  93.8099425  24.7732475  83.6661875
  94.2045787  23.8697650  84.8150401 104.1661352  34.4448401  82.6589118
 104.6092498  33.6955727  82.2608241 103.2887862  34.4358538  82.2762850
  99.2997134  40.9978743  78.1395716  99.9948038  41.6185436  78.3583031
  99.6420284  40.1474094  78.4148094  84.9164943  32.8196544  91.9992534
  84.1746679  32.9679179  92.5857164  84.5957687  33.0804809  91.1359283
 101.1988557  38.4478448  79.6683047 101.7239881  38.7865721  78.9432367
 101.1110909  37.5125464  79.4846182  92.8608605  42.3612522  91.7972924
  93.1695732  42.1161669  92.6695623  93.6584087  42.5659160  91.3091794
  92.8829217  44.5150432  84.0278300  92.4434208  44.0226810  84.7211157
  93.6337334  43.9723399  83.7870375  85.3621556  40.7061972  84.0302928
  86.1879576  40.4065744  83.6501572  85.0115608  39.9369595  84.4792717
  90.3303090  40.0588441  86.1000602  89.7083099  39.3959146  85.8002830
  91.0007956  40.0849573  85.4174250  83.5630161  38.6248299  84.9891862
  82.7262070  38.1970473  84.8075863  83.5353807  38.8180742  85.9262653
  90.4027617  28.5370229  95.6933108  90.4515772  29.4132352  95.3110878
  90.9450131  27.9947622  95.1204751 100.8882463  39.0811352  94.9734245
 100.0978006  39.0635491  94.4338744 100.6515817  39.6199646  95.7283282
 101.0080338  35.9303818  92.2866974 101.0578343  35.7653826  93.2282496
 100.8994261  35.0631077  91.8964854  89.8916596  38.6092364  79.5759062
  90.0404717  39.2927828  78.9225735  90.6983040  38.5897454  80.0908518
  98.2984100  31.9134746  93.6026280  99.1993963  31.7741211  93.3110278
  98.3732075  32.0789201  94.5424458  92.6326905  29.2901601  92.4479467
  91.7630215  29.5835167  92.1762055  92.8686386  29.8742046  93.1686730
 102.5098535  38.3500760  92.5308995 102.2183343  38.7130740  93.3672456
 101.8970666  37.6367768  92.3522327 103.7094217  35.9153640  85.0511565
 104.5441108  36.3543444  85.2149126 103.8453346  35.4392293  84.2319811
 100.7585723  33.4733375  90.9989053 101.2339844  33.6661021  90.1907904
  99.8351288  33.5292560  90.7532437  87.6469229  34.6357542  80.5820131
  87.4015271  33.7319872  80.7800342  87.8165144  34.6374692  79.6399609
  95.3365939  25.5081218  89.9644887  95.8547883  26.2442245  89.6391376
  94.9821072  25.8145211  90.7991646  86.9164877  30.3685899  78.0806293
  86.2234122  30.4430254  77.4246329  86.6716629  29.6046243  78.6027810
  95.5878533  21.9281501  85.4845784  95.8680287  21.2604690  86.1106210
  96.3729140  22.1210596  84.9720447  93.3912002  41.1040495  77.0470810
  92.8185969  41.7230682  76.5941282  93.9644796  41.6539856  77.5810732
  99.4587392  30.3499135  89.2317359 100.4104815  30.4497232  89.2529583
  99.2890842  29.5577403  89.7415443  97.4801771  27.4354718  89.4176760
  96.8851703  27.7159731  88.7223248  97.1951468  27.9248619  90.1893501
  96.6109262  41.3877645  78.1779392  97.5439935  41.3223206  78.3812268
  96.5232475  42.2233911  77.7193925  99.2397278  40.7043515  75.1383340
  99.1610910  40.3703379  76.0319098 100.0606945  41.1965283  75.1374812
 101.9375470  33.5705254  88.3459658 101.9051790  32.6321255  88.5319342
 102.5476093  33.6489291  87.6125483  93.7758800  32.4401307  74.3886862
  94.7217905  32.3107515  74.4575280  93.3973045  31.7015969  74.8656291
 102.0869958  30.3616298  88.3917942 101.5709007  29.5774754  88.2047870
 102.9709907  30.0335014  88.5564461  99.7480685  24.1057313  84.3513754
  99.5505506  23.7972401  85.2357086 100.3580391  24.8318952  84.4811684
 107.7552019  34.6321261  87.4865695 108.4855408  34.3706549  88.0473398
 107.1458965  33.8949983  87.5267763 105.8367317  32.7729124  88.0840146
 105.1100480  32.6385089  87.4756638 105.4214603  33.0805952  88.8896864
  93.6597493  36.4919053  95.8487519  94.5800502  36.6697652  96.0427566
  93.6247076  35.5475099  95.6967219  91.9601718  30.3651284  74.3241748
  91.0533173  30.0684396  74.4004461  92.2377699  30.0681102  73.4576034
  82.8779658  31.6857647  84.7740794  82.5582442  30.8322955  84.4815168
  82.3313086  31.9006225  85.5298761  86.6559566  34.4020088  88.4910301
  86.8745575  35.3337196  88.5098334  87.0685339  34.0428062  89.2765104
  93.5763783  24.9088173  80.4785989  92.7664512  24.5635258  80.8541235
  94.2648200  24.5995717  81.0673600  95.5054332  23.9866220  82.1010286
  96.0585370  24.4061674  82.7600309  95.7424418  23.0601968  82.1433242
  91.5287431  29.9753294  97.8813049  91.4284158  30.9247651  97.8125141
  91.3108973  29.6471533  97.0089120  90.7300502  27.2238219  74.4653727
  91.5919666  27.5493117  74.7249544  90.9150846  26.4369715  73.9526793
  82.7467918  35.3060559  86.7433916  82.0531389  34.8914511  86.2303870
  83.4940909  35.3481095  86.1467334  98.8833139  26.0966745  81.6088950
  98.3031808  26.7551549  81.2267002  98.6169071  25.2744090  81.1976367
  97.3336705  25.4971803  83.8110270  97.8336483  25.6088338  83.0024589
  97.9772313  25.1932856  84.4511079  91.3918701  33.4050433  96.6978111
  90.9085783  34.2050793  96.9042000  91.4779640  33.4158378  95.7445555
  84.6604661  35.2378812  84.6199930  84.6375349  35.3366500  83.6681814
  84.9705297  36.0843963  84.9417097  87.3192038  37.2954967  88.7346545
  88.2735292  37.2638910  88.6676476  87.1204562  36.8345591  89.5496771
  87.9091421  35.8656083  91.3017343  88.7284310  36.3600162  91.3252180
  88.1828228  34.9488052  91.2734910  97.6658017  28.2566836  80.6645298
  96.7783872  28.5416486  80.4465493  98.0812006  28.0960599  79.8172575
 101.0172553  28.2813357  84.3799637 101.7932943  28.7709809  84.6524254
 100.2920687  28.7071411  84.8371507 103.4545111  28.9940976  85.4373578
 104.0489602  28.7536712  84.7266886 103.5271695  28.2748106  86.0647114
  85.6742267  42.8374587  85.7516743  85.5396735  42.0774988  85.1854741
  85.2574329  43.5615487  85.2845532  96.8101230  38.0211510  74.7593318
  97.5137080  38.2261513  75.3750974  96.0863879  38.5888272  75.0242402
  97.6399040  33.7721372  80.8795588  97.5834242  34.2289923  80.0403221
  98.1927383  33.0112056  80.7018431 101.4503846  29.5611104  81.7045708
 101.1940781  29.1607739  82.5353915 100.8256714  30.2754897  81.5795847
 105.7616184  32.3007177  84.2116999 105.2015742  32.3700366  84.9848561
 105.1559688  32.1248161  83.4916495  88.8311393  43.7343904  85.9635185
  88.7143777  44.6789336  85.8613876  88.0103839  43.4317465  86.3520985
  98.7187928  38.4594040  76.8091778  99.5533532  38.0275238  76.6269253
  98.5572271  38.2876053  77.7368673  98.3733820  34.9626153  78.1748117
  98.3182624  34.7970424  77.2336562  97.7479875  35.6702186  78.3310307
  83.1626335  30.1994217  92.0009540  83.8085198  29.6893171  92.4896765
  82.9543486  30.9362899  92.5752965  95.6879727  37.2675065  97.5001680
  96.5570887  37.4415717  97.1388315  95.2086478  38.0869482  97.3777410
  91.6829945  24.4634262  77.7533436  91.6708615  25.4076102  77.9101707
  92.5753367  24.2804407  77.4592897  89.8565907  44.3872166  89.1791114
  90.7593154  44.4195776  89.4957609  89.6303277  43.4572617  89.1937450
  91.6119509  43.1403152  85.8401192  90.6615140  43.1405014  85.7265565
  91.9151995  42.3935887  85.3237227  95.4982065  21.0577039  82.0079373
  94.7314461  20.5035525  82.1536055  95.9092770  21.1298907  82.8693524
  87.5023826  27.3461834  96.0984554  88.3655287  26.9898639  96.3087878
  86.9289236  27.0075729  96.7859958 107.3472203  48.9763691  86.9046955
 107.9850613  48.8570438  86.2010295 107.2293046  49.9244535  86.9634907
 104.1561909  48.9291119  86.8408480 103.8180421  48.8132184  85.9529014
 105.0251677  48.5282284  86.8209486 100.0148725  50.7826595  82.8305370
  99.4513590  50.6916532  82.0621658  99.9001120  49.9626500  83.3107863
 104.6381692  50.0825971  92.7994685 104.6270333  49.6878769  91.9275189
 104.8002331  49.3492043  93.3928457  97.5613157  52.2777787  85.6689591
  98.3534449  51.9368611  85.2535890  97.8009807  52.3872762  86.5891744
 105.5948283  54.4497563  78.1419835 104.9436263  55.0351643  77.7553849
 106.3892646  54.9803758  78.2014873  99.5203911  51.5386700  78.5406970
 100.2934787  50.9915687  78.4019846  99.8729309  52.4030949  78.7521431
 101.3588953  52.8663082  91.7473869 101.0678819  53.7708713  91.6320535
 101.9945937  52.9079610  92.4617939 102.2845160  50.2439931  88.3375229
 102.8808732  50.0195953  87.6232192 102.3420132  49.5024676  88.9400677
 101.8570188  47.6979366  76.1725420 102.1095709  47.1760887  75.4108883
 100.9194747  47.5345512  76.2752103 106.9013471  46.7015145  83.9800163
 107.6876560  46.2834568  83.6290580 107.1652176  47.6061237  84.1481811
 112.3021898  46.6390378  84.8833141 113.0347070  46.0689595  85.1170971
 111.5461254  46.2511978  85.3239647 101.5766477  49.6007472  78.3749795
 101.4602735  48.9252376  79.0430879 101.6868737  49.1139846  77.5581948
 103.9198018  49.0617619  82.0796484 103.5556225  48.5348240  82.7909405
 104.7765134  48.6716088  81.9062969 109.8247319  40.3511952  89.3427750
 109.4930643  41.2207363  89.1188965 109.2292932  40.0348236  90.0221780
 103.5603505  44.0907519  77.0757832 103.7277907  44.9587755  77.4428303
 103.3700674  44.2534801  76.1519122 106.3178838  52.5524498  88.7423663
 106.0179561  53.4549537  88.6339470 105.9729898  52.2856681  89.5944816
  99.7691320  49.0038295  84.7760367  98.8441816  48.8714509  84.9838059
 100.0175733  49.7832514  85.2730310 109.7175982  45.0707038  86.4221100
 108.8092859  45.0022446  86.1279861 109.6663578  45.5478983  87.2502926
 103.5392726  46.5465176  78.0604499 103.4192351  46.9922227  78.8989979
 102.8445314  46.8950494  77.5018037  97.1300131  48.6471568  85.6104156
  97.2592512  48.9006047  86.5243568  96.4497582  49.2399276  85.2908811
 101.2999618  59.3168818  81.7094630 101.2223648  60.2676643  81.7883111
 100.6961262  58.9714691  82.3669557 103.7916848  46.4896684  94.3655997
 103.0150182  47.0490604  94.3558862 104.4307411  46.9753467  94.8870867
 111.5837628  43.2723476  88.1998974 110.9412009  43.5656010  87.5538769
 111.0792557  43.1576397  89.0052171 109.2377792  47.0186650  78.8884833
 110.1495648  47.2514036  78.7132531 108.7287439  47.6023694  78.3259912
 102.0463220  49.2982137  93.9273964 102.7877904  49.8367181  93.6508788
 101.3400206  49.9248426  94.0845516 107.5218560  51.4411277  92.5246126
 107.9301916  50.9993688  91.7800758 106.7995821  50.8663905  92.7780319
 103.8749630  46.3783884  89.8979683 104.7210825  46.8023298  90.0414332
 103.8148267  45.7217509  90.5918246 107.8447374  52.0012468  86.2798415
 107.2156237  52.1658182  85.5774483 107.4573036  52.4154078  87.0509379
 111.7236606  52.9366906  83.6342778 111.0387644  53.3165807  83.0839812
 111.8080456  53.5462233  84.3674726 107.0249075  44.0388253  91.5560856
 106.7810007  44.7930313  91.0195132 107.3009006  44.4173600  92.3908103
 108.9787538  50.5826865  90.2338122 109.1904433  51.2258625  89.5572503
 108.9317286  49.7489182  89.7660052 106.5813767  43.1944686  87.1374694
 105.7198246  43.4925939  87.4291432 106.6076201  43.4115084  86.2055727
 103.3975336  51.7386876  83.5448500 103.8613682  52.0174579  82.7553122
 103.1332134  50.8370321  83.3621590 100.2899417  51.2858358  86.4828263
 100.8600774  51.7145626  85.8445748 100.8807529  51.0040942  87.1812449
 102.3344222  47.8610029  80.3538065 103.0368266  48.3131072  80.8211991
 102.0024851  47.2193847  80.9817958 100.7824584  46.4521785  94.7289274
 100.1523244  47.1338066  94.9624671 100.6760672  46.3404867  93.7842413
  96.0769556  46.1193581  85.6555199  95.2868610  46.3751110  85.1795309
  96.5680804  46.9341919  85.7607239 110.0933366  53.4598820  88.4060479
 110.9150810  53.0579008  88.1243161 110.0895769  53.3567055  89.3576595
  98.0284302  46.4838160  82.6138675  97.2315465  46.5956855  83.1322171
  97.8009894  46.8224813  81.7479566 103.8589969  53.0082864  90.5621190
 103.9234402  53.4703271  91.3979362 103.1500893  52.3780229  90.6903500
  94.3607259  46.3724072  88.0870189  94.6115298  47.2571082  88.3527765
  94.8966808  46.1928673  87.3145281 118.1839359  49.8037569  84.7545451
 117.4303067  49.2344967  84.5989455 118.3186900  49.7700233  85.7016085
 103.5737987  54.6750971  80.4300170 103.4383662  55.5202507  80.8585018
 104.1147799  54.8770249  79.6666104 100.0605327  40.7542551  97.0914525
  99.6672272  40.2008750  97.7662170 100.8771467  41.0653129  97.4821043
 102.9773288  42.1700430  94.6834782 103.7183001  42.7707583  94.6039244
 103.2091210  41.4278068  94.1252825  98.1214626  47.3556797  92.9613012
  98.0068141  46.4542055  93.2620111  97.2659143  47.6020494  92.6097828
 105.2006463  55.2974538  94.5600512 104.7570317  54.5110916  94.2421417
 105.8623677  55.4853688  93.8944403  99.9593584  56.8270339  89.0861191
 100.5101010  56.6987403  88.3138185  99.1205060  57.1265228  88.7356084
 107.2987701  55.5777338  92.5881914 107.2806177  56.3986219  92.0962183
 108.2207621  55.4531413  92.8132055 103.7560756  53.0921467  93.4305422
 104.2889092  52.3309755  93.2004730 103.2274837  52.7995119  94.1729576
 106.9230450  38.1981533  88.9599064 106.5794720  39.0883175  88.8838174
 107.2909413  38.0083191  88.0968649  94.9916301  50.5215063  81.7787666
  95.8291523  50.9312072  81.5621373  95.1694569  49.5814506  81.7487860
 106.8880733  48.1890144  77.4671499 106.3727357  48.9594749  77.7059886
 106.6158042  47.5155280  78.0904560 104.4727844  43.0339845  82.5256737
 103.6169441  42.6446695  82.3462376 104.8854796  43.1131806  81.6656523
 106.0026991  40.5686188  86.9248297 105.4991786  40.5316323  86.1116102
 106.2957598  41.4778931  86.9844954 102.2469877  40.6524918  85.9314479
 103.1122874  40.4567727  85.5720368 102.3147386  40.4235270  86.8583835
 111.8615007  50.9422499  79.4024672 111.0844450  50.6033658  78.9579834
 112.5406488  50.9475122  78.7279637 106.6767036  46.0617236  79.2931280
 106.3717172  46.3763385  80.1441423 107.6297479  46.1398656  79.3358613
 105.1213468  52.2207460  80.9424234 104.5934830  51.4860219  80.6297471
 104.6200971  52.9982136  80.6964202 110.1006314  50.4156480  86.0591280
 109.4429989  51.1055741  86.1471409 110.9046713  50.8052912  86.4025267
  99.8532196  42.8827126  83.3030845 100.4275948  42.6602307  82.5704038
 100.4403178  42.9515820  84.0559447 108.9111773  48.7700853  84.1095222
 109.4243655  49.4030845  84.6116932 109.5612997  48.1702048  83.7438582
 100.1801783  44.9131587  77.3226731  99.3439095  45.2506273  77.6436005
 100.0406553  44.7780567  76.3853868 102.1554864  39.7568375  82.0305915
 101.5019276  39.4417392  81.4062530 102.1135338  39.1344115  82.7565738
 103.2666068  50.0387670  73.9459207 102.3593130  49.8076923  74.1450356
 103.7637100  49.2425289  74.1333188 105.3892604  46.2450308  86.3553562
 104.4715165  46.4665255  86.1975251 105.8052748  46.3196619  85.4965270
 106.1727652  47.6441724  81.4856243 106.9199471  48.1563121  81.1763365
 106.4419241  47.3225777  82.3460636 104.4454302  50.1400265  78.4683197
 103.5365521  49.8559298  78.5655667 104.4749386  50.5599343  77.6086504
 109.6773569  53.7506854  82.2374365 109.2235896  52.9097764  82.2939555
 109.0467536  54.3868253  82.5749145 108.6206489  44.6798840  83.4675032
 107.8829246  44.1676226  83.7985275 108.8733262  44.2399222  82.6558309
 108.1206509  55.5883351  83.1724183 108.4129483  56.1488408  82.4536548
 108.6305129  55.8811912  83.9277342 108.7218116  37.4575092  84.0616801
 109.0276993  36.5972456  83.7742716 109.4470721  38.0492712  83.8615795
  95.0142472  47.8605779  82.4498399  94.8166872  47.2675140  81.7249466
  94.4589136  47.5557989  83.1674338 102.9939196  47.7528885  84.5692992
 103.0487806  46.8002722  84.4935469 102.1830398  47.9088324  85.0534291
 100.9331556  46.3705945  82.3283371 100.1199421  46.6700116  82.7348563
 101.4290550  45.9761634  83.0457853 103.0840134  56.3663702  84.2617636
 103.0416312  56.5924548  83.3326168 104.0002833  56.1327077  84.4103437
 106.5305767  46.8347770  91.1598265 106.8855155  47.0619243  92.0192731
 107.1777899  47.1666146  90.5375520 112.2603504  49.9566205  81.8647594
 112.1221403  50.1467801  80.9368783 111.9039723  50.7185588  82.3215645
 100.4245631  43.9424301  87.9444606 101.0645010  43.8013060  87.2467570
  99.5923161  43.6558814  87.5683208 112.2872884  52.0242732  86.8758866
 112.7209391  51.9318021  87.7241920 113.0004465  52.0000233  86.2378882
 101.2005934  53.2426731  84.0579599 101.9946533  52.7477051  83.8562174
 100.4897627  52.7144594  83.6947304 106.0200779  55.6244827  88.4091966
 106.0737801  56.1935763  89.1769682 105.1515560  55.7946712  88.0446003
  97.5088698  47.3869813  80.1339351  96.5786286  47.3254268  80.3509313
  97.6046170  46.8645765  79.3375993  97.4274247  43.9124626  82.7217593
  97.6881064  44.8269959  82.6126753  98.2491419  43.4449068  82.8714206
  98.8999172  45.3262383  89.8916418  99.5722226  45.1179745  89.2429066
  98.0728959  45.1284469  89.4521650 113.1488434  52.0666433  89.4091751
 113.3424324  52.9712244  89.6551026 113.0489052  51.6073852  90.2430336
 104.8024744  41.9524324  91.9082078 104.1552659  42.6514273  91.8146555
 105.5725760  42.3860468  92.2758327 108.2103542  52.2173176  94.9832632
 108.0589049  51.9883727  94.0662715 108.2008222  53.1743777  94.9963977
 104.9788879  49.7905089  89.9678898 105.9080939  49.9416248  89.7947865
 104.5579909  49.8789109  89.1127545 103.7777210  53.8155753  87.7377436
 103.6388296  53.4474537  88.6103374 102.9891807  54.3303392  87.5661394
 104.3725362  58.9164849  79.0802972 104.5477118  58.4452893  79.8948595
 103.6858150  59.5430616  79.3084233 105.3282426  53.1937356  85.1266274
 104.9932258  53.1538126  86.0223923 104.8286371  52.5282072  84.6536684
  99.3026670  48.6004986  90.6518855  99.1646468  47.8685225  91.2530394
 100.2131593  48.5113886  90.3703042 101.9308970  48.3124945  90.1402534
 102.6408589  47.6718137  90.0989153 101.8878278  48.5637840  91.0628715
 109.9195749  55.2492298  93.0609114 109.8608295  54.5651518  92.3939697
 110.3215267  55.9911288  92.6089740 100.6437904  45.2990163  91.9598174
 100.1075261  44.8480901  92.6119770 100.0554613  45.4336072  91.2168638
  98.9386448  62.0654212  85.8542832  99.1783046  62.6972736  86.5321851
  98.0955644  61.7142252  86.1408192 100.0540163  44.7578814  74.5224637
  99.1769629  44.6367615  74.1586884 100.5297916  43.9664893  74.2703526
 109.9213156  53.2131882  91.2923093 109.0339935  52.8757804  91.4149492
 110.4911707  52.4814914  91.5291859  91.5742303  49.5455974  84.6166145
  92.2613343  49.2317704  84.0287160  91.4190432  50.4497339  84.3433396
  96.3777025  44.4346171  89.0451168  96.2935214  43.8271840  88.3101578
  95.5559732  44.9255189  89.0460665 103.4514310  57.8733335  88.2584336
 103.3784481  58.6788306  88.7703641 103.0091703  58.0725300  87.4332358
 103.2404089  57.1105105  81.7687158 102.4571611  57.6526785  81.8625382
 103.9396834  57.6279084  82.1681399 106.5500739  42.9199734  84.4121363
 107.0469439  42.1669696  84.0922434 105.7787721  42.9564051  83.8464573
 114.4030497  48.6240100  86.0539655 114.3920373  49.5064815  85.6833588
 113.5347876  48.2711650  85.8594192 105.9112993  57.7720169  90.4142495
 106.6240965  58.4067633  90.3418397 105.4203022  57.8684035  89.5982497
 107.6330520  51.6771421  81.9859787 106.6986799  51.7972884  81.8164491
 107.8107188  50.7743888  81.7219797 103.1335708  45.0617117  84.1393048
 102.7633496  44.5088157  84.8273954 103.6294801  44.4575251  83.5868048
 111.0203071  47.5188741  82.5209821 111.4863524  48.3516732  82.4470124
 111.4710572  47.0533722  83.2255079 100.9624907  55.5214612  91.2348066
 101.6634366  56.1551095  91.3877460 100.4920022  55.8629344  90.4743705
 109.0879302  53.8632562  79.5195973 109.3639146  53.7489156  80.4289847
 108.2183801  53.4650047  79.4808146 108.9919734  39.8869328  86.5600722
 108.0782814  40.1173554  86.7282929 109.4212836  39.9707772  87.4114755
 108.7626193  48.0759220  89.0600616 108.1097643  48.3235127  88.4053069
 109.1406573  47.2623358  88.7263094 105.7233366  58.1118913  83.1628787
 105.9055761  57.2940569  83.6256539 106.5466352  58.3286605  82.7253677
 106.0575532  57.0387098  80.4243835 106.5863298  56.5279552  79.8113997
 106.3203752  56.7229628  81.2889368 104.8113766  48.8179031  95.5466653
 104.1354403  48.7173160  96.2169029 105.6341400  48.6618244  96.0102651
  96.5592625  55.0550967  88.1679169  97.1446062  54.3094655  88.3007073
  96.3617463  55.3654924  89.0515832  91.1510279  47.6256567  86.8883612
  91.1894379  47.0920158  87.6820730  90.6450572  47.0991773  86.2694589
 103.5536549  60.1245958  89.7824269 104.1054857  60.2877580  90.5473355
 103.8942742  60.7150396  89.1104294  98.5301042  42.4721108  90.3846154
  98.5942368  43.3335939  89.9723552  98.4668162  41.8595110  89.6518513
  98.0053314  44.5444240  94.0319188  98.6325353  44.1621318  94.6456713
  97.1481233  44.3258442  94.3974881 108.4047423  54.9507216  95.6372924
 108.9487327  55.5637174  95.1427879 107.8234268  55.5086794  96.1539937
  94.7818857  46.3520670  79.9637543  95.0772298  45.4431348  79.9104597
  93.8806893  46.3308409  79.6418545 106.6904936  58.0727934  86.7687952
 106.5656075  57.2717673  86.2598897 107.3484027  58.5674127  86.2801921
  98.3113104  44.4276666  85.9465092  97.5899690  45.0412634  85.8072565
  99.1006360  44.9634431  85.8681738 108.7539844  55.8736954  88.3967502
 107.8070180  55.7542305  88.3245828 109.1022617  54.9859452  88.4793763
 101.1139418  41.7631093  92.2205743 101.6373819  42.0093389  92.9832053
 100.8951751  42.5951127  91.8008881  96.5106699  44.0334767  80.0876868
  96.1819405  43.1532146  79.9051974  96.8646069  43.9782436  80.9753258
 105.7586277  55.6689670  84.5971854 105.6111240  54.7406377  84.7779424
 106.5839771  55.6909761  84.1128929  99.6248522  44.3207737  80.4552346
  99.9644594  44.8493658  79.7330954 100.0720642  44.6588143  81.2310912
 109.3620399  56.4918229  85.6836727 110.2866947  56.2861090  85.5461178
 109.1935703  56.2434630  86.5926068 102.3191963  42.7044788  89.9055414
 101.9788783  41.9052601  90.3076094 101.6130969  43.0046499  89.3332247
 102.9708434  39.7894100  88.3582737 103.7934504  39.3154578  88.2361627
 103.2146498  40.5684584  88.8581423 101.6116669  42.8182359  78.6545639
 102.3325031  43.1963611  78.1509356 100.9881973  43.5371235  78.7580617
 105.7547792  43.5227508  79.5903971 105.9711406  44.4052145  79.2892799
 105.2741859  43.1313721  78.8609613 100.4947013  46.4813221  86.1674716
 100.3491594  46.7953524  87.0598997 100.0172217  47.0998121  85.6145614
 102.3543396  43.4715769  86.2155605 102.3404965  42.5756862  85.8787903
 103.0715824  43.4786433  86.8493891 104.2069527  43.9053109  88.2608733
 103.9487305  44.8270180  88.2593063 103.6754567  43.5083544  88.9509197
 109.1515716  57.0103896  81.0398818 109.3252593  56.4450319  80.2872670
 109.6444607  57.8104791  80.8578308  94.9692675  49.0218565  89.1062377
  94.4246143  49.7978373  89.2382651  95.8472025  49.3689370  88.9481498
 101.7580292  42.3530149  81.4843175 101.8796203  41.4246795  81.6834063
 101.4682334  42.3668835  80.5721491 104.6271482  40.0385059  84.6209895
 104.6493179  40.1024393  83.6661875 105.0439541  39.1989568  84.8150401
 115.0055107  49.7740319  82.6589118 115.4486253  49.0247644  82.2608241
 114.1281617  49.7650455  82.2762850  95.7558697  48.1488461  91.9992534
  95.0140433  48.2971097  92.5857164  95.4351441  48.4096727  91.1359283
 112.0382311  53.7770366  79.6683047 112.5633635  54.1157639  78.9432367
 111.9504664  52.8417381  79.4846182 103.7002360  57.6904440  91.7972924
 104.0089486  57.4453586  92.6695623 104.4977842  57.8951078  91.3091794
 103.7222972  59.8442349  84.0278300 103.2827962  59.3518728  84.7211157
 104.4731089  59.3015317  83.7870375 101.1696844  55.3880358  86.1000602
 100.5476853  54.7251063  85.8002830 101.8401711  55.4141490  85.4174250
 101.2421372  43.8662146  95.6933108 101.2909527  44.7424269  95.3110878
 101.7843886  43.3239539  95.1204751 111.7276217  54.4103270  94.9734245
 110.9371761  54.3927409  94.4338744 111.4909572  54.9491563  95.7283282
 111.8474092  51.2595736  92.2866974 111.8972097  51.0945743  93.2282496
 111.7388016  50.3922995  91.8964854 109.1377855  47.2426664  93.6026280
 110.0387717  47.1033129  93.3110278 109.2125829  47.4081119  94.5424458
 103.4720660  44.6193519  92.4479467 102.6023969  44.9127085  92.1762055
 103.7080140  45.2033964  93.1686730 113.3492289  53.6792678  92.5308995
 113.0577097  54.0422658  93.3672456 112.7364420  52.9659686  92.3522327
 114.5487971  51.2445557  85.0511565 115.3834863  51.6835361  85.2149126
 114.6847100  50.7684211  84.2319811 111.5979477  48.8025292  90.9989053
 112.0733599  48.9952939  90.1907904 110.6745043  48.8584478  90.7532437
  98.4862984  49.9649459  80.5820131  98.2409026  49.0611789  80.7800342
  98.6558898  49.9666610  79.6399609 106.1759694  40.8373136  89.9644887
 106.6941638  41.5734163  89.6391376 105.8214827  41.1437129  90.7991646
  97.7558631  45.6977817  78.0806293  97.0627876  45.7722172  77.4246329
  97.5110383  44.9338161  78.6027810 106.4272288  37.2573418  85.4845784
 106.7074042  36.5896607  86.1106210 107.2122895  37.4502514  84.9720447
 104.2305756  56.4332412  77.0470810 103.6579724  57.0522599  76.5941282
 104.8038550  56.9831774  77.5810732 110.2981146  45.6791052  89.2317359
 111.2498569  45.7789150  89.2529583 110.1284597  44.8869321  89.7415443
 108.3195526  42.7646635  89.4176760 107.7245458  43.0451648  88.7223248
 108.0345222  43.2540536  90.1893501 107.4503016  56.7169562  78.1779392
 108.3833689  56.6515124  78.3812268 107.3626229  57.5525829  77.7193925
 112.7769224  48.8997172  88.3459658 112.7445544  47.9613173  88.5319342
 113.3869848  48.9781209  87.6125483 112.9263713  45.6908215  88.3917942
 112.4102761  44.9066672  88.2047870 113.8103661  45.3626932  88.5564461
 110.5874440  39.4349231  84.3513754 110.3899261  39.1264319  85.2357086
 111.1974145  40.1610870  84.4811684 118.5945774  49.9613179  87.4865695
 119.3249162  49.6998467  88.0473398 117.9852719  49.2241901  87.5267763
 116.6761071  48.1021041  88.0840146 115.9494235  47.9677006  87.4756638
 116.2608358  48.4097870  88.8896864 104.4991247  51.8210971  95.8487519
 105.4194257  51.9989570  96.0427566 104.4640831  50.8767016  95.6967219
 102.7995472  45.6943201  74.3241748 101.8926928  45.3976314  74.4004461
 103.0771453  45.3973019  73.4576034  93.7173412  47.0149565  84.7740794
  93.3976197  46.1614873  84.4815168  93.1706841  47.2298143  85.5298761
  97.4953320  49.7312006  88.4910301  97.7139330  50.6629114  88.5098334
  97.9079094  49.3719980  89.2765104 104.4157538  40.2380091  80.4785989
 103.6058266  39.8927176  80.8541235 105.1041955  39.9287635  81.0673600
 106.3448086  39.3158138  82.1010286 106.8979125  39.7353591  82.7600309
 106.5818172  38.3893886  82.1433242 102.3681185  45.3045211  97.8813049
 102.2677912  46.2539568  97.8125141 102.1502727  44.9763450  97.0089120
 101.5694257  42.5530137  74.4653727 102.4313421  42.8785035  74.7249544
 101.7544601  41.7661632  73.9526793  93.5861672  50.6352476  86.7433916
  92.8925144  50.2206429  86.2303870  94.3334663  50.6773013  86.1467334
 109.7226893  41.4258663  81.6088950 109.1425562  42.0843467  81.2267002
 109.4562826  40.6036008  81.1976367 108.1730460  40.8263721  83.8110270
 108.6730238  40.9380255  83.0024589 108.8166068  40.5224774  84.4511079
 102.2312455  48.7342350  96.6978111 101.7479537  49.5342710  96.9042000
 102.3173394  48.7450295  95.7445555  95.4998415  50.5670730  84.6199930
  95.4769103  50.6658417  83.6681814  95.8099052  51.4135881  84.9417097
  98.1585793  52.6246885  88.7346545  99.1129046  52.5930827  88.6676476
  97.9598316  52.1637509  89.5496771  98.7485175  51.1948001  91.3017343
  99.5678064  51.6892080  91.3252180  99.0221983  50.2779969  91.2734910
 108.5051771  43.5858753  80.6645298 107.6177626  43.8708404  80.4465493
 108.9205760  43.4252517  79.8172575 111.8566307  43.6105274  84.3799637
 112.6326697  44.1001727  84.6524254 111.1314442  44.0363329  84.8371507
 114.2938866  44.3232894  85.4373578 114.8883357  44.0828630  84.7266886
 114.3665450  43.6040024  86.0647114 108.4792795  49.1013289  80.8795588
 108.4227996  49.5581841  80.0403221 109.0321137  48.3403974  80.7018431
 112.2897601  44.8903021  81.7045708 112.0334535  44.4899657  82.5353915
 111.6650469  45.6046815  81.5795847 116.6009939  47.6299094  84.2116999
 116.0409497  47.6992284  84.9848561 115.9953442  47.4540079  83.4916495
  99.6705148  59.0635822  85.9635185  99.5537532  60.0081254  85.8613876
  98.8497594  58.7609383  86.3520985 109.2127574  50.2918071  78.1748117
 109.1576378  50.1262342  77.2336562 108.5873630  50.9994103  78.3310307
  94.0020089  45.5286135  92.0009540  94.6478953  45.0185089  92.4896765
  93.7937240  46.2654817  92.5752965 106.5273481  52.5966982  97.5001680
 107.3964641  52.7707635  97.1388315 106.0480233  53.4161399  97.3777410
 102.5223700  39.7926180  77.7533436 102.5102370  40.7368019  77.9101707
 103.4147122  39.6096325  77.4592897 100.6959662  59.7164083  89.1791114
 101.5986908  59.7487694  89.4957609 100.4697032  58.7864534  89.1937450
 102.4513264  58.4695070  85.8401192 101.5008895  58.4696932  85.7265565
 102.7545750  57.7227805  85.3237227 106.3375819  36.3868956  82.0079373
 105.5708215  35.8327443  82.1536055 106.7486524  36.4590825  82.8693524
  98.3417580  42.6753752  96.0984554  99.2049042  42.3190557  96.3087878
  97.7682991  42.3367647  96.7859958 118.1865957  64.3055608  86.9046955
 118.8244367  64.1862356  86.2010295 118.0686800  65.2536452  86.9634907
 114.9955663  64.2583036  86.8408480 114.6574175  64.1424101  85.9529014
 115.8645432  63.8574202  86.8209486 115.4775446  65.4117888  92.7994685
 115.4664087  65.0170686  91.9275189 115.6396086  64.6783961  93.3928457
 112.1982708  68.1955000  91.7473869 111.9072574  69.1000631  91.6320535
 112.8339692  68.2371528  92.4617939 113.1238914  65.5731849  88.3375229
 113.7202487  65.3487871  87.6232192 113.1813886  64.8316594  88.9400677
 117.7407226  62.0307062  83.9800163 118.5270315  61.6126485  83.6290580
 118.0045930  62.9353154  84.1481811 123.1415653  61.9682295  84.8833141
 123.8740825  61.3981512  85.1170971 122.3855009  61.5803896  85.3239647
 120.6641073  55.6803870  89.3427750 120.3324398  56.5499280  89.1188965
 120.0686687  55.3640154  90.0221780 114.3997260  59.4199437  77.0757832
 114.5671662  60.2879673  77.4428303 114.2094429  59.5826718  76.1519122
 117.1572593  67.8816416  88.7423663 116.8573316  68.7841454  88.6339470
 116.8123652  67.6148599  89.5944816 110.6085074  64.3330212  84.7760367
 109.6835571  64.2006426  84.9838059 110.8569487  65.1124432  85.2730310
 120.5569736  60.3998956  86.4221100 119.6486614  60.3314364  86.1279861
 120.5057332  60.8770901  87.2502926 107.9693885  63.9763486  85.6104156
 108.0986266  64.2297965  86.5243568 107.2891337  64.5691194  85.2908811
 114.6310602  61.8188601  94.3655997 113.8543936  62.3782521  94.3558862
 115.2701165  62.3045384  94.8870867 122.4231383  58.6015394  88.1998974
 121.7805763  58.8947927  87.5538769 121.9186311  58.4868314  89.0052171
 112.8856975  64.6274055  93.9273964 113.6271659  65.1659099  93.6508788
 112.1793960  65.2540343  94.0845516 118.3612314  66.7703195  92.5246126
 118.7695670  66.3285606  91.7800758 117.6389576  66.1955823  92.7780319
 114.7143384  61.7075802  89.8979683 115.5604579  62.1315215  90.0414332
 114.6542022  61.0509426  90.5918246 118.6841129  67.3304386  86.2798415
 118.0549991  67.4950100  85.5774483 118.2966791  67.7445995  87.0509379
 122.5630361  68.2658824  83.6342778 121.8781399  68.6457725  83.0839812
 122.6474210  68.8754150  84.3674726 117.8642830  59.3680170  91.5560856
 117.6203761  60.1222231  91.0195132 118.1402760  59.7465518  92.3908103
 119.8181292  65.9118783  90.2338122 120.0298188  66.5550543  89.5572503
 119.7711041  65.0781099  89.7660052 117.4207521  58.5236603  87.1374694
 116.5592000  58.8217857  87.4291432 117.4469956  58.7407002  86.2055727
 111.1293172  66.6150275  86.4828263 111.6994529  67.0437544  85.8445748
 111.7201284  66.3332860  87.1812449 111.6218338  61.7813703  94.7289274
 110.9916999  62.4629984  94.9624671 111.5154426  61.6696784  93.7842413
 106.9163311  61.4485499  85.6555199 106.1262365  61.7043027  85.1795309
 107.4074558  62.2633837  85.7607239 120.9327120  68.7890738  88.4060479
 121.7544564  68.3870925  88.1243161 120.9289523  68.6858972  89.3576595
 114.6983724  68.3374781  90.5621190 114.7628156  68.7995189  91.3979362
 113.9894648  67.7072146  90.6903500 105.2001014  61.7015989  88.0870189
 105.4509052  62.5862999  88.3527765 105.7360562  61.5220591  87.3145281
 129.0233113  65.1329487  84.7545451 128.2696822  64.5636885  84.5989455
 129.1580655  65.0992151  85.7016085 110.8999081  56.0834469  97.0914525
 110.5066027  55.5300667  97.7662170 111.7165221  56.3945047  97.4821043
 113.8167042  57.4992348  94.6834782 114.5576755  58.0999501  94.6039244
 114.0484965  56.7569986  94.1252825 108.9608380  62.6848715  92.9613012
 108.8461895  61.7833972  93.2620111 108.1052898  62.9312412  92.6097828
 116.0400218  70.6266455  94.5600512 115.5964072  69.8402834  94.2421417
 116.7017431  70.8145606  93.8944403 110.7987339  72.1562257  89.0861191
 111.3494764  72.0279320  88.3138185 109.9598815  72.4557146  88.7356084
 118.1381456  70.9069255  92.5881914 118.1199931  71.7278136  92.0962183
 119.0601376  70.7823330  92.8132055 114.5954510  68.4213385  93.4305422
 115.1282847  67.6601673  93.2004730 114.0668591  68.1287037  94.1729576
 117.7624205  53.5273451  88.9599064 117.4188474  54.4175092  88.8838174
 118.1303168  53.3375108  88.0968649 115.3121599  58.3631763  82.5256737
 114.4563195  57.9738613  82.3462376 115.7248551  58.4423723  81.6656523
 116.8420745  55.8978106  86.9248297 116.3385541  55.8608241  86.1116102
 117.1351352  56.8070849  86.9844954 113.0863631  55.9816836  85.9314479
 113.9516628  55.7859644  85.5720368 113.1541140  55.7527187  86.8583835
 120.9400069  65.7448398  86.0591280 120.2823743  66.4347659  86.1471409
 121.7440468  66.1344830  86.4025267 110.6925950  58.2119044  83.3030845
 111.2669702  57.9894225  82.5704038 111.2796933  58.2807738  84.0559447
 119.7505528  64.0992770  84.1095222 120.2637409  64.7322762  84.6116932
 120.4006751  63.4993966  83.7438582 112.9948618  55.0860292  82.0305915
 112.3413030  54.7709310  81.4062530 112.9529092  54.4636033  82.7565738
 116.2286358  61.5742226  86.3553562 115.3108920  61.7957173  86.1975251
 116.6446502  61.6488536  85.4965270 119.4600243  60.0090758  83.4675032
 118.7223000  59.4968144  83.7985275 119.7127017  59.5691139  82.6558309
 118.9600263  70.9175269  83.1724183 119.2523237  71.4780326  82.4536548
 119.4698884  71.2103830  83.9277342 119.5611871  52.7867010  84.0616801
 119.8670747  51.9264373  83.7742716 120.2864475  53.3784630  83.8615795
 113.8332950  63.0820803  84.5692992 113.8881560  62.1294639  84.4935469
 113.0224152  63.2380242  85.0534291 113.9233888  71.6955620  84.2617636
 113.8810067  71.9216466  83.3326168 114.8396587  71.4618994  84.4103437
 117.3699522  62.1639687  91.1598265 117.7248910  62.3911160  92.0192731
 118.0171653  62.4958064  90.5375520 123.0997259  65.2858123  81.8647594
 122.9615158  65.4759719  80.9368783 122.7433478  66.0477506  82.3215645
 111.2639385  59.2716218  87.9444606 111.9038764  59.1304977  87.2467570
 110.4316916  58.9850732  87.5683208 123.1266639  67.3534650  86.8758866
 123.5603145  67.2609939  87.7241920 123.8398219  67.3292151  86.2378882
 116.8594533  70.9536744  88.4091966 116.9131556  71.5227680  89.1769682
 115.9909315  71.1238629  88.0446003 108.2668001  59.2416543  82.7217593
 108.5274819  60.1561876  82.6126753 109.0885174  58.7740986  82.8714206
 109.7392927  60.6554300  89.8916418 110.4115980  60.4471663  89.2429066
 108.9122713  60.4576386  89.4521650 123.9882188  67.3958351  89.4091751
 124.1818078  68.3004161  89.6551026 123.8882806  66.9365770  90.2430336
 115.6418499  57.2816241  91.9082078 114.9946414  57.9806191  91.8146555
 116.4119514  57.7152385  92.2758327 119.0497297  67.5465093  94.9832632
 118.8982803  67.3175645  94.0662715 119.0401976  68.5035695  94.9963977
 115.8182633  65.1197006  89.9678898 116.7474693  65.2708166  89.7947865
 115.3973663  65.2081027  89.1127545 114.6170965  69.1447671  87.7377436
 114.4782051  68.7766455  88.6103374 113.8285561  69.6595310  87.5661394
 116.1676180  68.5229273  85.1266274 115.8326013  68.4830043  86.0223923
 115.6680126  67.8573989  84.6536684 110.1420424  63.9296903  90.6518855
 110.0040222  63.1977142  91.2530394 111.0525348  63.8405803  90.3703042
 112.7702725  63.6416863  90.1402534 113.4802343  63.0010055  90.0989153
 112.7272033  63.8929758  91.0628715 120.7589503  70.5784216  93.0609114
 120.7002050  69.8943436  92.3939697 121.1609022  71.3203206  92.6089740
 111.4831659  60.6282081  91.9598174 110.9469016  60.1772819  92.6119770
 110.8948367  60.7627989  91.2168638 109.7780202  77.3946130  85.8542832
 110.0176800  78.0264654  86.5321851 108.9349399  77.0434170  86.1408192
 120.7606911  68.5423800  91.2923093 119.8733689  68.2049722  91.4149492
 121.3305462  67.8106831  91.5291859 102.4136058  64.8747892  84.6166145
 103.1007098  64.5609622  84.0287160 102.2584186  65.7789256  84.3433396
 107.2170780  59.7638088  89.0451168 107.1328969  59.1563758  88.3101578
 106.3953486  60.2547107  89.0460665 114.2908064  73.2025252  88.2584336
 114.2178236  74.0080224  88.7703641 113.8485457  73.4017218  87.4332358
 117.3894494  58.2491652  84.4121363 117.8863193  57.4961614  84.0922434
 116.6181475  58.2855968  83.8464573 125.2424251  63.9532017  86.0539655
 125.2314127  64.8356733  85.6833588 124.3741631  63.6003568  85.8594192
 116.7506748  73.1012086  90.4142495 117.4634720  73.7359551  90.3418397
 116.2596776  73.1975952  89.5982497 113.9729463  60.3909035  84.1393048
 113.6027250  59.8380075  84.8273954 114.4688555  59.7867168  83.5868048
 121.8596826  62.8480658  82.5209821 122.3257278  63.6808650  82.4470124
 122.3104326  62.3825640  83.2255079 111.8018661  70.8506530  91.2348066
 112.5028121  71.4843013  91.3877460 111.3313776  71.1921261  90.4743705
 119.8313489  55.2161245  86.5600722 118.9176568  55.4465472  86.7282929
 120.2606590  55.2999689  87.4114755 119.6019947  63.4051137  89.0600616
 118.9491397  63.6527045  88.4053069 119.9800327  62.5915275  88.7263094
 116.5627121  73.4410830  83.1628787 116.7449516  72.6232486  83.6256539
 117.3860107  73.6578523  82.7253677 116.8969286  72.3679016  80.4243835
 117.4257053  71.8571470  79.8113997 117.1597506  72.0521546  81.2889368
 115.6507520  64.1470948  95.5466653 114.9748157  64.0465078  96.2169029
 116.4735154  63.9910162  96.0102651 107.3986379  70.3842885  88.1679169
 107.9839816  69.6386573  88.3007073 107.2011218  70.6946842  89.0515832
 101.9904034  62.9548485  86.8883612 102.0288133  62.4212076  87.6820730
 101.4844327  62.4283691  86.2694589 114.3930303  75.4537876  89.7824269
 114.9448611  75.6169497  90.5473355 114.7336496  76.0442314  89.1104294
 109.3694796  57.8013026  90.3846154 109.4336123  58.6627856  89.9723552
 109.3061916  57.1887027  89.6518513 108.8447069  59.8736158  94.0319188
 109.4719108  59.4913235  94.6456713 107.9874988  59.6550360  94.3974881
 119.2441177  70.2799133  95.6372924 119.7881081  70.8929092  95.1427879
 118.6628022  70.8378712  96.1539937 117.5298690  73.4019851  86.7687952
 117.4049830  72.6009591  86.2598897 118.1877781  73.8966045  86.2801921
 109.1506859  59.7568584  85.9465092 108.4293444  60.3704552  85.8072565
 109.9400114  60.2926349  85.8681738 119.5933599  71.2028871  88.3967502
 118.6463934  71.0834223  88.3245828 119.9416372  70.3151369  88.4793763
 111.9533172  57.0923010  92.2205743 112.4767574  57.3385307  92.9832053
 111.7345505  57.9243045  91.8008881 116.5980032  70.9981588  84.5971854
 116.4504994  70.0698295  84.7779424 117.4233525  71.0201678  84.1128929
 120.2014154  71.8210146  85.6836727 121.1260701  71.6153008  85.5461178
 120.0329457  71.5726547  86.5926068 113.1585717  58.0336705  89.9055414
 112.8182537  57.2344518  90.3076094 112.4524723  58.3338416  89.3332247
 113.8102189  55.1186018  88.3582737 114.6328258  54.6446496  88.2361627
 114.0540252  55.8976502  88.8581423 116.5941546  58.8519425  79.5903971
 116.8105161  59.7344063  79.2892799 116.1135613  58.4605639  78.8609613
 111.3340768  61.8105138  86.1674716 111.1885348  62.1245442  87.0598997
 110.8565971  62.4290039  85.6145614 113.1937151  58.8007686  86.2155605
 113.1798719  57.9048780  85.8787903 113.9109579  58.8078350  86.8493891
 115.0463281  59.2345027  88.2608733 114.7881059  60.1562097  88.2593063
 114.5148322  58.8375461  88.9509197 119.9909470  72.3395814  81.0398818
 120.1646348  71.7742236  80.2872670 120.4838361  73.1396709  80.8578308
 105.8086430  64.3510483  89.1062377 105.2639898  65.1270291  89.2382651
 106.6865780  64.6981287  88.9481498 112.5974046  57.6822067  81.4843175
 112.7189958  56.7538713  81.6834063 112.3076089  57.6960753  80.5721491
 115.4665237  55.3676977  84.6209895 115.4886934  55.4316310  83.6661875
 115.8833296  54.5281486  84.8150401 125.8448861  65.1032237  82.6589118
 126.2880007  64.3539562  82.2608241 124.9675371  65.0942373  82.2762850
 120.9784643  71.6562578  78.1395716 121.6735547  72.2769271  78.3583031
 121.3207793  70.8057929  78.4148094 106.5952452  63.4780379  91.9992534
 105.8534188  63.6263014  92.5857164 106.2745196  63.7388645  91.1359283
 122.8776066  69.1062284  79.6683047 123.4027390  69.4449556  78.9432367
 122.7898418  68.1709299  79.4846182 114.5396114  73.0196357  91.7972924
 114.8483241  72.7745504  92.6695623 115.3371596  73.2242996  91.3091794
 114.5616726  75.1734267  84.0278300 114.1221717  74.6810646  84.7211157
 115.3124843  74.6307235  83.7870375 112.0090599  70.7172276  86.1000602
 111.3870608  70.0542981  85.8002830 112.6795465  70.7433408  85.4174250
 112.0815126  59.1954064  95.6933108 112.1303281  60.0716187  95.3110878
 112.6237640  58.6531457  95.1204751 122.5669972  69.7395187  94.9734245
 121.7765515  69.7219326  94.4338744 122.3303326  70.2783481  95.7283282
 122.6867847  66.5887654  92.2866974 122.7365852  66.4237661  93.2282496
 122.5781770  65.7214913  91.8964854 119.9771609  62.5718582  93.6026280
 120.8781472  62.4325047  93.3110278 120.0519584  62.7373037  94.5424458
 114.3114414  59.9485437  92.4479467 113.4417724  60.2419003  92.1762055
 114.5473895  60.5325882  93.1686730 124.1886044  69.0084595  92.5308995
 123.8970852  69.3714576  93.3672456 123.5758175  68.2951604  92.3522327
 125.3881726  66.5737475  85.0511565 126.2228617  67.0127279  85.2149126
 125.5240855  66.0976128  84.2319811 122.4373232  64.1317210  90.9989053
 122.9127353  64.3244856  90.1907904 121.5138797  64.1876396  90.7532437
 117.0153448  56.1665053  89.9644887 117.5335392  56.9026080  89.6391376
 116.6608581  56.4729047  90.7991646 117.2666042  52.5865336  85.4845784
 117.5467796  51.9188525  86.1106210 118.0516649  52.7794432  84.9720447
 121.1374901  61.0082970  89.2317359 122.0892324  61.1081068  89.2529583
 120.9678351  60.2161239  89.7415443 119.1589280  58.0938553  89.4176760
 118.5639212  58.3743566  88.7223248 118.8738977  58.5832454  90.1893501
 118.2896771  72.0461480  78.1779392 119.2227444  71.9807042  78.3812268
 118.2019984  72.8817747  77.7193925 120.9184787  71.3627350  75.1383340
 120.8398419  71.0287214  76.0319098 121.7394454  71.8549118  75.1374812
 123.6162979  64.2289090  88.3459658 123.5839299  63.2905090  88.5319342
 124.2263602  64.3073126  87.6125483 123.7657467  61.0200133  88.3917942
 123.2496516  60.2358590  88.2047870 124.6497416  60.6918850  88.5564461
 121.4268194  54.7641149  84.3513754 121.2293015  54.4556237  85.2357086
 122.0367900  55.4902788  84.4811684 129.4339528  65.2905096  87.4865695
 130.1642917  65.0290385  88.0473398 128.8246474  64.5533818  87.5267763
 127.5154826  63.4312959  88.0840146 126.7887989  63.2968924  87.4756638
 127.1002112  63.7389788  88.8896864 115.3385002  67.1502889  95.8487519
 116.2588011  67.3281488  96.0427566 115.3034585  66.2058934  95.6967219
 104.5567167  62.3441482  84.7740794 104.2369951  61.4906791  84.4815168
 104.0100595  62.5590061  85.5298761 108.3347075  65.0603923  88.4910301
 108.5533084  65.9921031  88.5098334 108.7472848  64.7011898  89.2765104
 115.2551292  55.5672009  80.4785989 114.4452021  55.2219094  80.8541235
 115.9435709  55.2579552  81.0673600 117.1841841  54.6450056  82.1010286
 117.7372879  55.0645509  82.7600309 117.4211927  53.7185804  82.1433242
 113.2074940  60.6337129  97.8813049 113.1071667  61.5831486  97.8125141
 112.9896482  60.3055368  97.0089120 104.4255427  65.9644394  86.7433916
 103.7318898  65.5498347  86.2303870 105.1728418  66.0064930  86.1467334
 120.5620648  56.7550581  81.6088950 119.9819317  57.4135385  81.2267002
 120.2956580  55.9327925  81.1976367 119.0124214  56.1555638  83.8110270
 119.5123992  56.2672173  83.0024589 119.6559822  55.8516691  84.4511079
 113.0706210  64.0634268  96.6978111 112.5873292  64.8634628  96.9042000
 113.1567149  64.0742213  95.7445555 108.9979547  67.9538803  88.7346545
 109.9522801  67.9222745  88.6676476 108.7992071  67.4929426  89.5496771
 109.5878930  66.5239919  91.3017343 110.4071819  67.0183997  91.3252180
 109.8615737  65.6071887  91.2734910 119.3445526  58.9150671  80.6645298
 118.4571381  59.2000322  80.4465493 119.7599515  58.7544434  79.8172575
 122.6960062  58.9397192  84.3799637 123.4720452  59.4293644  84.6524254
 121.9708196  59.3655246  84.8371507 125.1332620  59.6524811  85.4373578
 125.7277111  59.4120547  84.7266886 125.2059204  58.9331942  86.0647114
 107.3529776  73.4958422  85.7516743 107.2184244  72.7358823  85.1854741
 106.9361838  74.2199322  85.2845532 118.4888739  68.6795346  74.7593318
 119.1924589  68.8845348  75.3750974 117.7651388  69.2472108  75.0242402
 123.1291355  60.2194939  81.7045708 122.8728290  59.8191575  82.5353915
 122.5044223  60.9338733  81.5795847 127.4403693  62.9591012  84.2116999
 126.8803251  63.0284201  84.9848561 126.8347197  62.7831997  83.4916495
 110.5098902  74.3927739  85.9635185 110.3931286  75.3373172  85.8613876
 109.6891348  74.0901301  86.3520985 120.3975437  69.1177875  76.8091778
 121.2321041  68.6859073  76.6269253 120.2359780  68.9459889  77.7368673
 104.8413844  60.8578053  92.0009540 105.4872707  60.3477007  92.4896765
 104.6330995  61.5946734  92.5752965 117.3667236  67.9258900  97.5001680
 118.2358396  68.0999552  97.1388315 116.8873987  68.7453317  97.3777410
 113.3617454  55.1218097  77.7533436 113.3496124  56.0659937  77.9101707
 114.2540876  54.9388243  77.4592897 111.5353416  75.0456001  89.1791114
 112.4380663  75.0779611  89.4957609 111.3090786  74.1156452  89.1937450
 113.2907018  73.7986988  85.8401192 112.3402649  73.7988849  85.7265565
 113.5939504  73.0519722  85.3237227 117.1769574  51.7160874  82.0079373
 116.4101970  51.1619361  82.1536055 117.5880279  51.7882743  82.8693524
 109.1811335  58.0045670  96.0984554 110.0442796  57.6482475  96.3087878
 108.6076745  57.6659565  96.7859958 129.0259712  79.6347526  86.9046955
 129.6638122  79.5154273  86.2010295 128.9080555  80.5828370  86.9634907
 125.8349418  79.5874954  86.8408480 125.4967929  79.4716019  85.9529014
 126.7039186  79.1866119  86.8209486 121.6936234  81.4410431  82.8305370
 121.1301099  81.3500368  82.0621658 121.5788629  80.6210335  83.3107863
 126.3169201  80.7409806  92.7994685 126.3057842  80.3462604  91.9275189
 126.4789840  80.0075878  93.3928457 119.2400666  82.9361622  85.6689591
 120.0321958  82.5952447  85.2535890 119.4797316  83.0456597  86.5891744
 127.2735792  85.1081398  78.1419835 126.6223772  85.6935479  77.7553849
 128.0680155  85.6387593  78.2014873 121.1991420  82.1970535  78.5406970
 121.9722296  81.6499523  78.4019846 121.5516818  83.0614785  78.7521431
 123.0376462  83.5246918  91.7473869 122.7466328  84.4292549  91.6320535
 123.6733446  83.5663445  92.4617939 123.9632669  80.9023766  88.3375229
 124.5596241  80.6779789  87.6232192 124.0207640  80.1608512  88.9400677
 123.5357697  78.3563202  76.1725420 123.7883218  77.8344723  75.4108883
 122.5982256  78.1929347  76.2752103 128.5800980  77.3598980  83.9800163
 129.3664069  76.9418403  83.6290580 128.8439685  78.2645072  84.1481811
 128.7511058  82.7971830  78.6788820 128.1156891  82.8706457  79.3909724
 128.4208464  83.3865429  78.0007899 133.9809407  77.2974213  84.8833141
 134.7134579  76.7273430  85.1170971 133.2248763  76.9095814  85.3239647
 123.2553986  80.2591307  78.3749795 123.1390244  79.5836211  79.0430879
 123.3656246  79.7723681  77.5581948 125.5985527  79.7201455  82.0796484
 125.2343734  79.1932076  82.7909405 126.4552643  79.3299924  81.9062969
 131.5034828  71.0095787  89.3427750 131.1718152  71.8791198  89.1188965
 130.9080441  70.6932071  90.0221780 125.2391014  74.7491354  77.0757832
 125.4065416  75.6171591  77.4428303 125.0488183  74.9118636  76.1519122
 127.9966347  83.2108333  88.7423663 127.6967070  84.1133372  88.6339470
 127.6517407  82.9440516  89.5944816 121.4478829  79.6622130  84.7760367
 120.5229325  79.5298344  84.9838059 121.6963242  80.4416349  85.2730310
 131.3963491  75.7290873  86.4221100 130.4880368  75.6606282  86.1279861
 131.3451087  76.2062818  87.2502926 125.2180235  77.2049012  78.0604499
 125.0979860  77.6506063  78.8989979 124.5232823  77.5534329  77.5018037
 118.8087640  79.3055404  85.6104156 118.9380021  79.5589883  86.5243568
 118.1285091  79.8983112  85.2908811 122.9787127  89.9752654  81.7094630
 122.9011157  90.9260479  81.7883111 122.3748771  89.6298526  82.3669557
 125.4704357  77.1480519  94.3655997 124.6937691  77.7074439  94.3558862
 126.1094920  77.6337302  94.8870867 133.2625137  73.9307312  88.1998974
 132.6199518  74.2239845  87.5538769 132.7580066  73.8160232  89.0052171
 130.9165301  77.6770485  78.8884833 131.8283157  77.9097872  78.7132531
 130.4074948  78.2607529  78.3259912 123.7250729  79.9565972  93.9273964
 124.4665413  80.4951016  93.6508788 123.0187715  80.5832261  94.0845516
 129.2006069  82.0995113  92.5246126 129.6089425  81.6577523  91.7800758
 128.4783330  81.5247740  92.7780319 125.5537139  77.0367720  89.8979683
 126.3998334  77.4607133  90.0414332 125.4935776  76.3801344  90.5918246
 129.5234883  82.6596303  86.2798415 128.8943746  82.8242018  85.5774483
 129.1360545  83.0737913  87.0509379 133.4024115  83.5950741  83.6342778
 132.7175153  83.9749643  83.0839812 133.4867965  84.2046068  84.3674726
 128.7036584  74.6972088  91.5560856 128.4597516  75.4514148  91.0195132
 128.9796515  75.0757436  92.3908103 130.6575047  81.2410700  90.2338122
 130.8691942  81.8842460  89.5572503 130.6104795  80.4073017  89.7660052
 128.2601276  73.8528521  87.1374694 127.3985755  74.1509775  87.4291432
 128.2863710  74.0698920  86.2055727 125.0762845  82.3970712  83.5448500
 125.5401191  82.6758415  82.7553122 124.8119643  81.4954156  83.3621590
 121.9686926  81.9442193  86.4828263 122.5388283  82.3729461  85.8445748
 122.5595038  81.6624778  87.1812449 124.0131731  78.5193864  80.3538065
 124.7155775  78.9714908  80.8211991 123.6812360  77.8777683  80.9817958
 122.4612093  77.1105621  94.7289274 121.8310753  77.7921901  94.9624671
 122.3548181  76.9988702  93.7842413 117.7557065  76.7777417  85.6555199
 116.9656119  77.0334945  85.1795309 118.2468313  77.5925754  85.7607239
 131.7720875  84.1182656  88.4060479 132.5938319  83.7162843  88.1243161
 131.7683278  84.0150890  89.3576595 119.7071811  77.1421996  82.6138675
 118.9102974  77.2540690  83.1322171 119.4797403  77.4808648  81.7479566
 125.5377478  83.6666699  90.5621190 125.6021911  84.1287106  91.3979362
 124.8288402  83.0364064  90.6903500 116.0394768  77.0307907  88.0870189
 116.2902807  77.9154917  88.3527765 116.5754317  76.8512509  87.3145281
 139.8626868  80.4621404  84.7545451 139.1090576  79.8928802  84.5989455
 139.9974409  80.4284069  85.7016085 125.2525496  85.3334807  80.4300170
 125.1171171  86.1786342  80.8585018 125.7935308  85.5354084  79.6666104
 121.7392836  71.4126386  97.0914525 121.3459781  70.8592585  97.7662170
 122.5558976  71.7236965  97.4821043 118.7054893  82.8510245  81.0028095
 119.2179414  83.6453495  81.1533660 119.3577606  82.1536535  80.9361697
 120.5149778  85.9676001  83.0850848 120.6916406  86.8893966  82.8971832
 121.3106612  85.6534420  83.5145228 124.6560797  72.8284265  94.6834782
 125.3970510  73.4291419  94.6039244 124.8878719  72.0861903  94.1252825
 119.8002135  78.0140633  92.9613012 119.6855650  77.1125890  93.2620111
 118.9446652  78.2604329  92.6097828 126.8793972  85.9558373  94.5600512
 126.4357826  85.1694752  94.2421417 127.5411186  86.1437524  93.8944403
 121.6381093  87.4854175  89.0861191 122.1888519  87.3571238  88.3138185
 120.7992569  87.7849064  88.7356084 128.9775210  86.2361173  92.5881914
 128.9593686  87.0570054  92.0962183 129.8995130  86.1115248  92.8132055
 125.4348265  83.7505302  93.4305422 125.9676601  82.9893591  93.2004730
 124.9062346  83.4578954  94.1729576 128.6017959  68.8565368  88.9599064
 128.2582229  69.7467010  88.8838174 128.9696922  68.6667026  88.0968649
 116.6703810  81.1798899  81.7787666 117.5079032  81.5895907  81.5621373
 116.8482078  80.2398341  81.7487860 128.5668242  78.8473979  77.4671499
 128.0514866  79.6178584  77.7059886 128.2945551  78.1739116  78.0904560
 126.1515353  73.6923680  82.5256737 125.2956950  73.3030531  82.3462376
 126.5642305  73.7715641  81.6656523 127.6814500  71.2270024  86.9248297
 127.1779295  71.1900159  86.1116102 127.9745107  72.1362766  86.9844954
 123.9257386  71.3108753  85.9314479 124.7910383  71.1151562  85.5720368
 123.9934895  71.0819105  86.8583835 133.5402516  81.6006334  79.4024672
 132.7631959  81.2617494  78.9579834 134.2193997  81.6058957  78.7279637
 128.3554545  76.7201072  79.2931280 128.0504681  77.0347221  80.1441423
 129.3084987  76.7982491  79.3358613 126.8000977  82.8791295  80.9424234
 126.2722339  82.1444054  80.6297471 126.2988480  83.6565971  80.6964202
 131.7793823  81.0740315  86.0591280 131.1217498  81.7639577  86.1471409
 132.5834222  81.4636747  86.4025267 121.5319705  73.5410961  83.3030845
 122.1063457  73.3186143  82.5704038 122.1190687  73.6099656  84.0559447
 130.5899282  79.4284688  84.1095222 131.1031164  80.0614680  84.6116932
 131.2400506  78.8285884  83.7438582 121.8589292  75.5715422  77.3226731
 121.0226604  75.9090109  77.6436005 121.7194062  75.4364402  76.3853868
 123.8342373  70.4152210  82.0305915 123.1806785  70.1001227  81.4062530
 123.7922847  69.7927951  82.7565738 124.9453577  80.6971505  73.9459207
 124.0380639  80.4660759  74.1450356 125.4424609  79.9009124  74.1333188
 127.8521656  89.4069012  76.8655893 127.1783355  89.7100709  77.4740851
 128.2387478  90.2098093  76.5161350 127.0680113  76.9034144  86.3553562
 126.1502674  77.1249091  86.1975251 127.4840257  76.9780454  85.4965270
 127.8515161  78.3025559  81.4856243 128.5986980  78.8146957  81.1763365
 128.1206750  77.9809612  82.3460636 126.1241811  80.7984100  78.4683197
 125.2153030  80.5143133  78.5655667 126.1536895  81.2183179  77.6086504
 131.3561078  84.4090690  82.2374365 130.9023405  83.5681599  82.2939555
 130.7255045  85.0452088  82.5749145 130.2993998  75.3382676  83.4675032
 129.5616755  74.8260062  83.7985275 130.5520771  74.8983057  82.6558309
 129.7994017  86.2467186  83.1724183 130.0916992  86.8072243  82.4536548
 130.3092638  86.5395747  83.9277342 130.4005625  68.1158928  84.0616801
 130.7064502  67.2556291  83.7742716 131.1258230  68.7076548  83.8615795
 116.6929981  78.5189614  82.4498399 116.4954381  77.9258975  81.7249466
 116.1376645  78.2141824  83.1674338 124.6726705  78.4112721  84.5692992
 124.7275315  77.4586557  84.4935469 123.8617907  78.5672160  85.0534291
 125.8217899  82.3392844  75.8071276 125.3837329  81.6228703  75.3476913
 126.5628339  82.5668959  75.2456367 122.6119065  77.0289780  82.3283371
 121.7986930  77.3283951  82.7348563 123.1078059  76.6345469  83.0457853
 124.7627643  87.0247537  84.2617636 124.7203821  87.2508384  83.3326168
 125.6790342  86.7910912  84.4103437 128.2093276  77.4931605  91.1598265
 128.5642664  77.7203078  92.0192731 128.8565408  77.8249982  90.5375520
 133.9391013  80.6150041  81.8647594 133.8008912  80.8051637  80.9368783
 133.5827232  81.3769424  82.3215645 122.1033140  74.6008136  87.9444606
 122.7432519  74.4596895  87.2467570 121.2710670  74.3142649  87.5683208
 133.9660393  82.6826568  86.8758866 134.3996900  82.5901857  87.7241920
 134.6791974  82.6584068  86.2378882 122.8793443  83.9010566  84.0579599
 123.6734042  83.4060886  83.8562174 122.1685136  83.3728429  83.6947304
 127.6988288  86.2828662  88.4091966 127.7525310  86.8519598  89.1769682
 126.8303069  86.4530547  88.0446003 119.1876207  78.0453648  80.1339351
 118.2573795  77.9838104  80.3509313 119.2833679  77.5229601  79.3375993
 119.1061756  74.5708461  82.7217593 119.3668573  75.4853794  82.6126753
 119.9278928  74.1032903  82.8714206 120.5786681  75.9846218  89.8916418
 121.2509735  75.7763580  89.2429066 119.7516468  75.7868304  89.4521650
 134.8275943  82.7250268  89.4091751 135.0211833  83.6296079  89.6551026
 134.7276561  82.2657687  90.2430336 126.4812253  72.6108159  91.9082078
 125.8340168  73.3098109  91.8146555 127.2513269  73.0444303  92.2758327
 129.8891051  82.8757011  94.9832632 129.7376558  82.6467563  94.0662715
 129.8795731  83.8327613  94.9963977 126.6576388  80.4488924  89.9678898
 127.5868448  80.6000084  89.7947865 126.2367418  80.5372945  89.1127545
 125.4564719  84.4739588  87.7377436 125.3175805  84.1058373  88.6103374
 124.6679316  84.9887228  87.5661394 126.0512871  89.5748685  79.0802972
 126.2264627  89.1036728  79.8948595 125.3645659  90.2014451  79.3084233
 127.0069935  83.8521191  85.1266274 126.6719767  83.8121961  86.0223923
 126.5073880  83.1865907  84.6536684 120.9814179  79.2588821  90.6518855
 120.8433976  78.5269060  91.2530394 121.8919102  79.1697721  90.3703042
 129.9429126  81.1977225  75.4003333 129.3258297  80.4724054  75.3036386
 129.4745615  81.9586586  75.0570407 123.6096479  78.9708780  90.1402534
 124.3196098  78.3301973  90.0989153 123.5665787  79.2221675  91.0628715
 131.5983258  85.9076134  93.0609114 131.5395804  85.2235354  92.3939697
 132.0002776  86.6495124  92.6089740 122.3225413  75.9573998  91.9598174
 121.7862770  75.5064737  92.6119770 121.7342122  76.0919907  91.2168638
 120.6173957  92.7238048  85.8542832 120.8570555  93.3556572  86.5321851
 119.7743153  92.3726088  86.1408192 121.7327672  75.4162650  74.5224637
 120.8557138  75.2951450  74.1586884 122.2085425  74.6248728  74.2703526
 131.6000665  83.8715718  91.2923093 130.7127444  83.5341639  91.4149492
 132.1699216  83.1398749  91.5291859 113.2529812  80.2039809  84.6166145
 113.9400852  79.8901539  84.0287160 113.0977941  81.1081174  84.3433396
 118.0564534  75.0930006  89.0451168 117.9722723  74.4855676  88.3101578
 117.2347241  75.5839024  89.0460665 125.1301819  88.5317170  88.2584336
 125.0571990  89.3372141  88.7703641 124.6879212  88.7309136  87.4332358
 124.9191598  87.7688940  81.7687158 124.1359120  88.3110620  81.8625382
 125.6184343  88.2862920  82.1681399 128.2288248  73.5783569  84.4121363
 128.7256948  72.8253532  84.0922434 127.4575230  73.6147886  83.8464573
 136.0818006  79.2823935  86.0539655 136.0707882  80.1648650  85.6833588
 135.2135385  78.9295486  85.8594192 127.5900502  88.4304004  90.4142495
 128.3028474  89.0651469  90.3418397 127.0990531  88.5267870  89.5982497
 129.3118029  82.3355257  81.9859787 128.3774308  82.4556719  81.8164491
 129.4894697  81.4327723  81.7219797 124.8123217  75.7200952  84.1393048
 124.4421005  75.1671993  84.8273954 125.3082310  75.1159086  83.5868048
 132.6990580  78.1772576  82.5209821 133.1651033  79.0100568  82.4470124
 133.1498081  77.7117558  83.2255079 122.6412416  86.1798447  91.2348066
 123.3421875  86.8134930  91.3877460 122.1707531  86.5213179  90.4743705
 130.7666811  84.5216397  79.5195973 131.0426655  84.4072992  80.4289847
 129.8971310  84.1233882  79.4808146 130.6707243  70.5453163  86.5600722
 129.7570323  70.7757390  86.7282929 131.1000345  70.6291607  87.4114755
 130.4413702  78.7343055  89.0600616 129.7885152  78.9818962  88.4053069
 130.8194081  77.9207193  88.7263094 127.4020875  88.7702748  83.1628787
 127.5843270  87.9524404  83.6256539 128.2253861  88.9870440  82.7253677
 127.7363041  87.6970933  80.4243835 128.2650807  87.1863388  79.8113997
 127.9991261  87.3813463  81.2889368 126.4901275  79.4762866  95.5466653
 125.8141912  79.3756995  96.2169029 127.3128908  79.3202080  96.0102651
 118.2380134  85.7134803  88.1679169 118.8233570  84.9678490  88.3007073
 118.0404972  86.0238759  89.0515832 121.0918789  88.7486050  83.1841611
 120.4229164  89.2332178  82.7005651 120.9531659  88.9955270  84.0984990
 112.8297788  78.2840403  86.8883612 112.8681888  77.7503993  87.6820730
 112.3238081  77.7575608  86.2694589 125.2324057  90.7829793  89.7824269
 125.7842366  90.9461415  90.5473355 125.5730251  91.3734231  89.1104294
 120.2088551  73.1304943  90.3846154 120.2729877  73.9919774  89.9723552
 120.1455671  72.5178945  89.6518513 119.6840823  75.2028076  94.0319188
 120.3112862  74.8205153  94.6456713 118.8268742  74.9842278  94.3974881
 130.0834932  85.6091051  95.6372924 130.6274836  86.2221009  95.1427879
 129.5021777  86.1670629  96.1539937 116.4606366  77.0104505  79.9637543
 116.7559807  76.1015183  79.9104597 115.5594402  76.9892244  79.6418545
 128.3692445  88.7311769  86.7687952 128.2443584  87.9301509  86.2598897
 129.0271536  89.2257962  86.2801921 119.9900613  75.0860501  85.9465092
 119.2687199  75.6996469  85.8072565 120.7793869  75.6218266  85.8681738
 130.4327353  86.5320789  88.3967502 129.4857689  86.4126140  88.3245828
 130.7810126  85.6443287  88.4793763 122.7926927  72.4214928  92.2205743
 123.3161328  72.6677225  92.9832053 122.5739260  73.2534963  91.8008881
 118.1894208  74.6918603  80.0876868 117.8606914  73.8115981  79.9051974
 118.5433578  74.6366271  80.9753258 127.4373786  86.3273505  84.5971854
 127.2898749  85.3990213  84.7779424 128.2627280  86.3493596  84.1128929
 121.3036031  74.9791572  80.4552346 121.6432103  75.5077494  79.7330954
 121.7508151  75.3171978  81.2310912 131.0407908  87.1502064  85.6836727
 131.9654456  86.9444925  85.5461178 130.8723212  86.9018465  86.5926068
 123.9979472  73.3628623  89.9055414 123.6576292  72.5636436  90.3076094
 123.2918478  73.6630334  89.3332247 124.6495943  70.4477935  88.3582737
 125.4722013  69.9738414  88.2361627 124.8934007  71.2268419  88.8581423
 123.2904178  73.4766194  78.6545639 124.0112540  73.8547447  78.1509356
 122.6669482  74.1955071  78.7580617 127.4335301  74.1811343  79.5903971
 127.6498915  75.0635981  79.2892799 126.9529368  73.7897556  78.8609613
 122.1734522  77.1397056  86.1674716 122.0279103  77.4537359  87.0598997
 121.6959726  77.7581956  85.6145614 124.0330905  74.1299604  86.2155605
 124.0192474  73.2340697  85.8787903 124.7503333  74.1370268  86.8493891
 125.8857036  74.5636944  88.2608733 125.6274814  75.4854015  88.2593063
 125.3542076  74.1667379  88.9509197 130.8303225  87.6687731  81.0398818
 131.0040102  87.1034154  80.2872670 131.3232116  88.4688626  80.8578308
 116.6480184  79.6802401  89.1062377 116.1033652  80.4562208  89.2382651
 117.5259534  80.0273205  88.9481498 123.4367801  73.0113984  81.4843175
 123.5583712  72.0830631  81.6834063 123.1469843  73.0252670  80.5721491
 126.3058991  70.6968895  84.6209895 126.3280688  70.7608228  83.6661875
 126.7227050  69.8573403  84.8150401 136.6842616  80.4324154  82.6589118
 137.1273762  79.6831480  82.2608241 135.8069126  80.4234291  82.2762850
 131.8178397  86.9854496  78.1395716 132.5129302  87.6061189  78.3583031
 132.1601547  86.1349847  78.4148094 117.4346206  78.8072297  91.9992534
 116.6927942  78.9554932  92.5857164 117.1138950  79.0680562  91.1359283
 133.7169820  84.4354201  79.6683047 134.2421144  84.7741474  78.9432367
 133.6292173  83.5001217  79.4846182 125.3789869  88.3488275  91.7972924
 125.6876995  88.1037422  92.6695623 126.1765351  88.5534913  91.3091794
 125.4010481  90.5026185  84.0278300 124.9615471  90.0102563  84.7211157
 126.1518598  89.9599152  83.7870375 117.8802820  86.6937726  84.0302928
 118.7060840  86.3941497  83.6501572 117.5296872  85.9245348  84.4792717
 122.8484353  86.0464194  86.1000602 122.2264362  85.3834899  85.8002830
 123.5189220  86.0725326  85.4174250 116.0811425  84.6124052  84.9891862
 115.2443333  84.1846226  84.8075863 116.0535070  84.8056495  85.9262653
 122.9208881  74.5245982  95.6933108 122.9697036  75.4008105  95.3110878
 123.4631395  73.9823375  95.1204751 133.4063726  85.0687105  94.9734245
 132.6159270  85.0511244  94.4338744 133.1697081  85.6075399  95.7283282
 133.5261601  81.9179571  92.2866974 133.5759606  81.7529579  93.2282496
 133.4175525  81.0506830  91.8964854 122.4097860  84.5968117  79.5759062
 122.5585980  85.2803581  78.9225735 123.2164303  84.5773207  80.0908518
 130.8165364  77.9010499  93.6026280 131.7175226  77.7616964  93.3110278
 130.8913338  78.0664954  94.5424458 125.1508169  75.2777354  92.4479467
 124.2811478  75.5710920  92.1762055 125.3867649  75.8617799  93.1686730
 135.0279798  84.3376513  92.5308995 134.7364606  84.7006493  93.3672456
 134.4151929  83.6243521  92.3522327 136.2275480  81.9029393  85.0511565
 137.0622372  82.3419197  85.2149126 136.3634609  81.4268046  84.2319811
 133.2766986  79.4609128  90.9989053 133.7521108  79.6536774  90.1907904
 132.3532552  79.5168313  90.7532437 120.1650493  80.6233295  80.5820131
 119.9196535  79.7195625  80.7800342 120.3346407  80.6250445  79.6399609
 127.8547203  71.4956971  89.9644887 128.3729147  72.2317998  89.6391376
 127.5002336  71.8020964  90.7991646 119.4346140  76.3561652  78.0806293
 118.7415385  76.4306007  77.4246329 119.1897892  75.5921996  78.6027810
 128.1059797  67.9157254  85.4845784 128.3861551  67.2480443  86.1106210
 128.8910404  68.1086349  84.9720447 125.9093265  87.0916248  77.0470810
 125.3367233  87.7106435  76.5941282 126.4826059  87.6415609  77.5810732
 131.9768655  76.3374888  89.2317359 132.9286078  76.4372985  89.2529583
 131.8072106  75.5453156  89.7415443 129.9983035  73.4230471  89.4176760
 129.4032967  73.7035484  88.7223248 129.7132731  73.9124372  90.1893501
 129.1290525  87.3753398  78.1779392 130.0621198  87.3098959  78.3812268
 129.0413738  88.2109665  77.7193925 131.7578542  86.6919268  75.1383340
 131.6792173  86.3579132  76.0319098 132.5788209  87.1841036  75.1374812
 134.4556733  79.5581007  88.3459658 134.4233053  78.6197008  88.5319342
 135.0657357  79.6365044  87.6125483 126.2940064  78.4277060  74.3886862
 127.2399169  78.2983268  74.4575280 125.9154309  77.6891722  74.8656291
 134.6051222  76.3492051  88.3917942 134.0890270  75.5650507  88.2047870
 135.4891170  76.0210767  88.5564461 132.2661948  70.0933066  84.3513754
 132.0686770  69.7848155  85.2357086 132.8761654  70.8194705  84.4811684
 140.2733283  80.6197014  87.4865695 141.0036671  80.3582302  88.0473398
 139.6640228  79.8825736  87.5267763 138.3548580  78.7604877  88.0840146
 137.6281744  78.6260842  87.4756638 137.9395867  79.0681705  88.8896864
 126.1778756  82.4794806  95.8487519 127.0981766  82.6573405  96.0427566
 126.1428340  81.5350852  95.6967219 124.4782981  76.3527037  74.3241748
 123.5714436  76.0560149  74.4004461 124.7558962  76.0556855  73.4576034
 115.3960921  77.6733400  84.7740794 115.0763706  76.8198708  84.4815168
 114.8494350  77.8881978  85.5298761 119.1740829  80.3895841  88.4910301
 119.3926839  81.3212949  88.5098334 119.5866603  80.0303815  89.2765104
 126.0945047  70.8963926  80.4785989 125.2845775  70.5511011  80.8541235
 126.7829464  70.5871470  81.0673600 128.0235595  69.9741973  82.1010286
 128.5766634  70.3937427  82.7600309 128.2605681  69.0477721  82.1433242
 124.0468694  75.9629047  97.8813049 123.9465421  76.9123404  97.8125141
 123.8290236  75.6347286  97.0089120 123.2481766  73.2113972  74.4653727
 124.1100930  73.5368870  74.7249544 123.4332110  72.4245468  73.9526793
 115.2649181  81.2936312  86.7433916 114.5712653  80.8790264  86.2303870
 116.0122172  81.3356848  86.1467334 131.4014402  72.0842498  81.6088950
 130.8213071  72.7427302  81.2267002 131.1350335  71.2619843  81.1976367
 129.8517969  71.4847556  83.8110270 130.3517747  71.5964091  83.0024589
 130.4953576  71.1808609  84.4511079 123.9099964  79.3926186  96.6978111
 123.4267046  80.1926546  96.9042000 123.9960903  79.4034131  95.7445555
 117.1785924  81.2254565  84.6199930 117.1556612  81.3242253  83.6681814
 117.4886560  82.0719716  84.9417097 119.8373302  83.2830720  88.7346545
 120.7916555  83.2514663  88.6676476 119.6385825  82.8221344  89.5496771
 120.4272684  81.8531836  91.3017343 121.2465573  82.3475915  91.3252180
 120.7009492  80.9363805  91.2734910 130.1839280  74.2442589  80.6645298
 129.2965135  74.5292239  80.4465493 130.5993269  74.0836352  79.8172575
 133.5353816  74.2689110  84.3799637 134.3114206  74.7585562  84.6524254
 132.8101951  74.6947164  84.8371507 135.9726375  74.9816729  85.4373578
 136.5670866  74.7412465  84.7266886 136.0452959  74.2623860  86.0647114
 118.1923531  88.8250340  85.7516743 118.0577999  88.0650741  85.1854741
 117.7755593  89.5491240  85.2845532 129.3282494  84.0087263  74.7593318
 130.0318344  84.2137266  75.3750974 128.6045142  84.5764025  75.0242402
 130.1580304  79.7597125  80.8795588 130.1015505  80.2165676  80.0403221
 130.7108646  78.9987809  80.7018431 133.9685110  75.5486857  81.7045708
 133.7122044  75.1483492  82.5353915 133.3437978  76.2630650  81.5795847
 138.2797448  78.2882930  84.2116999 137.7197006  78.3576119  84.9848561
 137.6740951  78.1123914  83.4916495 121.3492657  89.7219657  85.9635185
 121.2325041  90.6665089  85.8613876 120.5285103  89.4193218  86.3520985
 131.2369191  84.4469793  76.8091778 132.0714795  84.0150991  76.6269253
 131.0753534  84.2751806  77.7368673 130.8915083  80.9501906  78.1748117
 130.8363887  80.7846177  77.2336562 130.2661139  81.6577939  78.3310307
 115.6807598  76.1869970  92.0009540 116.3266462  75.6768924  92.4896765
 115.4724749  76.9238652  92.5752965 128.2060990  83.2550818  97.5001680
 129.0752150  83.4291470  97.1388315 127.7267742  84.0745235  97.3777410
 124.2011209  70.4510015  77.7533436 124.1889879  71.3951855  77.9101707
 125.0934631  70.2680160  77.4592897 122.3747171  90.3747919  89.1791114
 123.2774417  90.4071529  89.4957609 122.1484541  89.4448370  89.1937450
 124.1300773  89.1278905  85.8401192 123.1796404  89.1280767  85.7265565
 124.4333259  88.3811640  85.3237227 128.0163328  67.0452792  82.0079373
 127.2495724  66.4911278  82.1536055 128.4274033  67.1174660  82.8693524
 120.0205089  73.3337587  96.0984554 120.8836551  72.9774392  96.3087878
 119.4470500  72.9951482  96.7859958 139.8653466  94.9639444  86.9046955
 140.5031876  94.8446191  86.2010295 139.7474309  95.9120288  86.9634907
 136.6743172  94.9166872  86.8408480 136.3361684  94.8007937  85.9529014
 137.5432941  94.5158037  86.8209486 132.5329988  96.7702348  82.8305370
 131.9694853  96.6792285  82.0621658 132.4182383  95.9502253  83.3107863
 137.1562955  96.0701724  92.7994685 137.1451596  95.6754522  91.9275189
 137.3183595  95.3367796  93.3928457 130.0794420  98.2653540  85.6689591
 130.8715712  97.9244364  85.2535890 130.3191070  98.3748515  86.5891744
 138.1129547 100.4373316  78.1419835 137.4617527 101.0227396  77.7553849
 138.9073910 100.9679511  78.2014873 132.0385174  97.5262453  78.5406970
 132.8116050  96.9791440  78.4019846 132.3910573  98.3906702  78.7521431
 133.8770217  98.8538835  91.7473869 133.5860083  99.7584466  91.6320535
 134.5127201  98.8955363  92.4617939 134.8026423  96.2315684  88.3375229
 135.3989996  96.0071706  87.6232192 134.8601395  95.4900429  88.9400677
 134.3751452  93.6855119  76.1725420 134.6276973  93.1636640  75.4108883
 133.4376011  93.5221265  76.2752103 139.4194735  92.6890898  83.9800163
 140.2057824  92.2710321  83.6290580 139.6833439  93.5936990  84.1481811
 139.5904812  98.1263748  78.6788820 138.9550645  98.1998374  79.3909724
 139.2602218  98.7157347  78.0007899 134.0947741  95.5883225  78.3749795
 133.9783999  94.9128129  79.0430879 134.2050000  95.1015599  77.5581948
 136.4379282  95.0493372  82.0796484 136.0737489  94.5223993  82.7909405
 137.2946397  94.6591841  81.9062969 142.3428582  86.3387705  89.3427750
 142.0111907  87.2083116  89.1188965 141.7474196  86.0223989  90.0221780
 136.0784768  90.0783272  77.0757832 136.2459171  90.9463508  77.4428303
 135.8881938  90.2410554  76.1519122 138.8360102  98.5400251  88.7423663
 138.5360825  99.4425290  88.6339470 138.4911161  98.2732434  89.5944816
 132.2872583  94.9914048  84.7760367 131.3623080  94.8590262  84.9838059
 132.5356996  95.7708267  85.2730310 142.2357245  91.0582791  86.4221100
 141.3274123  90.9898199  86.1279861 142.1844841  91.5354736  87.2502926
 136.0573989  92.5340929  78.0604499 135.9373615  92.9797980  78.8989979
 135.3626578  92.8826247  77.5018037 129.6481394  94.6347321  85.6104156
 129.7773775  94.8881800  86.5243568 128.9678846  95.2275029  85.2908811
 133.8180881 105.3044571  81.7094630 133.7404911 106.2552396  81.7883111
 133.2142525 104.9590444  82.3669557 136.3098111  92.4772437  94.3655997
 135.5331445  93.0366357  94.3558862 136.9488674  92.9629220  94.8870867
 141.7559056  93.0062403  78.8884833 142.6676912  93.2389789  78.7132531
 141.2468703  93.5899447  78.3259912 134.5644484  95.2857890  93.9273964
 135.3059168  95.8242934  93.6508788 133.8581469  95.9124179  94.0845516
 140.0399823  97.4287030  92.5246126 140.4483179  96.9869441  91.7800758
 139.3177085  96.8539658  92.7780319 136.3930893  92.3659637  89.8979683
 137.2392088  92.7899051  90.0414332 136.3329531  91.7093262  90.5918246
 140.3628638  97.9888221  86.2798415 139.7337500  98.1533935  85.5774483
 139.9754300  98.4029831  87.0509379 139.5430339  90.0264006  91.5560856
 139.2991270  90.7806066  91.0195132 139.8190269  90.4049353  92.3908103
 141.4968801  96.5702618  90.2338122 141.7085697  97.2134378  89.5572503
 141.4498550  95.7364935  89.7660052 139.0995030  89.1820439  87.1374694
 138.2379509  89.4801692  87.4291432 139.1257465  89.3990838  86.2055727
 135.9156600  97.7262629  83.5448500 136.3794945  98.0050332  82.7553122
 135.6513398  96.8246074  83.3621590 132.8080681  97.2734111  86.4828263
 133.3782038  97.7021379  85.8445748 133.3988793  96.9916695  87.1812449
 134.8525486  93.8485782  80.3538065 135.5549529  94.3006825  80.8211991
 134.5206114  93.2069600  80.9817958 133.3005847  92.4397538  94.7289274
 132.6704508  93.1213819  94.9624671 133.1941935  92.3280620  93.7842413
 128.5950820  92.1069334  85.6555199 127.8049874  92.3626863  85.1795309
 129.0862067  92.9217672  85.7607239 142.6114629  99.4474573  88.4060479
 143.4332073  99.0454761  88.1243161 142.6077032  99.3442808  89.3576595
 130.5465565  92.4713913  82.6138675 129.7496728  92.5832608  83.1322171
 130.3191157  92.8100566  81.7479566 136.3771233  98.9958617  90.5621190
 136.4415665  99.4579024  91.3979362 135.6682157  98.3655982  90.6903500
 126.8788523  92.3599825  88.0870189 127.1296561  93.2446835  88.3527765
 127.4148071  92.1804426  87.3145281 136.0919250 100.6626724  80.4300170
 135.9564925 101.5078260  80.8585018 136.6329063 100.8646002  79.6666104
 132.5786590  86.7418304  97.0914525 132.1853536  86.1884503  97.7662170
 133.3952730  87.0528883  97.4821043 129.5448648  98.1802162  81.0028095
 130.0573168  98.9745412  81.1533660 130.1971361  97.4828453  80.9361697
 131.3543532 101.2967919  83.0850848 131.5310161 102.2185883  82.8971832
 132.1500366 100.9826338  83.5145228 135.4954551  88.1576183  94.6834782
 136.2364264  88.7583336  94.6039244 135.7272474  87.4153821  94.1252825
 130.6395889  93.3432550  92.9613012 130.5249404  92.4417808  93.2620111
 129.7840407  93.5896247  92.6097828 137.7187727 101.2850291  94.5600512
 137.2751581 100.4986669  94.2421417 138.3804940 101.4729441  93.8944403
 132.4774848 102.8146092  89.0861191 133.0282273 102.6863156  88.3138185
 131.6386324 103.1140981  88.7356084 139.8168965 101.5653091  92.5881914
 139.7987440 102.3861972  92.0962183 140.7388885 101.4407166  92.8132055
 136.2742019  99.0797220  93.4305422 136.8070356  98.3185508  93.2004730
 135.7456100  98.7870872  94.1729576 139.4411714  84.1857286  88.9599064
 139.0975983  85.0758928  88.8838174 139.8090677  83.9958944  88.0968649
 127.5097565  96.5090817  81.7787666 128.3472787  96.9187825  81.5621373
 127.6875832  95.5690259  81.7487860 139.4061997  94.1765897  77.4671499
 138.8908620  94.9470502  77.7059886 139.1339305  93.5031033  78.0904560
 136.9909108  89.0215598  82.5256737 136.1350704  88.6322448  82.3462376
 137.4036059  89.1007559  81.6656523 138.5208254  86.5561941  86.9248297
 138.0173050  86.5192076  86.1116102 138.8138861  87.4654684  86.9844954
 134.7651140  86.6400671  85.9314479 135.6304137  86.4443480  85.5720368
 134.8328649  86.4111023  86.8583835 139.1948300  92.0492989  79.2931280
 138.8898435  92.3639138  80.1441423 140.1478742  92.1274409  79.3358613
 137.6394732  98.2083213  80.9424234 137.1116093  97.4735972  80.6297471
 137.1382234  98.9857889  80.6964202 142.6187578  96.4032233  86.0591280
 141.9611252  97.0931494  86.1471409 143.4227977  96.7928665  86.4025267
 132.3713459  88.8702879  83.3030845 132.9457211  88.6478060  82.5704038
 132.9584442  88.9391573  84.0559447 141.4293037  94.7576606  84.1095222
 141.9424918  95.3906598  84.6116932 142.0794260  94.1577801  83.7438582
 132.6983046  90.9007340  77.3226731 131.8620359  91.2382026  77.6436005
 132.5587816  90.7656320  76.3853868 134.6736127  85.7444128  82.0305915
 134.0200539  85.4293145  81.4062530 134.6316601  85.1219868  82.7565738
 135.7847332  96.0263423  73.9459207 134.8774394  95.7952676  74.1450356
 136.2818364  95.2301042  74.1333188 138.6915411 104.7360930  76.8655893
 138.0177110 105.0392627  77.4740851 139.0781233 105.5390010  76.5161350
 137.9073867  92.2326061  86.3553562 136.9896429  92.4541008  86.1975251
 138.3234011  92.3072372  85.4965270 138.6908915  93.6317477  81.4856243
 139.4380734  94.1438874  81.1763365 138.9600505  93.3101530  82.3460636
 136.9635565  96.1276018  78.4683197 136.0546785  95.8435051  78.5655667
 136.9930649  96.5475096  77.6086504 142.1954833  99.7382607  82.2374365
 141.7417160  98.8973517  82.2939555 141.5648799 100.3744006  82.5749145
 141.1387752  90.6674593  83.4675032 140.4010509  90.1551979  83.7985275
 141.3914526  90.2274975  82.6558309 140.6387772 101.5759104  83.1724183
 140.9310746 102.1364161  82.4536548 141.1486393 101.8687665  83.9277342
 141.2399380  83.4450845  84.0616801 141.5458256  82.5848209  83.7742716
 141.9651984  84.0368465  83.8615795 127.5323736  93.8481532  82.4498399
 127.3348136  93.2550893  81.7249466 126.9770400  93.5433742  83.1674338
 135.5120459  93.7404638  84.5692992 135.5669069  92.7878475  84.4935469
 134.7011661  93.8964077  85.0534291 136.6611653  97.6684761  75.8071276
 136.2231083  96.9520620  75.3476913 137.4022094  97.8960876  75.2456367
 133.4512819  92.3581698  82.3283371 132.6380685  92.6575869  82.7348563
 133.9471813  91.9637387  83.0457853 135.6021397 102.3539455  84.2617636
 135.5597576 102.5800301  83.3326168 136.5184096 102.1202830  84.4103437
 139.0487031  92.8223523  91.1598265 139.4036419  93.0494996  92.0192731
 139.6959162  93.1541899  90.5375520 132.9426894  89.9300054  87.9444606
 133.5826273  89.7888813  87.2467570 132.1104425  89.6434567  87.5683208
 133.7187198  99.2302484  84.0579599 134.5127796  98.7352804  83.8562174
 133.0078890  98.7020347  83.6947304 138.5382042 101.6120580  88.4091966
 138.5919065 102.1811516  89.1769682 137.6696824 101.7822465  88.0446003
 130.0269961  93.3745566  80.1339351 129.0967550  93.3130021  80.3509313
 130.1227433  92.8521519  79.3375993 129.9455510  89.9000379  82.7217593
 130.2062328  90.8145712  82.6126753 130.7672683  89.4324821  82.8714206
 131.4180436  91.3138136  89.8916418 132.0903489  91.1055498  89.2429066
 130.5910222  91.1160222  89.4521650 137.3206008  87.9400077  91.9082078
 136.6733923  88.6390026  91.8146555 138.0907023  88.3736221  92.2758327
 140.7284806  98.2048929  94.9832632 140.5770312  97.9759481  94.0662715
 140.7189485  99.1619530  94.9963977 137.4970142  95.7780842  89.9678898
 138.4262202  95.9292001  89.7947865 137.0761172  95.8664862  89.1127545
 136.2958474  99.8031506  87.7377436 136.1569560  99.4350290  88.6103374
 135.5073070 100.3179145  87.5661394 136.8906626 104.9040602  79.0802972
 137.0658382 104.4328646  79.8948595 136.2039414 105.5306369  79.3084233
 137.8463689  99.1813109  85.1266274 137.5113522  99.1413879  86.0223923
 137.3467635  98.5157825  84.6536684 131.8207933  94.5880739  90.6518855
 131.6827731  93.8560978  91.2530394 132.7312857  94.4989639  90.3703042
 140.7822881  96.5269143  75.4003333 140.1652051  95.8015971  75.3036386
 140.3139369  97.2878503  75.0570407 134.4490234  94.3000698  90.1402534
 135.1589852  93.6593890  90.0989153 134.4059542  94.5513593  91.0628715
 142.4377012 101.2368051  93.0609114 142.3789559 100.5527272  92.3939697
 142.8396531 101.9787041  92.6089740 133.1619168  91.2865916  91.9598174
 132.6256525  90.8356654  92.6119770 132.5735876  91.4211825  91.2168638
 131.4567711 108.0529965  85.8542832 131.6964309 108.6848489  86.5321851
 130.6136908 107.7018005  86.1408192 132.5721427  90.7454567  74.5224637
 131.6950893  90.6243368  74.1586884 133.0479180  89.9540646  74.2703526
 142.4394420  99.2007635  91.2923093 141.5521198  98.8633557  91.4149492
 143.0092971  98.4690667  91.5291859 124.0923567  95.5331727  84.6166145
 124.7794607  95.2193457  84.0287160 123.9371695  96.4373092  84.3433396
 128.8958289  90.4221924  89.0451168 128.8116478  89.8147593  88.3101578
 128.0740995  90.9130942  89.0460665 135.9695573 103.8609088  88.2584336
 135.8965745 104.6664059  88.7703641 135.5272966 104.0601053  87.4332358
 135.7585353 103.0980858  81.7687158 134.9752875 103.6402538  81.8625382
 136.4578098 103.6154837  82.1681399 139.0682003  88.9075487  84.4121363
 139.5650702  88.1545449  84.0922434 138.2968984  88.9439804  83.8464573
 138.4294257 103.7595922  90.4142495 139.1422229 104.3943387  90.3418397
 137.9384285 103.8559788  89.5982497 140.1511783  97.6647174  81.9859787
 139.2168062  97.7848637  81.8164491 140.3288452  96.7619641  81.7219797
 135.6516972  91.0492870  84.1393048 135.2814759  90.4963911  84.8273954
 136.1476064  90.4451004  83.5868048 133.4806170 101.5090365  91.2348066
 134.1815630 102.1426848  91.3877460 133.0101285 101.8505097  90.4743705
 141.6060566  99.8508315  79.5195973 141.8820410  99.7364910  80.4289847
 140.7365065  99.4525800  79.4808146 141.5100998  85.8745081  86.5600722
 140.5964077  86.1049307  86.7282929 141.9394099  85.9583525  87.4114755
 141.2807456  94.0634973  89.0600616 140.6278906  94.3110880  88.4053069
 141.6587836  93.2499111  88.7263094 138.2414630 104.0994666  83.1628787
 138.4237024 103.2816322  83.6256539 139.0647616 104.3162358  82.7253677
 138.5756795 103.0262851  80.4243835 139.1044562 102.5155306  79.8113997
 138.8385015 102.7105381  81.2889368 137.3295029  94.8054784  95.5466653
 136.6535666  94.7048913  96.2169029 138.1522663  94.6493997  96.0102651
 129.0773888 101.0426720  88.1679169 129.6627325 100.2970408  88.3007073
 128.8798727 101.3530677  89.0515832 131.9312543 104.0777968  83.1841611
 131.2622919 104.5624095  82.7005651 131.7925413 104.3247188  84.0984990
 123.6691543  93.6132320  86.8883612 123.7075642  93.0795911  87.6820730
 123.1631836  93.0867526  86.2694589 136.0717812 106.1121711  89.7824269
 136.6236120 106.2753333  90.5473355 136.4124005 106.7026149  89.1104294
 131.0482305  88.4596861  90.3846154 131.1123632  89.3211692  89.9723552
 130.9849425  87.8470863  89.6518513 130.5234578  90.5319993  94.0319188
 131.1506617  90.1497071  94.6456713 129.6662497  90.3134195  94.3974881
 140.9228686 100.9382969  95.6372924 141.4668590 101.5512927  95.1427879
 140.3415531 101.4962547  96.1539937 127.3000120  92.3396423  79.9637543
 127.5953562  91.4307101  79.9104597 126.3988156  92.3184162  79.6418545
 139.2086199 104.0603687  86.7687952 139.0837339 103.2593426  86.2598897
 139.8665290 104.5549880  86.2801921 130.8294367  90.4152419  85.9465092
 130.1080953  91.0288387  85.8072565 131.6187623  90.9510184  85.8681738
 141.2721108 101.8612707  88.3967502 140.3251443 101.7418058  88.3245828
 141.6203881 100.9735205  88.4793763 133.6320681  87.7506846  92.2205743
 134.1555083  87.9969142  92.9832053 133.4133014  88.5826880  91.8008881
 129.0287962  90.0210520  80.0876868 128.7000668  89.1407899  79.9051974
 129.3827333  89.9658189  80.9753258 138.2767541 101.6565423  84.5971854
 138.1292503 100.7282130  84.7779424 139.1021034 101.6785514  84.1128929
 132.1429785  90.3083490  80.4552346 132.4825858  90.8369411  79.7330954
 132.5901906  90.6463896  81.2310912 141.8801663 102.4793982  85.6836727
 142.8048210 102.2736843  85.5461178 141.7116966 102.2310383  86.5926068
 134.8373226  88.6920541  89.9055414 134.4970046  87.8928354  90.3076094
 134.1312232  88.9922252  89.3332247 135.4889698  85.7769853  88.3582737
 136.3115767  85.3030331  88.2361627 135.7327761  86.5560337  88.8581423
 134.1297932  88.8058112  78.6545639 134.8506295  89.1839364  78.1509356
 133.5063236  89.5246988  78.7580617 138.2729055  89.5103261  79.5903971
 138.4892670  90.3927898  79.2892799 137.7923122  89.1189474  78.8609613
 133.0128277  92.4688974  86.1674716 132.8672857  92.7829277  87.0598997
 132.5353480  93.0873874  85.6145614 134.8724660  89.4591522  86.2155605
 134.8586228  88.5632615  85.8787903 135.5897088  89.4662186  86.8493891
 136.7250790  89.8928862  88.2608733 136.4668568  90.8145933  88.2593063
 136.1935831  89.4959297  88.9509197 141.6696979 102.9979649  81.0398818
 141.8433857 102.4326072  80.2872670 142.1625870 103.7980544  80.8578308
 127.4873939  95.0094318  89.1062377 126.9427407  95.7854126  89.2382651
 128.3653289  95.3565123  88.9481498 134.2761555  88.3405902  81.4843175
 134.3977467  87.4122548  81.6834063 133.9863598  88.3544588  80.5721491
 137.1452746  86.0260813  84.6209895 137.1674443  86.0900146  83.6661875
 137.5620805  85.1865321  84.8150401 142.6572151 102.3146414  78.1395716
 143.3523056 102.9353106  78.3583031 142.9995302 101.4641765  78.4148094
 128.2739961  94.1364214  91.9992534 127.5321697  94.2846850  92.5857164
 127.9532705  94.3972480  91.1359283 136.2183623 103.6780193  91.7972924
 136.5270750 103.4329339  92.6695623 137.0159105 103.8826831  91.3091794
 136.2404235 105.8318102  84.0278300 135.8009226 105.3394481  84.7211157
 136.9912352 105.2891070  83.7870375 128.7196574 102.0229643  84.0302928
 129.5454594 101.7233415  83.6501572 128.3690626 101.2537266  84.4792717
 133.6878108 101.3756111  86.1000602 133.0658117 100.7126816  85.8002830
 134.3582974 101.4017243  85.4174250 126.9205179  99.9415970  84.9891862
 126.0837088  99.5138144  84.8075863 126.8928825 100.1348413  85.9262653
 133.7602635  89.8537899  95.6933108 133.8090790  90.7300022  95.3110878
 134.3025149  89.3115293  95.1204751 133.2491614  99.9260035  79.5759062
 133.3979735 100.6095499  78.9225735 134.0558058  99.9065125  80.0908518
 141.6559118  93.2302417  93.6026280 142.5568981  93.0908882  93.3110278
 141.7307093  93.3956872  94.5424458 135.9901923  90.6069272  92.4479467
 135.1205233  90.9002838  92.1762055 136.2261404  91.1909717  93.1686730
 131.0044247  95.9525212  80.5820131 130.7590289  95.0487542  80.7800342
 131.1740162  95.9542363  79.6399609 138.6940957  86.8248889  89.9644887
 139.2122901  87.5609916  89.6391376 138.3396090  87.1312882  90.7991646
 130.2739895  91.6853570  78.0806293 129.5809140  91.7597925  77.4246329
 130.0291647  90.9213914  78.6027810 138.9453551  83.2449171  85.4845784
 139.2255305  82.5772360  86.1106210 139.7304158  83.4378267  84.9720447
 136.7487020 102.4208165  77.0470810 136.1760987 103.0398352  76.5941282
 137.3219814 102.9707527  77.5810732 140.8376789  88.7522389  89.4176760
 140.2426721  89.0327401  88.7223248 140.5526486  89.2416289  90.1893501
 139.9684280 102.7045315  78.1779392 140.9014953 102.6390877  78.3812268
 139.8807493 103.5401582  77.7193925 142.5972296 102.0211186  75.1383340
 142.5185928 101.6871049  76.0319098 143.4181963 102.5132954  75.1374812
 137.1333818  93.7568978  74.3886862 138.0792923  93.6275186  74.4575280
 136.7548063  93.0183640  74.8656291 137.0172511  97.8086724  95.8487519
 137.9375520  97.9865323  96.0427566 136.9822094  96.8642769  95.6967219
 135.3176736  91.6818954  74.3241748 134.4108191  91.3852067  74.4004461
 135.5952717  91.3848772  73.4576034 126.2354676  93.0025318  84.7740794
 125.9157460  92.1490626  84.4815168 125.6888104  93.2173896  85.5298761
 130.0134584  95.7187759  88.4910301 130.2320593  96.6504867  88.5098334
 130.4260357  95.3595733  89.2765104 136.9338801  86.2255844  80.4785989
 136.1239530  85.8802929  80.8541235 137.6223218  85.9163388  81.0673600
 138.8629350  85.3033891  82.1010286 139.4160388  85.7229344  82.7600309
 139.0999436  84.3769639  82.1433242 134.8862449  91.2920965  97.8813049
 134.7859176  92.2415321  97.8125141 134.6683991  90.9639203  97.0089120
 134.0875520  88.5405890  74.4653727 134.9494684  88.8660788  74.7249544
 134.2725864  87.7537385  73.9526793 126.1042936  96.6228229  86.7433916
 125.4106407  96.2082182  86.2303870 126.8515927  96.6648766  86.1467334
 142.2408157  87.4134416  81.6088950 141.6606826  88.0719220  81.2267002
 141.9744089  86.5911761  81.1976367 140.6911723  86.8139474  83.8110270
 141.1911501  86.9256008  83.0024589 141.3347331  86.5100527  84.4511079
 134.7493719  94.7218103  96.6978111 134.2660801  95.5218463  96.9042000
 134.8354658  94.7326048  95.7445555 128.0179678  96.5546483  84.6199930
 127.9950367  96.6534170  83.6681814 128.3280315  97.4011634  84.9417097
 130.6767056  98.6122638  88.7346545 131.6310310  98.5806580  88.6676476
 130.4779580  98.1513262  89.5496771 131.2666438  97.1823754  91.3017343
 132.0859327  97.6767833  91.3252180 131.5403246  96.2655722  91.2734910
 141.0233035  89.5734506  80.6645298 140.1358890  89.8584157  80.4465493
 141.4387024  89.4128270  79.8172575 129.0317285 104.1542258  85.7516743
 128.8971753 103.3942658  85.1854741 128.6149347 104.8783157  85.2845532
 140.1676248  99.3379181  74.7593318 140.8712098  99.5429184  75.3750974
 139.4438897  99.9055943  75.0242402 140.9974058  95.0889042  80.8795588
 140.9409260  95.5457594  80.0403221 141.5502401  94.3279727  80.7018431
 132.1886411 105.0511575  85.9635185 132.0718795 105.9957007  85.8613876
 131.3678857 104.7485136  86.3520985 142.0762946  99.7761710  76.8091778
 142.9108550  99.3442909  76.6269253 141.9147288  99.6043724  77.7368673
 141.7308838  96.2793824  78.1748117 141.6757642  96.1138095  77.2336562
 141.1054893  96.9869857  78.3310307 126.5201353  91.5161888  92.0009540
 127.1660216  91.0060842  92.4896765 126.3118504  92.2530570  92.5752965
 139.0454745  98.5842735  97.5001680 139.9145905  98.7583388  97.1388315
 138.5661496  99.4037152  97.3777410 135.0404963  85.7801933  77.7533436
 135.0283633  86.7243773  77.9101707 135.9328385  85.5972078  77.4592897
 133.2140925 105.7039836  89.1791114 134.1168172 105.7363447  89.4957609
 132.9878295 104.7740287  89.1937450 134.9694527 104.4570823  85.8401192
 134.0190158 104.4572685  85.7265565 135.2727013 103.7103558  85.3237227
 138.8557083  82.3744709  82.0079373 138.0889478  81.8203196  82.1536055
 139.2667788  82.4466578  82.8693524 130.8598844  88.6629505  96.0984554
 131.7230305  88.3066310  96.3087878 130.2864254  88.3243400  96.7859958
 143.3723743 112.0994266  82.8305370 142.8088608 112.0084203  82.0621658
 143.2576138 111.2794170  83.3107863 140.9188175 113.5945458  85.6689591
 141.7109466 113.2536282  85.2535890 141.1584825 113.7040433  86.5891744
 143.1266338 110.3205965  84.7760367 142.2016834 110.1882180  84.9838059
 143.3750751 111.1000185  85.2730310 140.4875149 109.9639239  85.6104156
 140.6167530 110.2173718  86.5243568 139.8072600 110.5566947  85.2908811
 139.4344574 107.4361252  85.6555199 138.6443628 107.6918780  85.1795309
 139.9255822 108.2509590  85.7607239 141.3859320 107.8005831  82.6138675
 140.5890483 107.9124525  83.1322171 141.1584912 108.1392483  81.7479566
 137.7182277 107.6891742  88.0870189 137.9690316 108.5738752  88.3527765
 138.2541826 107.5096344  87.3145281 140.3842402 113.5094080  81.0028095
 140.8966923 114.3037330  81.1533660 141.0365115 112.8120370  80.9361697
 142.1937287 116.6259836  83.0850848 142.3703915 117.5477801  82.8971832
 142.9894120 116.3118255  83.5145228 141.4789644 108.6724468  92.9613012
 141.3643159 107.7709725  93.2620111 140.6234161 108.9188165  92.6097828
 138.3491319 111.8382734  81.7787666 139.1866541 112.2479743  81.5621373
 138.5269587 110.8982176  81.7487860 138.3717490 109.1773450  82.4498399
 138.1741890 108.5842810  81.7249466 137.8164154 108.8725660  83.1674338
 140.8663716 108.7037483  80.1339351 139.9361304 108.6421939  80.3509313
 140.9621188 108.1813436  79.3375993 140.7849265 105.2292296  82.7217593
 141.0456082 106.1437629  82.6126753 141.6066437 104.7616739  82.8714206
 142.2574190 106.6430053  89.8916418 142.9297244 106.4347416  89.2429066
 141.4303977 106.4452139  89.4521650 134.9317321 110.8623645  84.6166145
 135.6188361 110.5485375  84.0287160 134.7765450 111.7665009  84.3433396
 139.7352043 105.7513841  89.0451168 139.6510232 105.1439511  88.3101578
 138.9134750 106.2422860  89.0460665 139.9167643 116.3718638  88.1679169
 140.5021079 115.6262326  88.3007073 139.7192481 116.6822595  89.0515832
 142.7706298 119.4069885  83.1841611 142.1016673 119.8916013  82.7005651
 142.6319168 119.6539106  84.0984990 134.5085297 108.9424238  86.8883612
 134.5469397 108.4087829  87.6820730 134.0025590 108.4159444  86.2694589
 141.8876060 103.7888779  90.3846154 141.9517386 104.6503610  89.9723552
 141.8243180 103.1762780  89.6518513 141.3628332 105.8611911  94.0319188
 141.9900371 105.4788988  94.6456713 140.5056251 105.6426113  94.3974881
 138.1393875 107.6688340  79.9637543 138.4347316 106.7599019  79.9104597
 137.2381911 107.6476080  79.6418545 141.6688122 105.7444337  85.9465092
 140.9474708 106.3580305  85.8072565 142.4581378 106.2802102  85.8681738
 139.8681717 105.3502438  80.0876868 139.5394423 104.4699817  79.9051974
 140.2221087 105.2950107  80.9753258 142.9823540 105.6375408  80.4552346
 143.3219612 106.1661329  79.7330954 143.4295660 105.9755814  81.2310912
 138.3267693 110.3386236  89.1062377 137.7821161 111.1146044  89.2382651
 139.2047043 110.6857040  88.9481498 139.1133715 109.4656132  91.9992534
 138.3715451 109.6138768  92.5857164 138.7926459 109.7264398  91.1359283
 139.5590329 117.3521561  84.0302928 140.3848349 117.0525333  83.6501572
 139.2084381 116.5829183  84.4792717 137.7598934 115.2707887  84.9891862
 136.9230842 114.8430062  84.8075863 137.7322579 115.4640331  85.9262653
 141.8438002 111.2817130  80.5820131 141.5984044 110.3779460  80.7800342
 142.0133916 111.2834281  79.6399609 141.1133649 107.0145488  78.0806293
 140.4202894 107.0889843  77.4246329 140.8685401 106.2505831  78.6027810
 137.0748430 108.3317235  84.7740794 136.7551215 107.4782544  84.4815168
 136.5281859 108.5465814  85.5298761 140.8528338 111.0479676  88.4910301
 141.0714348 111.9796784  88.5098334 141.2654112 110.6887651  89.2765104
 136.9436690 111.9520147  86.7433916 136.2500162 111.5374100  86.2303870
 137.6909681 111.9940683  86.1467334 138.8573433 111.8838401  84.6199930
 138.8344121 111.9826088  83.6681814 139.1674069 112.7303552  84.9417097
 141.5160811 113.9414556  88.7346545 142.4704064 113.9098498  88.6676476
 141.3173334 113.4805179  89.5496771 142.1060193 112.5115672  91.3017343
 142.9253082 113.0059750  91.3252180 142.3797001 111.5947640  91.2734910
 139.8711040 119.4834175  85.7516743 139.7365508 118.7234576  85.1854741
 139.4543102 120.2075075  85.2845532 143.0280166 120.3803492  85.9635185
 142.9112550 121.3248925  85.8613876 142.2072612 120.0777054  86.3520985
 137.3595107 106.8453806  92.0009540 138.0053971 106.3352760  92.4896765
 137.1512258 107.5822487  92.5752965 141.6992598 103.9921423  96.0984554
 142.5624060 103.6358228  96.3087878 141.1258009 103.6535318  96.7859958
  75.8825649  -1.3743926  72.3934898  76.6746941  -1.7153101  71.9781197
  76.1222299  -1.2648951  73.3137051  83.9160776   0.7975850  64.8665142
  83.2648755   1.3829931  64.4799156  84.7105138   1.3282045  64.9260180
  79.6801445  -0.7858630  78.4719176  79.3891311   0.1187000  78.3565842
  80.3158430  -0.7442103  79.1863245  79.6212110   5.6647105  68.4339937
  79.5436140   6.6154931  68.5128418  79.0173754   5.3192978  69.0914863
  81.8950479   1.0229258  67.1545477  81.7596154   1.8680794  67.5830325
  82.4360292   1.2248536  66.3911411  75.3479877  -1.4595304  67.7273402
  75.8604397  -0.6652053  67.8778967  76.0002589  -2.1569013  67.6607003
  77.1574761   1.6570453  69.8096155  77.3341390   2.5788417  69.6217139
  77.9531595   1.3428872  70.2390535  83.5218956   1.6452825  81.2845819
  83.0782810   0.8589203  80.9666723  84.1836169   1.8331975  80.6189710
  78.2806077   3.1748626  75.8106497  78.8313502   3.0465690  75.0383491
  77.4417553   3.4743516  75.4601390  85.6200194   1.9255625  79.3127220
  85.6018669   2.7464506  78.8207489  86.5420114   1.8009700  79.5377361
  84.4946640   5.0963464  63.5901200  83.8208338   5.3995161  64.1986158
  84.8812462   5.8992545  63.2406657  86.4419001   1.9361638  69.8969489
  86.7341975   2.4966695  69.1781855  86.9517621   2.2290199  70.6522648
  81.4052626   2.7141989  70.9862943  81.3628805   2.9402836  70.0571475
  82.3215325   2.4805364  71.1348744  84.3413271   1.9723114  75.1337273
  84.3950293   2.5414050  75.9014989  83.4728053   2.1424999  74.7691310
  82.0989703   0.1634040  74.4622742  81.9600788  -0.2047175  75.3348680
  81.3104299   0.6781680  74.2906700  82.6937855   5.2643137  65.8048279
  82.8689610   4.7931180  66.6193902  82.0070643   5.8908903  66.0329540
  77.2598940   8.4132499  72.5788139  77.4995538   9.0451024  73.2567158
  76.4168136   8.0620539  72.8653498  81.7726802   4.2211622  74.9829643
  81.6996973   5.0266593  75.4948948  81.3304195   4.4203588  74.1577664
  81.5616581   3.4583392  68.4932465  80.7784103   4.0005072  68.5870689
  82.2609327   3.9757372  68.8926706  84.2325485   4.1198456  77.1387802
  84.9453458   4.7545921  77.0663703  83.7415514   4.2162322  76.3227804
  79.2837399   1.8692899  77.9593373  79.9846858   2.5029382  78.1122767
  78.8132514   2.2107631  77.1989012  84.0445859   4.4597200  69.8874093
  84.2268253   3.6418856  70.3501846  84.8678845   4.6764892  69.4498983
  84.3788024   3.3865385  67.1489142  84.9075791   2.8757840  66.5359304
  84.6416244   3.0707915  68.0134675  74.8805117   1.4029254  74.8924475
  75.4658554   0.6572942  75.0252379  74.6829955   1.7133211  75.7761139
  77.7343772   4.4380502  69.9086918  77.0654147   4.9226629  69.4250958
  77.5956642   4.6849722  70.8230296  81.8749041   6.4724245  76.5069576
  82.4267349   6.6355867  77.2718661  82.2155234   7.0628683  75.8349601
  85.0117428   4.4206221  73.4933258  84.8868568   3.6195961  72.9844204
  85.6696519   4.9152414  73.0047228  84.0798770   2.0167957  71.3217160
  83.9323732   1.0884665  71.5024730  84.9052263   2.0388048  70.8374236
  87.6832892   2.8396516  72.4082033  88.6079439   2.6339377  72.2706484
  87.5148195   2.5912917  73.3171375  87.4728208   3.3582183  67.7644125
  87.6465085   2.7928606  67.0117977  87.9657099   4.1583078  67.5823615
  82.0214852   4.0382727  78.5218230  82.3301979   3.7931874  79.3940930
  82.8190334   4.2429365  78.0337101  82.0435464   6.1920637  70.7523607
  81.6040454   5.6997015  71.4456464  82.7943581   5.6493604  70.5115682
  74.5227803   2.3832177  70.7548235  75.3485823   2.0835949  70.3746878
  74.1721855   1.6139800  71.2038024  79.4909336   1.7358646  72.8245909
  78.8689346   1.0729351  72.5248136  80.1614203   1.7619778  72.1419556
  72.7236408   0.3018504  71.7137169  71.8868316  -0.1259322  71.5321170
  72.6960054   0.4950947  72.6507960  79.0522843   0.2862569  66.3004369
  79.2010964   0.9698033  65.6471042  79.8589287   0.2667659  66.8153825
  82.5518249   2.7810699  63.7716117  81.9792216   3.4000887  63.3186588
  83.1251042   3.3310061  64.3056038  85.7715509   3.0647850  64.9024699
  86.7046182   2.9993411  65.1057574  85.6838721   3.9004116  64.4439231
  88.4003525   2.3813720  61.8628646  88.3217157   2.0473584  62.7564404
  89.2213192   2.8735488  61.8620119  71.9074165  -3.0169237  73.4679222
  71.2137636  -3.4315284  72.9549177  72.6547156  -2.9748700  72.8712641
  73.8210907  -3.0850983  71.3445237  73.7981595  -2.9863295  70.3927120
  74.1311544  -2.2385832  71.6662403  76.4798285  -1.0274828  75.4591852
  77.4341539  -1.0590885  75.3921783  76.2810809  -1.4884204  76.2742077
  74.8348514   4.5144792  72.4762049  74.7002982   3.7545193  71.9100047
  74.4180576   5.2385692  72.0090838  77.9917640   5.4114109  72.6880492
  77.8750024   6.3559541  72.5859182  77.1710086   5.1087670  73.0766291
  79.0172154   6.0642371  75.9036420  79.9199401   6.0965981  76.2202915
  78.7909524   5.1342822  75.9182756  80.7725756   4.8173357  72.5646499
  79.8221387   4.8175219  72.4510871  81.0758242   4.0706092  72.0482534
  96.5078449  10.6533896  73.6292261  97.1456859  10.5340643  72.9255602
  96.3899292  11.6014740  73.6880214  93.3168156  10.6061324  73.5653786
  92.9786667  10.4902388  72.6774321  94.1857924  10.2052489  73.5454792
  89.1754971  12.4596800  69.5550677  88.6119837  12.3686737  68.7866965
  89.0607366  11.6396705  70.0353170  93.7987939  11.7596175  79.5239992
  93.7876580  11.3648974  78.6520495  93.9608578  11.0262248  80.1173763
  86.7219403  13.9547992  72.3934898  87.5140695  13.6138816  71.9781197
  86.9616054  14.0642967  73.3137051  94.7554530  16.1267768  64.8665142
  94.1042510  16.7121848  64.4799156  95.5498893  16.6573963  64.9260180
  88.6810157  13.2156905  65.2652276  89.4541033  12.6685892  65.1265152
  89.0335556  14.0801154  65.4766738  90.5195200  14.5433287  78.4719176
  90.2285066  15.4478918  78.3565842  91.1552184  14.5849815  79.1863245
  91.4451407  11.9210136  75.0620535  92.0414979  11.6966158  74.3477498
  91.5026378  11.1794881  75.6645983  91.0176435   9.3749571  62.8970726
  91.2701956   8.8531092  62.1354189  90.0800994   9.2115717  62.9997410
  96.0619718   8.3785349  70.7045470  96.8482807   7.9604773  70.3535887
  96.3258422   9.2831442  70.8727118  96.2329795  13.8158200  65.4034126
  95.5975628  13.8892826  66.1155031  95.9027202  14.4051799  64.7253206
 101.4628145   8.3160583  71.6078448 102.1953317   7.7459799  71.8416278
 100.7067501   7.9282183  72.0484954  90.7372724  11.2777677  65.0995101
  90.6208982  10.6022580  65.7676186  90.8474984  10.7910051  64.2827254
  93.0804265  10.7387824  68.8041790  92.7162472  10.2118445  69.5154712
  93.9371381  10.3486293  68.6308276  92.7209752   5.7677724  63.8003139
  92.8884154   6.6357960  64.1673610  92.5306921   5.9305006  62.8764428
  95.4785085  14.2294703  75.4668969  95.1785808  15.1319742  75.3584777
  95.1336144  13.9626886  76.3190122  88.9297566  10.6808500  71.5005674
  88.0048063  10.5484714  71.7083366  89.1781980  11.4602719  71.9975616
  98.8782229   6.7477243  73.1466407  97.9699106   6.6792651  72.8525168
  98.8269825   7.2249188  73.9748232  92.6998973   8.2235381  64.7849806
  92.5798598   8.6692432  65.6235286  92.0051561   8.5720699  64.2263344
  86.2906377  10.3241773  72.3349463  86.4198759  10.5776252  73.2488875
  85.6103829  10.9169481  72.0154118  92.9523095   8.1666889  81.0901304
  92.1756429   8.7260809  81.0804169  93.5913658   8.6523672  81.6116174
  98.3984039   8.6956855  65.6130140  99.3101895   8.9284241  65.4377837
  97.8893686   9.2793899  65.0505218  91.2069467  10.9752342  80.6519271
  91.9484151  11.5137386  80.3754095  90.5006452  11.6018631  80.8090823
  96.6824806  13.1181482  79.2491432  97.0908163  12.6763893  78.5046065
  95.9602068  12.5434110  79.5025625  93.0355877   8.0554089  76.6224989
  93.8817072   8.4793503  76.7659638  92.9754514   7.3987713  77.3163553
  97.0053621  13.6782673  73.0043721  96.3762484  13.8428387  72.3019789
  96.6179283  14.0924283  73.7754685 100.8842853  14.6137111  70.3588085
 100.1993891  14.9936012  69.8085118 100.9686702  15.2232437  71.0920033
  96.1855322   5.7158457  78.2806163  95.9416254   6.4700518  77.7440439
  96.4615252   6.0943805  79.1153410  98.1393785  12.2597070  76.9583429
  98.3510680  12.9028830  76.2817810  98.0923533  11.4259386  76.4905359
  95.7420014   4.8714891  73.8620001  94.8804493   5.1696144  74.1536738
  95.7682448   5.0885289  72.9301033  92.5581583  13.4157081  70.2693806
  93.0219929  13.6944784  69.4798429  92.2938381  12.5140526  70.0866897
  89.4505664  12.9628563  73.2073570  90.0207021  13.3915831  72.5691054
  90.0413776  12.6811147  73.9057755  91.4950469   9.5380233  67.0783372
  92.1974512   9.9901277  67.5457298  91.1631098   8.8964052  67.7063265
  89.9430831   8.1291990  81.4534581  89.3129491   8.8108271  81.6869978
  89.8366918   8.0175072  80.5087719  85.2375803   7.7963786  72.3800505
  84.4474857   8.0521315  71.9040616  85.7287050   8.6112124  72.4852546
  99.2539613  15.1369025  75.1305786 100.0757056  14.7349213  74.8488468
  99.2502015  15.0337259  76.0821902  87.1890548   8.1608365  69.3383982
  86.3921712   8.2727060  69.8567478  86.9616141   8.4995018  68.4724872
  93.0196216  14.6853069  77.2866496  93.0840649  15.1473476  78.1224668
  92.3107140  14.0550434  77.4148806  83.5213506   8.0494277  74.8115496
  83.7721544   8.9341286  75.0773072  84.0573054   7.8698878  74.0390588
 107.3445606  11.4807774  71.4790757 106.5909314  10.9115172  71.3234762
 107.4793147  11.4470438  72.4261392  92.7344234  16.3521176  67.1545477
  92.5989908  17.1972712  67.5830325  93.2754046  16.5540454  66.3911411
  86.1873631  13.8696614  67.7273402  86.6998152  14.6639864  67.8778967
  86.8396344  13.1722905  67.6607003  87.2820872   9.0327002  79.6858318
  87.1674387   8.1312260  79.9865417  86.4265390   9.2790699  79.3343135
  94.3612710  16.9744743  81.2845819  93.9176564  16.1881121  80.9666723
  95.0229924  17.1623893  80.6189710  89.1199831  18.5040544  75.8106497
  89.6707256  18.3757608  75.0383491  88.2811307  18.8035433  75.4601390
  96.4593948  17.2547543  79.3127220  96.4412423  18.0756424  78.8207489
  97.3813868  17.1301618  79.5377361  92.9167002  14.7691672  80.1550729
  93.4495339  14.0079960  79.9250036  92.3881083  14.4765324  80.8974883
  84.1522548  12.1985268  68.5032972  84.9897770  12.6082277  68.2866680
  84.3300816  11.2584711  68.4733166  96.0486980   9.8660349  64.1916805
  95.5333603  10.6364954  64.4305193  95.7764288   9.1925485  64.8149867
  93.6334091   4.7110050  69.2502044  92.7775687   4.3216900  69.0707682
  94.0461043   4.7902011  68.3901829 101.0221254  12.6192704  66.1269979
 100.2450697  12.2803863  65.6825141 101.7012735  12.6245327  65.4524944
  95.8373283   7.7387441  66.0176587  95.5323419   8.0533590  66.8686730
  96.7903725   7.8168861  66.0603920  94.2819715  13.8977664  67.6669541
  93.7541077  13.1630424  67.3542778  93.7807218  14.6752341  67.4209509
  99.2612561  12.0926685  72.7836587  98.6036235  12.7825946  72.8716715
 100.0652960  12.4823117  73.1270573  89.0138443   4.5597331  70.0276152
  89.5882195   4.3372512  69.2949345  89.6009425   4.6286025  70.7804753
  98.0718020  10.4471058  70.8340529  98.5849902  11.0801049  71.3362238
  98.7219244   9.8472253  70.4683889  89.3408030   6.5901792  64.0472037
  88.5045342   6.9276478  64.3681312  89.2012799   6.4550772  63.1099174
  92.4272315  11.7157875  60.6704514  91.5199377  11.4847128  60.8695663
  92.9243347  10.9195494  60.8578495  94.5498851   7.9220513  73.0798869
  93.6321412   8.1435460  72.9220557  94.9658994   7.9966824  72.2210576
  95.3333898   9.3211929  68.2101549  96.0805717   9.8333326  67.9008671
  95.6025488   8.9995982  69.0705943  93.6060549  11.8170470  65.1928504
  92.6971768  11.5329502  65.2900973  93.6355632  12.2369548  64.3331811
  98.8379816  15.4277059  68.9619671  98.3842143  14.5867969  69.0184862
  98.2073783  16.0638457  69.2994451  97.7812736   6.3569045  70.1920339
  97.0435492   5.8446431  70.5230581  98.0339509   5.9169427  69.3803616
  97.2812755  17.2653556  69.8969489  97.5735730  17.8258613  69.1781855
  97.7911376  17.5582117  70.6522648  84.1748719   9.5375984  69.1743706
  83.9773119   8.9445344  68.4494772  83.6195383   9.2328194  69.8919645
  92.1545443   9.4299090  71.2938299  92.2094052   8.4772927  71.2180776
  91.3436645   9.5858529  71.7779597  93.3036636  13.3579213  62.5316582
  92.8656066  12.6415072  62.0722220  94.0447077  13.5855328  61.9701674
  90.0937803   8.0476150  69.0528678  89.2805668   8.3470321  69.4593870
  90.5896797   7.6531839  69.7703160  92.2446380  18.0433907  70.9862943
  92.2022559  18.2694753  70.0571475  93.1609079  17.8097281  71.1348744
  95.6912014   8.5117974  77.8843572  96.0461402   8.7389448  78.7438038
  96.3384145   8.8436351  77.2620827 101.4209751  11.6336410  68.5892901
 101.2827650  11.8238006  67.6614090 101.0645970  12.3955793  69.0460952
  89.5851877   5.6194505  74.6689913  90.2251257   5.4783265  73.9712876
  88.7529408   5.3329019  74.2928515 101.4479131  13.7012937  73.6004172
 101.8815637  13.6088226  74.4487226 102.1610712  13.6770438  72.9624188
  90.3612181  14.9196936  70.7824905  91.1552780  14.4247256  70.5807480
  89.6503874  14.3914799  70.4192611  95.1807026  17.3015031  75.1337273
  95.2344048  17.8705968  75.9014989  94.3121807  17.4716916  74.7691310
  86.6694945   9.0640018  66.8584658  85.7392533   9.0024473  67.0754620
  86.7652417   8.5415970  66.0621299  86.5880494   5.5894830  69.4462900
  86.8487311   6.5040164  69.3372060  87.4097666   5.1219273  69.5959512
  88.0605419   7.0032588  76.6161724  88.7328473   6.7949950  75.9674373
  87.2335206   6.8054674  76.1766956 102.3094680  13.7436638  76.1337058
 102.5030570  14.6482448  76.3796333 102.2095299  13.2844057  76.9675643
  97.3709789  13.8943381  81.7077938  97.2195295  13.6653932  80.7908022
  97.3614469  14.8513982  81.7209283  94.1395125  11.4675293  76.6924205
  95.0687185  11.6186453  76.5193172  93.7186155  11.5559314  75.8372851
  92.9383457  15.4925958  74.4622742  92.7994543  15.1244742  75.3348680
  92.1498053  16.0073597  74.2906700  93.5331609  20.5935054  65.8048279
  93.7083365  20.1223098  66.6193902  92.8464397  21.2200821  66.0329540
  94.4888672  14.8707561  71.8511580  94.1538505  14.8308331  72.7469230
  93.9892618  14.2052276  71.3781990  88.4632916  10.2775191  77.3764161
  88.3252714   9.5455429  77.9775700  89.3737840  10.1884091  77.0948349
  97.4247864  12.2163595  62.1248640  96.8077035  11.4910423  62.0281692
  96.9564352  12.9772955  61.7815714  91.0915217   9.9895150  76.8647841
  91.8014836   9.3488342  76.8234459  91.0484525  10.2408045  77.7874022
  99.0801996  16.9262503  79.7854420  99.0214542  16.2421723  79.1185003
  99.4821514  17.6681493  79.3335046  89.8044151   6.9760368  78.6843480
  89.2681508   6.5251106  79.3365077  89.2160859   7.1106277  77.9413945
  88.0992694  23.7424417  72.5788139  88.3389293  24.3742941  73.2567158
  87.2561891  23.3912457  72.8653498  89.2146410   6.4349019  61.2469944
  88.3375876   6.3137820  60.8832191  89.6904163   5.6435098  60.9948833
  99.0819403  14.8902087  78.0168400  98.1946182  14.5528009  78.1394799
  99.6517954  14.1585118  78.2537165  80.7348550  11.2226179  71.3411451
  81.4219590  10.9087909  70.7532467  80.5796679  12.1267544  71.0678703
  85.5383272   6.1116376  75.7696475  85.4541461   5.5042045  75.0346885
  84.7165979   6.6025394  75.7705971  92.6120556  19.5503540  74.9829643
  92.5390728  20.3558511  75.4948948  92.1697949  19.7495505  74.1577664
  92.4010336  18.7875310  68.4932465  91.6177858  19.3296990  68.5870689
  93.1003081  19.3049289  68.8926706 103.5636743  10.3010305  72.7784961
 103.5526620  11.1835020  72.4078895 102.6954123   9.9481855  72.5839499
  95.0719240  19.4490374  77.1387802  95.7847212  20.0837838  77.0663703
  94.5809269  19.5454240  76.3227804  96.7936767  13.3541626  68.7105093
  95.8593046  13.4743089  68.5409798  96.9713435  12.4514093  68.4465103
  92.2941955   6.7387322  70.8638355  91.9239742   6.1858362  71.5519260
  92.7901047   6.1345456  70.3113355 100.1809318   9.1958946  69.2455128
 100.6469770  10.0286937  69.1715430 100.6316819   8.7303927  69.9500386
  90.1231153  17.1984817  77.9593373  90.8240613  17.8321300  78.1122767
  89.6526268  17.5399549  77.1989012  98.2485549  15.5402767  66.2441280
  98.5245393  15.4259361  67.1535154  97.3790048  15.1420252  66.2053453
  97.9232439   9.7529425  75.7845923  97.2703890  10.0005332  75.1298376
  98.3012819   8.9393563  75.4508400  94.8839613  19.7889118  69.8874093
  95.0662008  18.9710774  70.3501846  95.7072599  20.0056810  69.4498983
  95.2181779  18.7157303  67.1489142  95.7469545  18.2049757  66.5359304
  95.4809998  18.3999833  68.0134675  93.9720012  10.4949236  82.2711960
  93.2960649  10.3943365  82.9414335  94.7947646  10.3388449  82.7347957
  85.7198871  16.7321172  74.8924475  86.3052308  15.9864860  75.0252379
  85.5223710  17.0425129  75.7761139  80.3116526   9.3026772  73.6128918
  80.3500626   8.7690363  74.4066036  79.8056819   8.7761978  72.9939896
  92.7142795  21.8016163  76.5069576  93.2661103  21.9647785  77.2718661
  93.0548989  22.3920601  75.8349601  87.6907288   4.1491313  77.1091461
  87.7548615   5.0106144  76.6968858  87.6274409   3.5365314  76.3763819
  87.1659561   6.2214445  80.7564495  87.7931600   5.8391523  81.3702019
  86.3087480   6.0028647  81.1220187  97.5653670  16.6277421  82.3618230
  98.1093574  17.2407379  81.8673185  96.9840514  17.1856999  82.8785243
  83.9425104   8.0290874  66.6882850  84.2378545   7.1201553  66.6349903
  83.0413140   8.0078614  66.3663852  95.8511183  19.7498139  73.4933258
  95.7262322  18.9487878  72.9844204  96.5090274  20.2444332  73.0047228
  87.4719351   6.1046871  72.6710398  86.7505937   6.7182839  72.5317872
  88.2612607   6.6404636  72.5927044  97.9146091  17.5507159  75.1212808
  96.9676426  17.4312510  75.0491135  98.2628864  16.6629657  75.2039070
  90.2745664   3.4401298  78.9451050  90.7980066   3.6863594  79.7077359
  90.0557998   4.2721332  78.5254187  85.6712945   5.7104972  66.8122175
  85.3425652   4.8302351  66.6297281  86.0252316   5.6552641  67.6998564
  94.9192524  17.3459875  71.3217160  94.7717487  16.4176582  71.5024730
  95.7446018  17.3679966  70.8374236  88.7854769   5.9977942  67.1797653
  89.1250841   6.5263863  66.4576261  89.2326889   6.3358348  67.9556219
  98.5226646  18.1688434  72.4082033  99.4473194  17.9631295  72.2706484
  98.3541949  17.9204835  73.3171375  91.4798209   4.3814993  76.6300721
  91.1395030   3.5822806  77.0321401  90.7737216   4.6816703  76.0577554
  90.7722916   4.4952564  65.3790945  91.4931278   4.8733816  64.8754662
  90.1488220   5.2141440  65.4825923  94.9154039   5.1997712  66.3149278
  95.1317653   6.0822350  66.0138106  94.4348106   4.8083926  65.5854920
  89.6553260   8.1583426  72.8920022  89.5097841   8.4723729  73.7844304
  89.1778464   8.7768326  72.3390921  91.5149643   5.1485974  72.9400912
  91.5011212   4.2527067  72.6033210  92.2322071   5.1556637  73.5739198
  93.3675774   5.5823314  74.9854039  93.1093551   6.5040385  74.9838370
  92.8360814   5.1853748  75.6754503  98.3121962  18.6874101  67.7644125
  98.4858840  18.1220524  67.0117977  98.8050854  19.4874996  67.5823615
  84.1298922  10.6988770  75.8307683  83.5852390  11.4748578  75.9627958
  85.0078272  11.0459575  75.6726805  90.9186539   4.0300354  68.2088482
  91.0402450   3.1017000  68.4079369  90.6288581   4.0439040  67.2966797
 104.1661353  11.4510524  69.3834424 104.6092499  10.7017849  68.9853548
 103.2887864  11.4420660  69.0008156  99.2997135  18.0040865  64.8641023
  99.9948039  18.6247558  65.0828338  99.6420285  17.1536217  65.1393401
  84.9164944   9.8258666  78.7237840  84.1746680   9.9741302  79.3102471
  84.5957688  10.0866932  77.8604590 101.1988558  15.4540571  66.3928354
 101.7239882  15.7927844  65.6677674 101.1110910  14.5187586  66.2091488
  92.8608607  19.3674645  78.5218230  93.1695733  19.1223791  79.3940930
  93.6584089  19.5721283  78.0337101  92.8829219  21.5212554  70.7523607
  92.4434209  21.0288933  71.4456464  93.6337336  20.9785522  70.5115682
  90.3303091  17.0650563  72.8245909  89.7083100  16.4021268  72.5248136
  91.0007958  17.0911695  72.1419556  83.5630163  15.6310422  71.7137169
  82.7262071  15.2032596  71.5321170  83.5353808  15.8242865  72.6507960
  90.4027618   5.5432351  82.4178415  90.4515774   6.4194474  82.0356184
  90.9450132   5.0009744  81.8450058 100.8882464  16.0873475  81.6979552
 100.0978008  16.0697613  81.1584051 100.6515819  16.6261768  82.4528588
 101.0080339  12.9365941  79.0112280 101.0578344  12.7715948  79.9527803
 100.8994262  12.0693200  78.6210161  89.8916598  15.6154487  66.3004369
  90.0404718  16.2989951  65.6471042  90.6983041  15.5959577  66.8153825
  98.2984101   8.9196869  80.3271587  99.1993964   8.7803334  80.0355585
  98.3732076   9.0851324  81.2669764  92.6326907   6.2963724  79.1724773
  91.7630216   6.5897290  78.9007362  92.8686387   6.8804169  79.8932037
 102.5098536  15.3562882  79.2554302 102.2183344  15.7192863  80.0917763
 101.8970667  14.6429891  79.0767634 103.7094218  12.9215762  71.7756872
 104.5441110  13.3605566  71.9394432 103.8453347  12.4454415  70.9565118
 100.7585724  10.4795497  77.7234360 101.2339846  10.6723143  76.9153211
  99.8351289  10.5354683  77.4777743  87.6469231  11.6419664  67.3065438
  87.4015273  10.7381994  67.5045648  87.8165145  11.6436815  66.3644916
  86.9164878   7.3748022  64.8051599  86.2234123   7.4492377  64.1491635
  86.6716630   6.6108366  65.3273116  93.3912003  18.1102617  63.7716117
  92.8185970  18.7292804  63.3186588  93.9644797  18.6601979  64.3056038
  99.4587393   7.3561257  75.9562665 100.4104816   7.4559355  75.9774889
  99.2890843   6.5639526  76.4660750  96.6109263  18.3939767  64.9024699
  97.5439936  18.3285329  65.1057574  96.5232476  19.2296034  64.4439231
  99.2397280  17.7105638  61.8628646  99.1610911  17.3765501  62.7564404
 100.0606946  18.2027405  61.8620119 101.9375471  10.5767377  75.0704965
 101.9051791   9.6383378  75.2564649 102.5476095  10.6551414  74.3370790
  93.7758802   9.4463430  61.1132169  94.7217906   9.3169638  61.1820587
  93.3973047   8.7078092  61.5901597 107.7552021  11.6383384  74.2111002
 108.4855409  11.3768672  74.7718705 107.1458966  10.9012106  74.2513070
 105.8367318   9.7791246  74.8085453 105.1100481   9.6447211  74.2001945
 105.4214605  10.0868075  75.6142171  93.6597494  13.4981176  82.5732826
  94.5800504  13.6759775  82.7672873  93.6247077  12.5537221  82.4212525
  91.9601719   7.3713406  61.0487054  91.0533174   7.0746519  61.1249768
  92.2377700   7.0743224  60.1821340  82.8779659   8.6919770  71.4986101
  82.5582444   7.8385078  71.2060475  82.3313087   8.9068348  72.2544068
  86.6559567  11.4082211  75.2155607  86.8745577  12.3399318  75.2343641
  87.0685341  11.0490185  76.0010411  91.5287432   6.9815416  84.6058356
  91.4284159   7.9309773  84.5370447  91.3108974   6.6533655  83.7334426
  90.7300504   4.2300341  61.1899033  91.5919668   4.5555240  61.4494851
  90.9150848   3.4431837  60.6772099  82.7467919  12.3122681  73.4679222
  82.0531391  11.8976634  72.9549177  83.4940910  12.3543218  72.8712641
  91.3918702  10.4112555  83.4223418  90.9085784  11.2112915  83.6287307
  91.4779641  10.4220500  82.4690862  84.6604662  12.2440935  71.3445237
  84.6375350  12.3428622  70.3927120  84.9705298  13.0906086  71.6662403
  87.3192040  14.3017090  75.4591852  88.2735293  14.2701032  75.3921783
  87.1204563  13.8407714  76.2742077  87.9091422  12.8718206  78.0262649
  88.7284311  13.3662285  78.0497486  88.1828230  11.9550174  77.9980217
  96.8101231  15.0273633  61.4838625  97.5137082  15.2323635  62.0996280
  96.0863880  15.5950395  61.7487708  97.6399042  10.7783494  67.6040895
  97.5834243  11.2352046  66.7648527  98.1927384  10.0174179  67.4263738
 105.7616186   9.3069299  70.9362306 105.2015743   9.3762489  71.7093868
 105.1559689   9.1310284  70.2161802  98.7187929  15.4656162  63.5337085
  99.5533533  15.0337361  63.3514560  98.5572272  15.2938176  64.4613979
  98.3733821  11.9688275  64.8993424  98.3182625  11.8032547  63.9581868
  97.7479876  12.6764308  65.0555614  83.1626336   7.2056340  78.7254846
  83.8085200   6.6955294  79.2142071  82.9543487   7.9425022  79.2998272
  95.6879728  14.2737187  84.2246987  96.5570888  14.4477840  83.8633622
  95.2086480  15.0931604  84.1022716  89.8565908  21.3934288  75.9036420
  90.7593155  21.4257899  76.2202915  89.6303279  20.4634739  75.9182756
  91.6119510  20.1465275  72.5646499  90.6615141  20.1467137  72.4510871
  91.9151997  19.3998009  72.0482534  87.5023827   4.3523957  82.8229860
  88.3655289   3.9960762  83.0333185  86.9289238   4.0137852  83.5105265
 107.3472204  25.9825813  73.6292261 107.9850614  25.8632561  72.9255602
 107.2293047  26.9306657  73.6880214 104.1561910  25.9353241  73.5653786
 103.8180422  25.8194306  72.6774321 105.0251678  25.5344406  73.5454792
 100.0148726  27.7888718  69.5550677  99.4513591  27.6978655  68.7866965
  99.9001121  26.9688622  70.0353170 104.6381693  27.0888093  79.5239992
 104.6270334  26.6940891  78.6520495 104.8002333  26.3554166  80.1173763
  97.5613158  29.2839909  72.3934898  98.3534450  28.9430734  71.9781197
  97.8009808  29.3934884  73.3137051 105.5948285  31.4559686  64.8665142
 104.9436264  32.0413766  64.4799156 106.3892647  31.9865880  64.9260180
  99.5203912  28.5448823  65.2652276 100.2934788  27.9977810  65.1265152
  99.8729311  29.4093072  65.4766738 101.3588954  29.8725205  78.4719176
 101.0678820  30.7770836  78.3565842 101.9945939  29.9141733  79.1863245
 102.2845161  27.2502053  75.0620535 102.8808733  27.0258076  74.3477498
 102.3420133  26.5086799  75.6645983 101.8570190  24.7041489  62.8970726
 102.1095710  24.1823010  62.1354189 100.9194749  24.5407634  62.9997410
 106.9013472  23.7077267  70.7045470 107.6876562  23.2896690  70.3535887
 107.1652177  24.6123359  70.8727118 107.0723550  29.1450117  65.4034126
 106.4369383  29.2184744  66.1155031 106.7420956  29.7343716  64.7253206
 112.3021900  23.6452500  71.6078448 113.0347072  23.0751717  71.8416278
 111.5461255  23.2574101  72.0484954 101.5766478  26.6069595  65.0995101
 101.4602736  25.9314498  65.7676186 101.6868738  26.1201969  64.2827254
 103.9198019  26.0679742  68.8041790 103.5556227  25.5410363  69.5154712
 104.7765135  25.6778211  68.6308276 109.8247320  17.3574074  76.0673057
 109.4930645  18.2269485  75.8434272 109.2292933  17.0410358  76.7467087
 103.5603506  21.0969642  63.8003139 103.7277909  21.9649878  64.1673610
 103.3700675  21.2596923  62.8764428 106.3178839  29.5586620  75.4668969
 106.0179563  30.4611659  75.3584777 105.9729899  29.2918804  76.3190122
  99.7691321  26.0100417  71.5005674  98.8441817  25.8776631  71.7083366
 100.0175734  26.7894637  71.9975616 109.7175983  22.0769161  73.1466407
 108.8092861  22.0084569  72.8525168 109.6663579  22.5541106  73.9748232
 103.5392727  23.5527299  64.7849806 103.4192352  23.9984350  65.6235286
 102.8445316  23.9012617  64.2263344  97.1300132  25.6533691  72.3349463
  97.2592513  25.9068170  73.2488875  96.4497583  26.2461399  72.0154118
 101.2999619  36.3230941  68.4339937 101.2223649  37.2738766  68.5128418
 100.6961263  35.9776813  69.0914863 103.7916849  23.4958806  81.0901304
 103.0150183  24.0552726  81.0804169 104.4307412  23.9815589  81.6116174
 111.5837630  20.2785599  74.9244281 110.9412010  20.5718132  74.2784075
 111.0792558  20.1638519  75.7297477 109.2377793  24.0248772  65.6130140
 110.1495649  24.2576159  65.4377837 108.7287440  24.6085816  65.0505218
 102.0463221  26.3044260  80.6519271 102.7877906  26.8429304  80.3754095
 101.3400207  26.9310548  80.8090823 107.5218561  28.4473400  79.2491432
 107.9301917  28.0055811  78.5046065 106.7995822  27.8726028  79.5025625
 103.8749631  23.3846007  76.6224989 104.7210826  23.8085420  76.7659638
 103.8148269  22.7279631  77.3163553 107.8447376  29.0074591  73.0043721
 107.2156238  29.1720305  72.3019789 107.4573038  29.4216200  73.7754685
 111.7236608  29.9429029  70.3588085 111.0387646  30.3227930  69.8085118
 111.8080457  30.5524355  71.0920033 107.0249076  21.0450375  78.2806163
 106.7810008  21.7992436  77.7440439 107.3009007  21.4235723  79.1153410
 108.9787539  27.5888988  76.9583429 109.1904434  28.2320747  76.2817810
 108.9317287  26.7551304  76.4905359 106.5813768  20.2006808  73.8620001
 105.7198247  20.4988062  74.1536738 106.6076203  20.4177207  72.9301033
 103.3975337  28.7448999  70.2693806 103.8613683  29.0236702  69.4798429
 103.1332136  27.8432443  70.0866897 100.2899419  28.2920480  73.2073570
 100.8600776  28.7207749  72.5691054 100.8807530  28.0103065  73.9057755
 102.3344224  24.8672151  67.0783372 103.0368267  25.3193195  67.5457298
 102.0024852  24.2255970  67.7063265 100.7824585  23.4583908  81.4534581
 100.1523246  24.1400189  81.6869978 100.6760673  23.3466989  80.5087719
  96.0769558  23.1255704  72.3800505  95.2868611  23.3813232  71.9040616
  96.5680805  23.9404042  72.4852546 110.0933367  30.4660943  75.1305786
 110.9150811  30.0641130  74.8488468 110.0895770  30.3629177  76.0821902
  98.0284303  23.4900283  69.3383982  97.2315466  23.6018977  69.8567478
  97.8009895  23.8286935  68.4724872 103.8589971  30.0144986  77.2866496
 103.9234403  30.4765393  78.1224668 103.1500894  29.3842351  77.4148806
  94.3607261  23.3786194  74.8115496  94.6115299  24.2633204  75.0773072
  94.8966809  23.1990796  74.0390588 118.1839360  26.8099691  71.4790757
 117.4303069  26.2407090  71.3234762 118.3186901  26.7762356  72.4261392
 103.5737988  31.6813094  67.1545477 103.4383663  32.5264629  67.5830325
 104.1147801  31.8832371  66.3911411 100.0605328  17.7604674  83.8159832
  99.6672273  17.2070872  84.4907476 100.8771468  18.0715252  84.2066350
  97.0267386  29.1988532  67.7273402  97.5391906  29.9931782  67.8778967
  97.6790098  28.5014822  67.6607003  98.8362270  32.3154288  69.8096155
  99.0128899  33.2372253  69.6217139  99.6319104  32.0012707  70.2390535
 102.9773289  19.1762553  81.4080089 103.7183002  19.7769706  81.3284551
 103.2091212  18.4340190  80.8498131  98.1214627  24.3618920  79.6858318
  98.0068142  23.4604177  79.9865417  97.2659145  24.6082617  79.3343135
 105.2006465  32.3036660  81.2845819 104.7570319  31.5173039  80.9666723
 105.8623678  32.4915811  80.6189710  99.9593586  33.8332462  75.8106497
 100.5101011  33.7049525  75.0383491  99.1205062  34.1327351  75.4601390
 107.2987703  32.5839460  79.3127220 107.2806178  33.4048341  78.8207489
 108.2207623  32.4593535  79.5377361 103.7560757  30.0983590  80.1550729
 104.2889094  29.3371878  79.9250036 103.2274838  29.8057241  80.8974883
 106.9230452  15.2043656  75.6844370 106.5794721  16.0945297  75.6083481
 107.2909414  15.0145313  74.8213955  94.9916302  27.5277186  68.5032972
  95.8291524  27.9374194  68.2866680  95.1694570  26.5876628  68.4733166
 106.8880734  25.1952267  64.1916805 106.3727358  25.9656871  64.4305193
 106.6158043  24.5217403  64.8149867 104.4727846  20.0401968  69.2502044
 103.6169442  19.6508818  69.0707682 104.8854797  20.1193928  68.3901829
 106.0026992  17.5748311  73.6493604 105.4991788  17.5378446  72.8361409
 106.2957599  18.4841054  73.7090260 102.2469878  17.6587041  72.6559785
 103.1122875  17.4629849  72.2965675 102.3147387  17.4297392  73.5829142
 111.8615009  27.9484621  66.1269979 111.0844451  27.6095781  65.6825141
 112.5406490  27.9537245  65.4524944 106.6767038  23.0679359  66.0176587
 106.3717173  23.3825508  66.8686730 107.6297480  23.1460779  66.0603920
 105.1213469  29.2269582  67.6669541 104.5934831  28.4922342  67.3542778
 104.6200972  30.0044258  67.4209509 110.1006316  27.4218603  72.7836587
 109.4429990  28.1117864  72.8716715 110.9046715  27.8115035  73.1270573
  99.8532197  19.8889248  70.0276152 100.4275949  19.6664430  69.2949345
 100.4403180  19.9577943  70.7804753 108.9111774  25.7762975  70.8340529
 109.4243656  26.4092967  71.3362238 109.5612998  25.1764171  70.4683889
 100.1801784  21.9193709  64.0472037  99.3439096  22.2568396  64.3681312
 100.0406554  21.7842689  63.1099174 102.1554865  16.7630497  68.7551221
 101.5019277  16.4479515  68.1307836 102.1135339  16.1406238  69.4811044
 103.2666070  27.0449792  60.6704514 102.3593131  26.8139046  60.8695663
 103.7637102  26.2487412  60.8578495 106.1734149  35.7547300  63.5901200
 105.4995847  36.0578996  64.1986158 106.5599971  36.5576380  63.2406657
 105.3892605  23.2512431  73.0798869 104.4715167  23.4727378  72.9220557
 105.8052749  23.3258741  72.2210576 106.1727653  24.6503847  68.2101549
 106.9199472  25.1625244  67.9008671 106.4419242  24.3287899  69.0705943
 104.4454303  27.1462387  65.1928504 103.5365522  26.8621420  65.2900973
 104.4749387  27.5661466  64.3331811 109.6773571  30.7568977  68.9619671
 109.2235898  29.9159887  69.0184862 109.0467537  31.3930375  69.2994451
 108.6206490  21.6860963  70.1920339 107.8829247  21.1738349  70.5230581
 108.8733264  21.2461344  69.3803616 108.1206510  32.5945473  69.8969489
 108.4129484  33.1550531  69.1781855 108.6305130  32.8874034  70.6522648
 108.7218117  14.4637215  70.7862108 109.0276994  13.6034578  70.4988023
 109.4470722  15.0554835  70.5861102  95.0142473  24.8667901  69.1743706
  94.8166873  24.2737262  68.4494772  94.4589137  24.5620112  69.8919645
 102.9939197  24.7591008  71.2938299 103.0487807  23.8064844  71.2180776
 102.1830399  24.9150447  71.7779597 104.1430391  28.6871131  62.5316582
 103.7049821  27.9706990  62.0722220 104.8840832  28.9147246  61.9701674
 100.9331557  23.3768068  69.0528678 100.1199423  23.6762238  69.4593870
 101.4290551  22.9823756  69.7703160 103.0840135  33.3725825  70.9862943
 103.0416314  33.5986671  70.0571475 104.0002834  33.1389199  71.1348744
 106.5305769  23.8409892  77.8843572 106.8855156  24.0681365  78.7438038
 107.1777900  24.1728269  77.2620827 112.2603506  26.9628328  68.5892901
 112.1221404  27.1529924  67.6614090 111.9039725  27.7247711  69.0460952
 100.4245632  20.9486423  74.6689913 101.0645011  20.8075182  73.9712876
  99.5923162  20.6620937  74.2928515 112.2872885  29.0304855  73.6004172
 112.7209392  28.9380144  74.4487226 113.0004466  29.0062355  72.9624188
 101.2005936  30.2488854  70.7824905 101.9946534  29.7539174  70.5807480
 100.4897628  29.7206717  70.4192611 106.0200780  32.6306949  75.1337273
 106.0737802  33.1997885  75.9014989 105.1515562  32.8008834  74.7691310
  97.5088699  24.3931935  66.8584658  96.5786287  24.3316391  67.0754620
  97.6046171  23.8707888  66.0621299  97.4274248  20.9186748  69.4462900
  97.6881066  21.8332081  69.3372060  98.2491421  20.4511191  69.5959512
  98.8999174  22.3324505  76.6161724  99.5722227  22.1241867  75.9674373
  98.0728960  22.1346591  76.1766956 113.1488435  29.0728556  76.1337058
 113.3424325  29.9774366  76.3796333 113.0489053  28.6135975  76.9675643
 104.8024746  18.9586446  78.6327385 104.1552661  19.6576396  78.5391861
 105.5725761  19.3922590  79.0003633 108.2103544  29.2235298  81.7077938
 108.0589050  28.9945850  80.7908022 108.2008223  30.1805900  81.7209283
 104.9788880  26.7967211  76.6924205 105.9080940  26.9478371  76.5193172
 104.5579910  26.8851232  75.8372851 103.7777212  30.8217876  74.4622742
 103.6388297  30.4536660  75.3348680 102.9891808  31.3365515  74.2906700
 104.3725364  35.9226972  65.8048279 104.5477119  35.4515015  66.6193902
 103.6858152  36.5492738  66.0329540 105.3282427  30.1999478  71.8511580
 104.9932259  30.1600248  72.7469230 104.8286373  29.5344194  71.3781990
  99.3026671  25.6067108  77.3764161  99.1646469  24.8747347  77.9775700
 100.2131594  25.5176008  77.0948349 108.2641619  27.5455513  62.1248640
 107.6470789  26.8202341  62.0281692 107.7958107  28.3064873  61.7815714
 101.9308971  25.3187068  76.8647841 102.6408590  24.6780260  76.8234459
 101.8878280  25.5699962  77.7874022 109.9195750  32.2554421  79.7854420
 109.8608296  31.5713641  79.1185003 110.3215269  32.9973411  79.3335046
 100.6437905  22.3052285  78.6843480 100.1075262  21.8543024  79.3365077
 100.0554614  22.4398194  77.9413945  98.9386449  39.0716335  72.5788139
  99.1783047  39.7034859  73.2567158  98.0955645  38.7204375  72.8653498
 100.0540164  21.7640937  61.2469944  99.1769631  21.6429738  60.8832191
 100.5297917  20.9727015  60.9948833 109.9213157  30.2194005  78.0168400
 109.0339936  29.8819927  78.1394799 110.4911709  29.4877036  78.2537165
  91.5742305  26.5518097  71.3411451  92.2613344  26.2379827  70.7532467
  91.4190433  27.4559461  71.0678703  96.3777027  21.4408293  75.7696475
  96.2935215  20.8333963  75.0346885  95.5559733  21.9317312  75.7705971
 103.4514311  34.8795457  74.9829643 103.3784482  35.6850429  75.4948948
 103.0091704  35.0787423  74.1577664 103.2404090  34.1167227  68.4932465
 102.4571612  34.6588907  68.5870689 103.9396836  34.6341207  68.8926706
 106.5500741  19.9261857  71.1366670 107.0469440  19.1731819  70.8167740
 105.7787722  19.9626173  70.5709879 114.4030498  25.6302222  72.7784961
 114.3920374  26.5126938  72.4078895 113.5347877  25.2773773  72.5839499
 105.9112994  34.7782291  77.1387802 106.6240967  35.4129756  77.0663703
 105.4203023  34.8746157  76.3227804 107.6330521  28.6833544  68.7105093
 106.6986800  28.8035006  68.5409798 107.8107190  27.7806011  68.4465103
 103.1335709  22.0679240  70.8638355 102.7633497  21.5150280  71.5519260
 103.6294802  21.4637373  70.3113355 111.0203073  24.5250863  69.2455128
 111.4863525  25.3578855  69.1715430 111.4710573  24.0595845  69.9500386
 100.9624908  32.5276735  77.9593373 101.6634367  33.1613218  78.1122767
 100.4920023  32.8691466  77.1989012 109.0879304  30.8694685  66.2441280
 109.3639148  30.7551279  67.1535154 108.2183802  30.4712169  66.2053453
 108.9919735  16.8931450  73.2846029 108.0782815  17.1235677  73.4528236
 109.4212837  16.9769894  74.1360061 108.7626194  25.0821342  75.7845923
 108.1097644  25.3297250  75.1298376 109.1406574  24.2685480  75.4508400
 105.7233368  35.1181035  69.8874093 105.9055762  34.3002691  70.3501846
 106.5466354  35.3348728  69.4498983 106.0575533  34.0449220  67.1489142
 106.5863300  33.5341675  66.5359304 106.3203753  33.7291751  68.0134675
 104.8113767  25.8241153  82.2711960 104.1354404  25.7235283  82.9414335
 105.6341401  25.6680367  82.7347957  96.5592626  32.0613090  74.8924475
  97.1446063  31.3156778  75.0252379  96.3617464  32.3717046  75.7761139
  99.4131281  35.0964337  69.9086918  98.7441656  35.5810465  69.4250958
  99.2744151  35.3433558  70.8230296  91.1510281  24.6318690  73.6128918
  91.1894380  24.0982281  74.4066036  90.6450574  24.1053895  72.9939896
 103.5536550  37.1308081  76.5069576 104.1054858  37.2939702  77.2718661
 103.8942743  37.7212519  75.8349601  98.5301043  19.4783230  77.1091461
  98.5942369  20.3398061  76.6968858  98.4668163  18.8657232  76.3763819
  98.0053316  21.5506363  80.7564495  98.6325354  21.1683440  81.3702019
  97.1481234  21.3320565  81.1220187 108.4047424  31.9569338  82.3618230
 108.9487328  32.5699296  81.8673185 107.8234269  32.5148917  82.8785243
 106.6904937  35.0790056  73.4933258 106.5656076  34.2779796  72.9844204
 107.3484028  35.5736250  73.0047228  98.3113105  21.4338789  72.6710398
  97.5899691  22.0474756  72.5317872  99.1006361  21.9696554  72.5927044
 108.7539845  32.8799076  75.1212808 107.8070181  32.7604427  75.0491135
 109.1022619  31.9921574  75.2039070 101.1139419  18.7693215  78.9451050
 101.6373821  19.0155512  79.7077359 100.8951752  19.6013250  78.5254187
  96.5106700  21.0396890  66.8122175  96.1819406  20.1594269  66.6297281
  96.8646071  20.9844558  67.6998564 105.7586279  32.6751793  71.3217160
 105.6111241  31.7468500  71.5024730 106.5839772  32.6971883  70.8374236
  99.6248523  21.3269860  67.1797653  99.9644596  21.8555781  66.4576261
 100.0720643  21.6650266  67.9556219 109.3620401  33.4980351  72.4082033
 110.2866948  33.2923213  72.2706484 109.1935704  33.2496752  73.3171375
 102.3191964  19.7106910  76.6300721 101.9788784  18.9114723  77.0321401
 101.6130970  20.0108621  76.0577554 102.9708436  16.7956223  75.0828044
 103.7934505  16.3216701  74.9606934 103.2146499  17.5746707  75.5826730
 101.6116670  19.8244481  65.3790945 102.3325033  20.2025734  64.8754662
 100.9881974  20.5433358  65.4825923 105.7547793  20.5289630  66.3149278
 105.9711407  21.4114268  66.0138106 105.2741860  20.1375844  65.5854920
 100.4947014  23.4875343  72.8920022 100.3491595  23.8015646  73.7844304
 100.0172218  24.1060244  72.3390921 102.3543397  20.4777891  72.9400912
 102.3404966  19.5818985  72.6033210 103.0715825  20.4848555  73.5739198
 104.2069528  20.9115232  74.9854039 103.9487306  21.8332302  74.9838370
 103.6754568  20.5145666  75.6754503 109.1515717  34.0166019  67.7644125
 109.3252594  33.4512441  67.0117977 109.6444608  34.8166914  67.5823615
  94.9692677  26.0280688  75.8307683  94.4246145  26.8040496  75.9627958
  95.8472026  26.3751492  75.6726805 101.7580293  19.3592272  68.2088482
 101.8796204  18.4308918  68.4079369 101.4682336  19.3730958  67.2966797
 104.6271484  17.0447182  71.3455202 104.6493180  17.1086515  70.3907181
 105.0439543  16.2051691  71.5395708 115.0055108  26.7802442  69.3834424
 115.4486254  26.0309767  68.9853548 114.1281618  26.7712578  69.0008156
 110.1390889  33.3332783  64.8641023 110.8341794  33.9539476  65.0828338
 110.4814039  32.4828134  65.1393401  95.7558698  25.1550584  78.7237840
  95.0140434  25.3033219  79.3102471  95.4351443  25.4158850  77.8604590
 112.0382312  30.7832489  66.3928354 112.5633636  31.1219761  65.6677674
 111.9504665  29.8479504  66.2091488 103.7002361  34.6966562  78.5218230
 104.0089488  34.4515709  79.3940930 104.4977843  34.9013201  78.0337101
 103.7222973  36.8504472  70.7523607 103.2827963  36.3580851  71.4456464
 104.4731090  36.3077440  70.5115682  96.2015312  33.0416013  70.7548235
  97.0273332  32.7419785  70.3746878  95.8509364  32.2723635  71.2038024
 101.1696845  32.3942481  72.8245909 100.5476855  31.7313186  72.5248136
 101.8401712  32.4203613  72.1419556 101.2421373  20.8724269  82.4178415
 101.2909528  21.7486392  82.0356184 101.7843887  20.3301662  81.8450058
 111.7276218  31.4165392  81.6979552 110.9371762  31.3989531  81.1584051
 111.4909573  31.9553686  82.4528588 111.8474093  28.2657859  79.0112280
 111.8972098  28.1007866  79.9527803 111.7388017  27.3985118  78.6210161
 100.7310352  30.9446404  66.3004369 100.8798473  31.6281869  65.6471042
 101.5376796  30.9251494  66.8153825 109.1377856  24.2488787  80.3271587
 110.0387719  24.1095252  80.0355585 109.2125830  24.4143242  81.2669764
 103.4720661  21.6255641  79.1724773 102.6023971  21.9189207  78.9007362
 103.7080142  22.2096086  79.8932037 113.3492290  30.6854800  79.2554302
 113.0577099  31.0484781  80.0917763 112.7364422  29.9721808  79.0767634
 114.5487973  28.2507680  71.7756872 115.3834864  28.6897484  71.9394432
 114.6847101  27.7746333  70.9565118 111.5979479  25.8087415  77.7234360
 112.0733600  26.0015061  76.9153211 110.6745044  25.8646601  77.4777743
  98.4862985  26.9711582  67.3065438  98.2409027  26.0673912  67.5045648
  98.6558900  26.9728732  66.3644916 106.1759695  17.8435258  76.6890194
 106.6941639  18.5796285  76.3636682 105.8214828  18.1499252  77.5236953
 106.4272289  14.2635541  72.2091090 106.7074043  13.5958730  72.8351517
 107.2122896  14.4564636  71.6965754 104.2305758  33.4394535  63.7716117
 103.6579725  34.0584722  63.3186588 104.8038551  33.9893896  64.3056038
 110.2981148  22.6853175  75.9562665 111.2498570  22.7851273  75.9774889
 110.1284598  21.8931443  76.4660750 108.3195527  19.7708758  76.1422066
 107.7245459  20.0513771  75.4468555 108.0345224  20.2602659  76.9138807
 107.4503018  33.7231685  64.9024699 108.3833691  33.6577247  65.1057574
 107.3626230  34.5587952  64.4439231 110.0791034  33.0397555  61.8628646
 110.0004666  32.7057419  62.7564404 110.9000701  33.5319323  61.8620119
 112.7769225  25.9059295  75.0704965 112.7445545  24.9675295  75.2564649
 113.3869849  25.9843331  74.3370790 104.6152556  24.7755348  61.1132169
 105.5611661  24.6461556  61.1820587 104.2366801  24.0370009  61.5901597
 112.9263714  22.6970338  75.1163248 112.4102762  21.9128795  74.9293177
 113.8103662  22.3689055  75.2809768 110.5874441  16.4411354  71.0759061
 110.3899262  16.1326442  71.9602393 111.1974146  17.1672992  71.2056991
 118.5945775  26.9675301  74.2111002 119.3249164  26.7060590  74.7718705
 117.9852721  26.2304023  74.2513070 116.6761072  25.1083164  74.8085453
 115.9494236  24.9739129  74.2001945 116.2608359  25.4159993  75.6142171
 104.4991249  28.8273094  82.5732826 105.4194258  29.0051693  82.7672873
 104.4640832  27.8829139  82.4212525 102.7995473  22.7005324  61.0487054
 101.8926929  22.4038437  61.1249768 103.0771454  22.4035142  60.1821340
  93.7173414  24.0211687  71.4986101  93.3976198  23.1676996  71.2060475
  93.1706842  24.2360265  72.2544068  97.4953321  26.7374128  75.2155607
  97.7139331  27.6691236  75.2343641  97.9079095  26.3782103  76.0010411
 104.4157539  17.2442214  67.2031296 103.6058267  16.8989299  67.5786542
 105.1041956  16.9349757  67.7918907 106.3448087  16.3220260  68.8255592
 106.8979126  16.7415714  69.4845615 106.5818174  15.3956009  68.8678548
 102.3681187  22.3107334  84.6058356 102.2677914  23.2601691  84.5370447
 102.1502729  21.9825573  83.7334426 101.5694258  19.5592259  61.1899033
 102.4313422  19.8847157  61.4494851 101.7544602  18.7723755  60.6772099
  93.5861674  27.6414599  73.4679222  92.8925145  27.2268552  72.9549177
  94.3334665  27.6835135  72.8712641 109.7226894  18.4320786  68.3334256
 109.1425564  19.0905590  67.9512309 109.4562827  17.6098130  67.9221674
 108.1730461  17.8325843  70.5355577 108.6730239  17.9442378  69.7269896
 108.8166069  17.5286896  71.1756385 102.2312457  25.7404473  83.4223418
 101.7479538  26.5404833  83.6287307 102.3173396  25.7512418  82.4690862
  95.4998416  27.5732853  71.3445237  95.4769104  27.6720540  70.3927120
  95.8099053  28.4198003  71.6662403  98.1585794  29.6309008  75.4591852
  99.1129048  29.5992950  75.3921783  97.9598318  29.1699631  76.2742077
  98.7485176  28.2010124  78.0262649  99.5678065  28.6954202  78.0497486
  99.0221984  27.2842092  77.9980217 108.5051772  20.5920876  67.3890605
 107.6177628  20.8770527  67.1710799 108.9205762  20.4314639  66.5417882
 111.8566309  20.6167397  71.1044944 112.6326699  21.1063849  71.3769561
 111.1314443  21.0425451  71.5616813 114.2938867  21.3295016  72.1618885
 114.8883358  21.0890752  71.4512193 114.3665451  20.6102147  72.7892421
  96.5136023  35.1728627  72.4762049  96.3790491  34.4129028  71.9100047
  96.0968085  35.8969527  72.0090838 107.6494986  30.3565551  61.4838625
 108.3530836  30.5615553  62.0996280 106.9257635  30.9242313  61.7487708
 108.4792796  26.1075412  67.6040895 108.4227998  26.5643963  66.7648527
 109.0321139  25.3466097  67.4263738 112.2897602  21.8965144  68.4291014
 112.0334536  21.4961779  69.2599222 111.6650470  22.6108938  68.3041154
 116.6009940  24.6361217  70.9362306 116.0409498  24.7054406  71.7093868
 115.9953443  24.4602202  70.2161802  99.6705149  36.0697944  72.6880492
  99.5537533  37.0143377  72.5859182  98.8497595  35.7671506  73.0766291
 109.5581683  30.7948080  63.5337085 110.3927287  30.3629278  63.3514560
 109.3966026  30.6230094  64.4613979 109.2127576  27.2980193  64.8993424
 109.1576379  27.1324465  63.9581868 108.5873631  28.0056226  65.0555614
  94.0020091  22.5348258  78.7254846  94.6478954  22.0247212  79.2142071
  93.7937242  23.2716939  79.2998272 106.5273483  29.6029105  84.2246987
 107.3964642  29.7769757  83.8633622 106.0480234  30.4223522  84.1022716
 102.5223701  16.7988302  64.4778742 102.5102371  17.7430142  64.6347013
 103.4147123  16.6158448  64.1838204 100.6959663  36.7226206  75.9036420
 101.5986910  36.7549816  76.2202915 100.4697033  35.7926657  75.9182756
 102.4513265  35.4757193  72.5646499 101.5008896  35.4759054  72.4510871
 102.7545751  34.7289927  72.0482534 106.3375820  13.3931079  68.7324679
 105.5708216  12.8389566  68.8781362 106.7486525  13.4652948  69.5938831
  98.3417582  19.6815875  82.8229860  99.2049043  19.3252679  83.0333185
  97.7682992  19.3429769  83.5105265 118.1865958  41.3117731  73.6292261
 118.8244368  41.1924478  72.9255602 118.0686801  42.2598575  73.6880214
 114.9955665  41.2645159  73.5653786 114.6574176  41.1486224  72.6774321
 115.8645433  40.8636324  73.5454792 110.8542480  43.1180635  69.5550677
 110.2907346  43.0270572  68.7866965 110.7394875  42.2980540  70.0353170
 115.4775448  42.4180011  79.5239992 115.4664088  42.0232809  78.6520495
 115.6396087  41.6846083  80.1173763 116.4342039  46.7851603  64.8665142
 115.7830019  47.3705684  64.4799156 117.2286402  47.3157798  64.9260180
 112.1982709  45.2017123  78.4719176 111.9072575  46.1062753  78.3565842
 112.8339693  45.2433650  79.1863245 113.1238916  42.5793971  75.0620535
 113.7202488  42.3549994  74.3477498 113.1813887  41.8378717  75.6645983
 112.6963944  40.0333406  62.8970726 112.9489465  39.5114928  62.1354189
 111.7588503  39.8699552  62.9997410 117.7407227  39.0369185  70.7045470
 118.5270316  38.6188608  70.3535887 118.0045931  39.9415277  70.8727118
 117.9117304  44.4742035  65.4034126 117.2763137  44.5476662  66.1155031
 117.5814711  45.0635634  64.7253206 123.1415654  38.9744418  71.6078448
 123.8740826  38.4043635  71.8416278 122.3855010  38.5866018  72.0484954
 114.7591774  41.3971660  68.8041790 114.3949981  40.8702280  69.5154712
 115.6158890  41.0070129  68.6308276 120.6641074  32.6865992  76.0673057
 120.3324399  33.5561403  75.8434272 120.0686688  32.3702276  76.7467087
 114.3997261  36.4261559  63.8003139 114.5671663  37.2941796  64.1673610
 114.2094430  36.5888841  62.8764428 117.1572594  44.8878538  75.4668969
 116.8573317  45.7903577  75.3584777 116.8123653  44.6210721  76.3190122
 110.6085075  41.3392335  71.5005674 109.6835572  41.2068549  71.7083366
 110.8569489  42.1186554  71.9975616 120.5569738  37.4061078  73.1466407
 119.6486615  37.3376487  72.8525168 120.5057334  37.8833023  73.9748232
 114.3786482  38.8819217  64.7849806 114.2586107  39.3276267  65.6235286
 113.6839070  39.2304534  64.2263344 107.9693886  40.9825609  72.3349463
 108.0986268  41.2360087  73.2488875 107.2891338  41.5753317  72.0154118
 114.6310604  38.8250724  81.0901304 113.8543938  39.3844644  81.0804169
 115.2701167  39.3107507  81.6116174 122.4231384  35.6077517  74.9244281
 121.7805764  35.9010050  74.2784075 121.9186313  35.4930437  75.7297477
 120.0771548  39.3540690  65.6130140 120.9889404  39.5868077  65.4377837
 119.5681195  39.9377734  65.0505218 112.8856976  41.6336177  80.6519271
 113.6271660  42.1721221  80.3754095 112.1793961  42.2602466  80.8090823
 118.3612315  43.7765318  79.2491432 118.7695672  43.3347728  78.5046065
 117.6389577  43.2017945  79.5025625 114.7143386  38.7137924  76.6224989
 115.5604581  39.1377338  76.7659638 114.6542023  38.0571549  77.3163553
 118.6841130  44.3366508  73.0043721 118.0549993  44.5012222  72.3019789
 118.2966792  44.7508118  73.7754685 122.5630362  45.2720946  70.3588085
 121.8781400  45.6519848  69.8085118 122.6474211  45.8816273  71.0920033
 117.8642831  36.3742293  78.2806163 117.6203763  37.1284353  77.7440439
 118.1402761  36.7527640  79.1153410 119.8181294  42.9180905  76.9583429
 120.0298189  43.5612665  76.2817810 119.7711042  42.0843222  76.4905359
 117.4207523  35.5298726  73.8620001 116.5592002  35.8279979  74.1536738
 117.4469957  35.7469125  72.9301033 114.2369092  44.0740916  70.2693806
 114.7007438  44.3528619  69.4798429 113.9725890  43.1724361  70.0866897
 111.1293173  43.6212398  73.2073570 111.6994530  44.0499666  72.5691054
 111.7201285  43.3394983  73.9057755 113.1737978  40.1964069  67.0783372
 113.8762021  40.6485112  67.5457298 112.8418607  39.5547888  67.7063265
 111.6218340  38.7875825  81.4534581 110.9917000  39.4692106  81.6869978
 111.5154427  38.6758907  80.5087719 106.9163312  38.4547621  72.3800505
 106.1262366  38.7105150  71.9040616 107.4074559  39.2695959  72.4852546
 120.9327122  45.7952861  75.1305786 121.7544565  45.3933048  74.8488468
 120.9289524  45.6921095  76.0821902 108.8678057  38.8192201  69.3383982
 108.0709221  38.9310895  69.8567478 108.6403650  39.1578853  68.4724872
 114.6983725  45.3436904  77.2866496 114.7628158  45.8057311  78.1224668
 113.9894649  44.7134269  77.4148806 105.2001015  38.7078112  74.8115496
 105.4509053  39.5925122  75.0773072 105.7360563  38.5282713  74.0390588
 129.0233115  42.1391609  71.4790757 128.2696823  41.5699007  71.3234762
 129.1580656  42.1054274  72.4261392 110.8999082  33.0896591  83.8159832
 110.5066028  32.5362790  84.4907476 111.7165223  33.4007170  84.2066350
 113.8167043  34.5054470  81.4080089 114.5576757  35.1061624  81.3284551
 114.0484966  33.7632108  80.8498131 108.9608381  39.6910838  79.6858318
 108.8461896  38.7896095  79.9865417 108.1052899  39.9374534  79.3343135
 116.0400219  47.6328578  81.2845819 115.5964073  46.8464956  80.9666723
 116.7017433  47.8207728  80.6189710 110.7987340  49.1624380  75.8106497
 111.3494765  49.0341443  75.0383491 109.9598816  49.4619269  75.4601390
 118.1381457  47.9131378  79.3127220 118.1199932  48.7340259  78.8207489
 119.0601377  47.7885453  79.5377361 114.5954511  45.4275507  80.1550729
 115.1282848  44.6663796  79.9250036 114.0668592  45.1349159  80.8974883
 117.7624206  30.5335573  75.6844370 117.4188476  31.4237215  75.6083481
 118.1303169  30.3437231  74.8213955 105.8310057  42.8569104  68.5032972
 106.6685279  43.2666112  68.2866680 106.0088325  41.9168546  68.4733166
 117.7274489  40.5244184  64.1916805 117.2121112  41.2948789  64.4305193
 117.4551797  39.8509321  64.8149867 115.3121600  35.3693885  69.2502044
 114.4563196  34.9800736  69.0707682 115.7248552  35.4485846  68.3901829
 116.8420747  32.9040228  73.6493604 116.3385542  32.8670364  72.8361409
 117.1351353  33.8132971  73.7090260 113.0863633  32.9878958  72.6559785
 113.9516629  32.7921767  72.2965675 113.1541141  32.7589310  73.5829142
 122.7008763  43.2776539  66.1269979 121.9238206  42.9387699  65.6825141
 123.3800244  43.2829162  65.4524944 117.5160792  38.3971277  66.0176587
 117.2110928  38.7117426  66.8686730 118.4691234  38.4752696  66.0603920
 115.9607224  44.5561500  67.6669541 115.4328586  43.8214259  67.3542778
 115.4594727  45.3336176  67.4209509 120.9400070  42.7510520  72.7836587
 120.2823744  43.4409782  72.8716715 121.7440469  43.1406952  73.1270573
 110.6925952  35.2181166  70.0276152 111.2669703  34.9956348  69.2949345
 111.2796934  35.2869861  70.7804753 119.7505529  41.1054893  70.8340529
 120.2637411  41.7384885  71.3362238 120.4006753  40.5056089  70.4683889
 111.0195539  37.2485627  64.0472037 110.1832851  37.5860314  64.3681312
 110.8800308  37.1134607  63.1099174 112.9948619  32.0922415  68.7551221
 112.3413032  31.7771432  68.1307836 112.9529093  31.4698155  69.4811044
 114.1059824  42.3741710  60.6704514 113.1986886  42.1430964  60.8695663
 114.6030856  41.5779329  60.8578495 116.2286360  38.5804349  73.0798869
 115.3108921  38.8019296  72.9220557 116.6446503  38.6550659  72.2210576
 117.0121407  39.9795764  68.2101549 117.7593226  40.4917161  67.9008671
 117.2812997  39.6579817  69.0705943 115.2848058  42.4754305  65.1928504
 114.3759277  42.1913338  65.2900973 115.3143141  42.8953384  64.3331811
 120.5167325  46.0860894  68.9619671 120.0629652  45.2451804  69.0184862
 119.8861292  46.7222293  69.2994451 119.4600245  37.0152880  70.1920339
 118.7223001  36.5030267  70.5230581 119.7127018  36.5753262  69.3803616
 118.9600264  47.9237391  69.8969489 119.2523239  48.4842448  69.1781855
 119.4698885  48.2165952  70.6522648 119.5611872  29.7929132  70.7862108
 119.8670749  28.9326496  70.4988023 120.2864477  30.3846753  70.5861102
 105.8536228  40.1959819  69.1743706 105.6560628  39.6029180  68.4494772
 105.2982892  39.8912029  69.8919645 113.8332952  40.0882926  71.2938299
 113.8881561  39.1356762  71.2180776 113.0224154  40.2442365  71.7779597
 114.9824145  44.0163049  62.5316582 114.5443575  43.2998908  62.0722220
 115.7234586  44.2439163  61.9701674 111.7725312  38.7059985  69.0528678
 110.9593177  39.0054156  69.4593870 112.2684306  38.3115674  69.7703160
 113.9233889  48.7017742  70.9862943 113.8810068  48.9278589  70.0571475
 114.8396588  48.4681117  71.1348744 117.3699523  39.1701810  77.8843572
 117.7248911  39.3973283  78.7438038 118.0171654  39.5020187  77.2620827
 123.0997260  42.2920246  68.5892901 122.9615159  42.4821842  67.6614090
 122.7433479  43.0539628  69.0460952 111.2639386  36.2778341  74.6689913
 111.9038766  36.1367100  73.9712876 110.4316917  35.9912854  74.2928515
 123.1266640  44.3596773  73.6004172 123.5603146  44.2672062  74.4487226
 123.8398220  44.3354273  72.9624188 112.0399690  45.5780771  70.7824905
 112.8340289  45.0831091  70.5807480 111.3291383  45.0498634  70.4192611
 116.8594535  47.9598867  75.1337273 116.9131557  48.5289803  75.9014989
 115.9909316  48.1300752  74.7691310 108.3482454  39.7223853  66.8584658
 107.4180042  39.6608308  67.0754620 108.4439926  39.1999806  66.0621299
 108.2668003  36.2478666  69.4462900 108.5274820  37.1623999  69.3372060
 109.0885175  35.7803108  69.5959512 109.7392928  37.6616423  76.6161724
 110.4115981  37.4533785  75.9674373 108.9122715  37.4638509  76.1766956
 123.9882189  44.4020473  76.1337058 124.1818079  45.3066284  76.3796333
 123.8882808  43.9427892  76.9675643 115.6418500  34.2878364  78.6327385
 114.9946415  34.9868314  78.5391861 116.4119515  34.7214508  79.0003633
 119.0497298  44.5527216  81.7077938 118.8982804  44.3237768  80.7908022
 119.0401977  45.5097817  81.7209283 115.8182634  42.1259129  76.6924205
 116.7474694  42.2770288  76.5193172 115.3973664  42.2143150  75.8372851
 114.6170966  46.1509793  74.4622742 114.4782052  45.7828578  75.3348680
 113.8285562  46.6657433  74.2906700 116.1676181  45.5291396  71.8511580
 115.8326014  45.4892166  72.7469230 115.6680127  44.8636112  71.3781990
 110.1420425  40.9359026  77.3764161 110.0040223  40.2039265  77.9775700
 111.0525349  40.8467926  77.0948349 119.1035373  42.8747430  62.1248640
 118.4864544  42.1494258  62.0281692 118.6351861  43.6356791  61.7815714
 112.7702726  40.6478985  76.8647841 113.4802345  40.0072177  76.8234459
 112.7272034  40.8991880  77.7874022 120.7589505  47.5846339  79.7854420
 120.7002051  46.9005559  79.1185003 121.1609023  48.3265329  79.3335046
 111.4831660  37.6344203  78.6843480 110.9469017  37.1834942  79.3365077
 110.8948368  37.7690112  77.9413945 110.8933919  37.0932855  61.2469944
 110.0163385  36.9721655  60.8832191 111.3691672  36.3018933  60.9948833
 120.7606912  45.5485923  78.0168400 119.8733691  45.2111844  78.1394799
 121.3305463  44.8168954  78.2537165 102.4136059  41.8810014  71.3411451
 103.1007099  41.5671744  70.7532467 102.2584188  42.7851379  71.0678703
 107.2170781  36.7700211  75.7696475 107.1328970  36.1625880  75.0346885
 106.3953488  37.2609229  75.7705971 114.2908065  50.2087375  74.9829643
 114.2178237  51.0142346  75.4948948 113.8485458  50.4079341  74.1577664
 117.3894495  35.2553774  71.1366670 117.8863195  34.5023737  70.8167740
 116.6181477  35.2918091  70.5709879 125.2424252  40.9594140  72.7784961
 125.2314129  41.8418855  72.4078895 124.3741632  40.6065691  72.5839499
 116.7506749  50.1074209  77.1387802 117.4634721  50.7421674  77.0663703
 116.2596777  50.2038075  76.3227804 118.4724276  44.0125462  68.7105093
 117.5380554  44.1326924  68.5409798 118.6500944  43.1097928  68.4465103
 113.9729464  37.3971157  70.8638355 113.6027251  36.8442198  71.5519260
 114.4688556  36.7929291  70.3113355 121.8596827  39.8542781  69.2455128
 122.3257279  40.6870772  69.1715430 122.3104328  39.3887762  69.9500386
 111.8018662  47.8568652  77.9593373 112.5028122  48.4905135  78.1122767
 111.3313777  48.1983384  77.1989012 119.9273058  46.1986602  66.2441280
 120.2032902  46.0843197  67.1535154 119.0577557  45.8004087  66.2053453
 119.8313490  32.2223368  73.2846029 118.9176570  32.4527595  73.4528236
 120.2606591  32.3061812  74.1360061 119.6019948  40.4113260  75.7845923
 118.9491399  40.6589167  75.1298376 119.9800328  39.5977398  75.4508400
 115.6507521  41.1533071  82.2711960 114.9748158  41.0527200  82.9414335
 116.4735155  40.9972285  82.7347957 101.9904035  39.9610608  73.6128918
 102.0288135  39.4274198  74.4066036 101.4844328  39.4345813  72.9939896
 114.3930304  52.4599998  76.5069576 114.9448612  52.6231620  77.2718661
 114.7336498  53.0504436  75.8349601 109.3694797  34.8075148  77.1091461
 109.4336124  35.6689979  76.6968858 109.3061918  34.1949150  76.3763819
 108.8447070  36.8798281  80.7564495 109.4719109  36.4975358  81.3702019
 107.9874989  36.6612483  81.1220187 119.2441179  47.2861256  82.3618230
 119.7881083  47.8991214  81.8673185 118.6628023  47.8440834  82.8785243
 105.6212613  38.6874710  66.6882850 105.9166054  37.7785388  66.6349903
 104.7200649  38.6662449  66.3663852 117.5298692  50.4081974  73.4933258
 117.4049831  49.6071714  72.9844204 118.1877783  50.9028167  73.0047228
 109.1506860  36.7630706  72.6710398 108.4293446  37.3766674  72.5317872
 109.9400116  37.2988471  72.5927044 119.5933600  48.2090994  75.1212808
 118.6463935  48.0896345  75.0491135 119.9416373  47.3213492  75.2039070
 111.9533173  34.0985133  78.9451050 112.4767575  34.3447429  79.7077359
 111.7345507  34.9305168  78.5254187 107.3500454  36.3688807  66.8122175
 107.0213161  35.4886186  66.6297281 107.7039825  36.3136476  67.6998564
 116.5980033  48.0043710  71.3217160 116.4504996  47.0760418  71.5024730
 117.4233527  48.0263801  70.8374236 110.4642278  36.6561777  67.1797653
 110.8038350  37.1847699  66.4576261 110.9114398  36.9942183  67.9556219
 120.2014155  48.8272269  72.4082033 121.1260703  48.6215130  72.2706484
 120.0329458  48.5788670  73.3171375 113.1585718  35.0398828  76.6300721
 112.8182539  34.2406641  77.0321401 112.4524725  35.3400539  76.0577554
 113.8102190  32.1248140  75.0828044 114.6328259  31.6508619  74.9606934
 114.0540254  32.9038624  75.5826730 112.4510425  35.1536399  65.3790945
 113.1718787  35.5317652  64.8754662 111.8275729  35.8725276  65.4825923
 116.5941548  35.8581548  66.3149278 116.8105162  36.7406186  66.0138106
 116.1135615  35.4667761  65.5854920 111.3340769  38.8167261  72.8920022
 111.1885350  39.1307564  73.7844304 110.8565973  39.4352161  72.3390921
 113.1937152  35.8069809  72.9400912 113.1798721  34.9110902  72.6033210
 113.9109580  35.8140473  73.5739198 115.0463283  36.2407149  74.9854039
 114.7881060  37.1624220  74.9838370 114.5148323  35.8437584  75.6754503
 119.9909471  49.3457936  67.7644125 120.1646349  48.7804359  67.0117977
 120.4838363  50.1458831  67.5823615 105.8086431  41.3572605  75.8307683
 105.2639899  42.1332413  75.9627958 106.6865781  41.7043410  75.6726805
 112.5974048  34.6884189  68.2088482 112.7189959  33.7600836  68.4079369
 112.3076090  34.7022875  67.2966797 115.4665238  32.3739100  71.3455202
 115.4886935  32.4378433  70.3907181 115.8833297  31.5343608  71.5395708
 125.8448862  42.1094359  69.3834424 126.2880008  41.3601685  68.9853548
 124.9675373  42.1004496  69.0008156 120.9784644  48.6624701  64.8641023
 121.6735548  49.2831393  65.0828338 121.3207794  47.8120052  65.1393401
 106.5952453  40.4842502  78.7237840 105.8534189  40.6325137  79.3102471
 106.2745197  40.7450767  77.8604590 122.8776067  46.1124406  66.3928354
 123.4027391  46.4511679  65.6677674 122.7898419  45.1771422  66.2091488
 114.5396116  50.0258480  78.5218230 114.8483242  49.7807627  79.3940930
 115.3371598  50.2305118  78.0337101 112.0090600  47.7234399  72.8245909
 111.3870609  47.0605104  72.5248136 112.6795467  47.7495531  72.1419556
 112.0815127  36.2016187  82.4178415 112.1303283  37.0778309  82.0356184
 112.6237641  35.6593580  81.8450058 122.5669973  46.7457310  81.6979552
 121.7765517  46.7281449  81.1584051 122.3303328  47.2845604  82.4528588
 122.6867848  43.5949776  79.0112280 122.7365853  43.4299784  79.9527803
 122.5781771  42.7277035  78.6210161 119.9771610  39.5780704  80.3271587
 120.8781473  39.4387169  80.0355585 120.0519585  39.7435159  81.2669764
 114.3114416  36.9547559  79.1724773 113.4417725  37.2481125  78.9007362
 114.5473896  37.5388004  79.8932037 124.1886045  46.0146718  79.2554302
 123.8970853  46.3776698  80.0917763 123.5758176  45.3013726  79.0767634
 125.3881727  43.5799598  71.7756872 126.2228619  44.0189402  71.9394432
 125.5240856  43.1038251  70.9565118 122.4373233  41.1379332  77.7234360
 122.9127355  41.3306979  76.9153211 121.5138798  41.1938518  77.4777743
 109.3256740  42.3003500  67.3065438 109.0802782  41.3965830  67.5045648
 109.4952654  42.3020650  66.3644916 117.0153450  33.1727176  76.6890194
 117.5335393  33.9088203  76.3636682 116.6608582  33.4791169  77.5236953
 108.5952387  38.0331857  64.8051599 107.9021632  38.1076212  64.1491635
 108.3504139  37.2692201  65.3273116 117.2666044  29.5927459  72.2091090
 117.5467797  28.9250648  72.8351517 118.0516651  29.7856554  71.6965754
 121.1374902  38.0145093  75.9562665 122.0892325  38.1143190  75.9774889
 120.9678352  37.2223361  76.4660750 119.1589282  35.1000676  76.1422066
 118.5639214  35.3805688  75.4468555 118.8738978  35.5894577  76.9138807
 118.2896772  49.0523603  64.9024699 119.2227445  48.9869164  65.1057574
 118.2019985  49.8879869  64.4439231 120.9184789  48.3689473  61.8628646
 120.8398420  48.0349337  62.7564404 121.7394455  48.8611241  61.8620119
 123.6162980  41.2351212  75.0704965 123.5839300  40.2967213  75.2564649
 124.2263603  41.3135249  74.3370790 115.4546311  40.1047265  61.1132169
 116.4005415  39.9753473  61.1820587 115.0760556  39.3661927  61.5901597
 123.7657468  38.0262256  75.1163248 123.2496517  37.2420712  74.9293177
 124.6497417  37.6980972  75.2809768 121.4268195  31.7703271  71.0759061
 121.2293016  31.4618359  71.9602393 122.0367901  32.4964910  71.2056991
 129.4339530  42.2967219  74.2111002 130.1642918  42.0352507  74.7718705
 128.8246475  41.5595941  74.2513070 127.5154827  40.4375082  74.8085453
 126.7887990  40.3031047  74.2001945 127.1002114  40.7451910  75.6142171
 115.3385003  44.1565011  82.5732826 116.2588013  44.3343610  82.7672873
 115.3034586  43.2121057  82.4212525 113.6389228  38.0297242  61.0487054
 112.7320683  37.7330354  61.1249768 113.9165209  37.7327060  60.1821340
 104.5567168  39.3503605  71.4986101 104.2369953  38.4968913  71.2060475
 104.0100596  39.5652183  72.2544068 108.3347076  42.0666046  75.2155607
 108.5533086  42.9983154  75.2343641 108.7472850  41.7074020  76.0010411
 115.2551294  32.5734131  67.2031296 114.4452022  32.2281216  67.5786542
 115.9435711  32.2641675  67.7918907 117.1841842  31.6512178  68.8255592
 117.7372880  32.0707632  69.4845615 117.4211928  30.7247926  68.8678548
 113.2074941  37.6399252  84.6058356 113.1071668  38.5893609  84.5370447
 112.9896483  37.3117491  83.7334426 112.4088012  34.8884177  61.1899033
 113.2707176  35.2139075  61.4494851 112.5938357  34.1015673  60.6772099
 104.4255428  42.9706516  73.4679222 103.7318900  42.5560469  72.9549177
 105.1728419  43.0127053  72.8712641 120.5620649  33.7612703  68.3334256
 119.9819318  34.4197507  67.9512309 120.2956582  32.9390048  67.9221674
 119.0124215  33.1617761  70.5355577 119.5123994  33.2734296  69.7269896
 119.6559823  32.8578814  71.1756385 113.0706211  41.0696391  83.4223418
 112.5873293  41.8696751  83.6287307 113.1567150  41.0804335  82.4690862
 106.3392171  42.9024770  71.3445237 106.3162859  43.0012458  70.3927120
 106.6492807  43.7489921  71.6662403 108.9979549  44.9600925  75.4591852
 109.9522802  44.9284868  75.3921783 108.7992072  44.4991549  76.2742077
 109.5878931  43.5302041  78.0262649 110.4071820  44.0246120  78.0497486
 109.8615738  42.6134009  77.9980217 119.3445527  35.9212794  67.3890605
 118.4571382  36.2062444  67.1710799 119.7599516  35.7606557  66.5417882
 122.6960063  35.9459315  71.1044944 123.4720453  36.4355767  71.3769561
 121.9708197  36.3717369  71.5616813 125.1332622  36.6586934  72.1618885
 125.7277113  36.4182670  71.4512193 125.2059205  35.9394064  72.7892421
 118.4888740  45.6857468  61.4838625 119.1924591  45.8907471  62.0996280
 117.7651389  46.2534230  61.7487708 119.3186551  41.4367330  67.6040895
 119.2621752  41.8935881  66.7648527 119.8714893  40.6758014  67.4263738
 123.1291357  37.2257061  68.4291014 122.8728291  36.8253697  69.2599222
 122.5044225  37.9400855  68.3041154 127.4403694  39.9653135  70.9362306
 126.8803252  40.0346324  71.7093868 126.8347198  39.7894119  70.2161802
 120.3975438  46.1239998  63.5337085 121.2321042  45.6921196  63.3514560
 120.2359781  45.9522011  64.4613979 120.0521330  42.6272111  64.8993424
 119.9970134  42.4616382  63.9581868 119.4267385  43.3348144  65.0555614
 104.8413845  37.8640175  78.7254846 105.4872709  37.3539129  79.2142071
 104.6330996  38.6008857  79.2998272 117.3667237  44.9321023  84.2246987
 118.2358397  45.1061675  83.8633622 116.8873989  45.7515440  84.1022716
 113.3617456  32.1280220  64.4778742 113.3496125  33.0722060  64.6347013
 114.2540877  31.9450365  64.1838204 111.5353417  52.0518124  75.9036420
 112.4380664  52.0841734  76.2202915 111.3090788  51.1218575  75.9182756
 113.2907019  50.8049110  72.5646499 112.3402650  50.8050972  72.4510871
 113.5939506  50.0581845  72.0482534 117.1769575  28.7222996  68.7324679
 116.4101971  28.1681483  68.8781362 117.5880280  28.7944865  69.5938831
 109.1811336  35.0107792  82.8229860 110.0442798  34.6544597  83.0333185
 108.6076747  34.6721687  83.5105265 129.0259713  56.6409649  73.6292261
 129.6638123  56.5216396  72.9255602 128.9080556  57.5890493  73.6880214
 125.8349419  56.5937077  73.5653786 125.4967931  56.4778141  72.6774321
 126.7039187  56.1928242  73.5454792 121.6936235  58.4472553  69.5550677
 121.1301100  58.3562490  68.7866965 121.5788630  57.6272458  70.0353170
 126.3169202  57.7471928  79.5239992 126.3057843  57.3524727  78.6520495
 126.4789842  57.0138001  80.1173763 119.2400667  59.9423745  72.3934898
 120.0321959  59.6014569  71.9781197 119.4797317  60.0518720  73.3137051
 127.2735794  62.1143521  64.8665142 126.6223773  62.6997601  64.4799156
 128.0680156  62.6449716  64.9260180 121.1991421  59.2032658  65.2652276
 121.9722297  58.6561645  65.1265152 121.5516820  60.0676907  65.4766738
 123.0376463  60.5309040  78.4719176 122.7466329  61.4354671  78.3565842
 123.6733448  60.5725568  79.1863245 123.9632670  57.9085889  75.0620535
 124.5596242  57.6841911  74.3477498 124.0207642  57.1670634  75.6645983
 123.5357699  55.3625324  62.8970726 123.7883219  54.8406845  62.1354189
 122.5982258  55.1991470  62.9997410 128.5800981  54.3661102  70.7045470
 129.3664071  53.9480526  70.3535887 128.8439686  55.2707195  70.8727118
 128.7511059  59.8033953  65.4034126 128.1156892  59.8768579  66.1155031
 128.4208465  60.3927552  64.7253206 133.9809409  54.3036336  71.6078448
 134.7134581  53.7335553  71.8416278 133.2248764  53.9157936  72.0484954
 123.2553987  57.2653430  65.0995101 123.1390245  56.5898333  65.7676186
 123.3656247  56.7785804  64.2827254 125.5985528  56.7263577  68.8041790
 125.2343736  56.1994198  69.5154712 126.4552644  56.3362046  68.6308276
 131.5034829  48.0157910  76.0673057 131.1718154  48.8853321  75.8434272
 130.9080442  47.6994194  76.7467087 125.2391015  51.7553477  63.8003139
 125.4065418  52.6233713  64.1673610 125.0488184  51.9180759  62.8764428
 127.9966348  60.2170456  75.4668969 127.6967072  61.1195495  75.3584777
 127.6517408  59.9502639  76.3190122 121.4478830  56.6684253  71.5005674
 120.5229326  56.5360467  71.7083366 121.6963243  57.4478472  71.9975616
 131.3963492  52.7352996  73.1466407 130.4880370  52.6668404  72.8525168
 131.3451088  53.2124941  73.9748232 125.2180236  54.2111134  64.7849806
 125.0979861  54.6568185  65.6235286 124.5232825  54.5596452  64.2263344
 118.8087641  56.3117526  72.3349463 118.9380022  56.5652005  73.2488875
 118.1285092  56.9045234  72.0154118 122.9787128  66.9814776  68.4339937
 122.9011158  67.9322601  68.5128418 122.3748772  66.6360649  69.0914863
 125.4704358  54.1542642  81.0901304 124.6937692  54.7136562  81.0804169
 126.1094921  54.6399425  81.6116174 133.2625139  50.9369434  74.9244281
 132.6199519  51.2301968  74.2784075 132.7580067  50.8222355  75.7297477
 130.9165302  54.6832608  65.6130140 131.8283158  54.9159994  65.4377837
 130.4074949  55.2669652  65.0505218 123.7250730  56.9628095  80.6519271
 124.4665415  57.5013139  80.3754095 123.0187716  57.5894384  80.8090823
 129.2006070  59.1057235  79.2491432 129.6089426  58.6639646  78.5046065
 128.4783331  58.5309863  79.5025625 125.5537140  54.0429842  76.6224989
 126.3998335  54.4669256  76.7659638 125.4935778  53.3863466  77.3163553
 129.5234885  59.6658426  73.0043721 128.8943747  59.8304140  72.3019789
 129.1360547  60.0800036  73.7754685 133.4024117  60.6012864  70.3588085
 132.7175155  60.9811765  69.8085118 133.4867966  61.2108191  71.0920033
 128.7036585  51.7034211  78.2806163 128.4597517  52.4576271  77.7440439
 128.9796516  52.0819558  79.1153410 130.6575048  58.2472823  76.9583429
 130.8691943  58.8904583  76.2817810 130.6104796  57.4135139  76.4905359
 128.2601277  50.8590644  73.8620001 127.3985756  51.1571897  74.1536738
 128.2863712  51.0761042  72.9301033 125.0762846  59.4032834  70.2693806
 125.5401192  59.6820537  69.4798429 124.8119645  58.5016279  70.0866897
 121.9686928  58.9504316  73.2073570 122.5388285  59.3791584  72.5691054
 122.5595039  58.6686900  73.9057755 124.0131733  55.5255986  67.0783372
 124.7155776  55.9777030  67.5457298 123.6812361  54.8839805  67.7063265
 122.4612094  54.1167743  81.4534581 121.8310755  54.7984024  81.6869978
 122.3548182  54.0050825  80.5087719 117.7557066  53.7839539  72.3800505
 116.9656120  54.0397068  71.9040616 118.2468314  54.5987877  72.4852546
 131.7720876  61.1244778  75.1305786 132.5938320  60.7224966  74.8488468
 131.7683279  61.0213012  76.0821902 119.7071812  54.1484118  69.3383982
 118.9102975  54.2602813  69.8567478 119.4797404  54.4870771  68.4724872
 125.5377479  60.6728822  77.2866496 125.6021912  61.1349229  78.1224668
 124.8288403  60.0426187  77.4148806 116.0394769  54.0370030  74.8115496
 116.2902808  54.9217040  75.0773072 116.5754318  53.8574631  74.0390588
 139.8626869  57.4683527  71.4790757 139.1090577  56.8990925  71.3234762
 139.9974410  57.4346191  72.4261392 125.2525497  62.3396929  67.1545477
 125.1171172  63.1848465  67.5830325 125.7935310  62.5416207  66.3911411
 121.7392837  48.4188509  83.8159832 121.3459782  47.8654708  84.4907476
 122.5558977  48.7299087  84.2066350 118.7054895  59.8572367  67.7273402
 119.2179415  60.6515617  67.8778967 119.3577607  59.1598658  67.6607003
 120.5149779  62.9738123  69.8096155 120.6916408  63.8956088  69.6217139
 121.3106613  62.6596543  70.2390535 124.6560798  49.8346388  81.4080089
 125.3970511  50.4353541  81.3284551 124.8878721  49.0924026  80.8498131
 119.8002136  55.0202755  79.6858318 119.6855651  54.1188013  79.9865417
 118.9446654  55.2666452  79.3343135 126.8793974  62.9620496  81.2845819
 126.4357828  62.1756874  80.9666723 127.5411187  63.1499646  80.6189710
 121.6381095  64.4916297  75.8106497 122.1888520  64.3633361  75.0383491
 120.7992571  64.7911186  75.4601390 128.9775212  63.2423296  79.3127220
 128.9593687  64.0632177  78.8207489 129.8995132  63.1177371  79.5377361
 125.4348266  60.7567425  80.1550729 125.9676603  59.9955713  79.9250036
 124.9062347  60.4641077  80.8974883 128.6017961  45.8627491  75.6844370
 128.2582230  46.7529133  75.6083481 128.9696923  45.6729149  74.8213955
 116.6703811  58.1861021  68.5032972 117.5079033  58.5958030  68.2866680
 116.8482079  57.2460464  68.4733166 128.5668243  55.8536102  64.1916805
 128.0514867  56.6240707  64.4305193 128.2945552  55.1801238  64.8149867
 126.1515354  50.6985803  69.2502044 125.2956951  50.3092653  69.0707682
 126.5642306  50.7777764  68.3901829 127.6814501  48.2332146  73.6493604
 127.1779297  48.1962281  72.8361409 127.9745108  49.1424889  73.7090260
 123.9257387  48.3170876  72.6559785 124.7910384  48.1213685  72.2965675
 123.9934896  48.0881228  73.5829142 133.5402518  58.6068457  66.1269979
 132.7631960  58.2679616  65.6825141 134.2193999  58.6121080  65.4524944
 128.3554547  53.7263194  66.0176587 128.0504682  54.0409343  66.8686730
 129.3084989  53.8044614  66.0603920 126.8000978  59.8853418  67.6669541
 126.2722340  59.1506177  67.3542778 126.2988481  60.6628094  67.4209509
 131.7793824  58.0802438  72.7836587 131.1217499  58.7701699  72.8716715
 132.5834224  58.4698870  73.1270573 121.5319706  50.5473084  70.0276152
 122.1063458  50.3248265  69.2949345 122.1190689  50.6161778  70.7804753
 130.5899283  56.4346811  70.8340529 131.1031165  57.0676803  71.3362238
 131.2400507  55.8348006  70.4683889 121.8589293  52.5777545  64.0472037
 121.0226605  52.9152231  64.3681312 121.7194063  52.4426525  63.1099174
 123.8342374  47.4214333  68.7551221 123.1806786  47.1063350  68.1307836
 123.7922848  46.7990073  69.4811044 124.9453579  57.7033628  60.6704514
 124.0380640  57.4722881  60.8695663 125.4424611  56.9071247  60.8578495
 127.8521658  66.4131135  63.5901200 127.1783356  66.7162832  64.1986158
 128.2387479  67.2160215  63.2406657 127.0680114  53.9096266  73.0798869
 126.1502676  54.1311213  72.9220557 127.4840258  53.9842577  72.2210576
 127.8515162  55.3087682  68.2101549 128.5986981  55.8209079  67.9008671
 128.1206751  54.9871735  69.0705943 126.1241812  57.8046223  65.1928504
 125.2153031  57.5205255  65.2900973 126.1536896  58.2245301  64.3331811
 131.3561079  61.4152812  68.9619671 130.9023407  60.5743722  69.0184862
 130.7255046  62.0514211  69.2994451 130.2993999  52.3444798  70.1920339
 129.5616756  51.8322184  70.5230581 130.5520773  51.9045180  69.3803616
 129.7994019  63.2529309  69.8969489 130.0916993  63.8134366  69.1781855
 130.3092639  63.5457870  70.6522648 130.4005626  45.1221050  70.7862108
 130.7064503  44.2618414  70.4988023 131.1258231  45.7138670  70.5861102
 116.6929982  55.5251737  69.1743706 116.4954382  54.9321097  68.4494772
 116.1376646  55.2203947  69.8919645 124.6726706  55.4174843  71.2938299
 124.7275316  54.4648680  71.2180776 123.8617908  55.5734282  71.7779597
 125.8217900  59.3454966  62.5316582 125.3837330  58.6290825  62.0722220
 126.5628341  59.5731081  61.9701674 122.6119066  54.0351903  69.0528678
 121.7986932  54.3346074  69.4593870 123.1078060  53.6407592  69.7703160
 124.7627644  64.0309660  70.9862943 124.7203823  64.2570506  70.0571475
 125.6790343  63.7973034  71.1348744 128.2093278  54.4993727  77.8843572
 128.5642665  54.7265201  78.7438038 128.8565409  54.8312104  77.2620827
 133.9391015  57.6212163  68.5892901 133.8008913  57.8113759  67.6614090
 133.5827233  58.3831546  69.0460952 122.1033141  51.6070259  74.6689913
 122.7432520  51.4659018  73.9712876 121.2710671  51.3204772  74.2928515
 133.9660394  59.6888690  73.6004172 134.3996901  59.5963979  74.4487226
 134.6791975  59.6646191  72.9624188 122.8793445  60.9072689  70.7824905
 123.6734043  60.4123009  70.5807480 122.1685137  60.3790552  70.4192611
 127.6988289  63.2890784  75.1337273 127.7525311  63.8581721  75.9014989
 126.8303071  63.4592669  74.7691310 119.1876208  55.0515771  66.8584658
 118.2573796  54.9900226  67.0754620 119.2833680  54.5291723  66.0621299
 119.1061757  51.5770583  69.4462900 119.3668575  52.4915917  69.3372060
 119.9278930  51.1095026  69.5959512 120.5786683  52.9908341  76.6161724
 121.2509736  52.7825703  75.9674373 119.7516469  52.7930427  76.1766956
 134.8275944  59.7312391  76.1337058 135.0211834  60.6358202  76.3796333
 134.7276562  59.2719810  76.9675643 126.4812255  49.6170282  78.6327385
 125.8340170  50.3160231  78.5391861 127.2513270  50.0506426  79.0003633
 129.8891053  59.8819134  81.7077938 129.7376559  59.6529685  80.7908022
 129.8795732  60.8389735  81.7209283 126.6576389  57.4551046  76.6924205
 127.5868449  57.6062206  76.5193172 126.2367419  57.5435067  75.8372851
 125.4564721  61.4801711  74.4622742 125.3175806  61.1120495  75.3348680
 124.6679317  61.9949350  74.2906700 126.0512873  66.5810807  65.8048279
 126.2264628  66.1098851  66.6193902 125.3645661  67.2076574  66.0329540
 127.0069936  60.8583314  71.8511580 126.6719768  60.8184084  72.7469230
 126.5073882  60.1928030  71.3781990 120.9814180  56.2650944  77.3764161
 120.8433978  55.5331182  77.9775700 121.8919103  56.1759844  77.0948349
 129.9429127  58.2039348  62.1248640 129.3258298  57.4786176  62.0281692
 129.4745616  58.9648708  61.7815714 123.6096480  55.9770903  76.8647841
 124.3196099  55.3364095  76.8234459 123.5665789  56.2283798  77.7874022
 131.5983259  62.9138256  79.7854420 131.5395805  62.2297476  79.1185003
 132.0002778  63.6557246  79.3335046 122.3225414  52.9636121  78.6843480
 121.7862771  52.5126859  79.3365077 121.7342123  53.0982030  77.9413945
 120.6173958  69.7300170  72.5788139 120.8570556  70.3618694  73.2567158
 119.7743154  69.3788210  72.8653498 121.7327673  52.4224772  61.2469944
 120.8557140  52.3013573  60.8832191 122.2085426  51.6310851  60.9948833
 131.6000666  60.8777840  78.0168400 130.7127445  60.5403762  78.1394799
 132.1699217  60.1460871  78.2537165 118.0564536  52.0992129  75.7696475
 117.9722724  51.4917798  75.0346885 117.2347242  52.5901147  75.7705971
 125.1301820  65.5379293  74.9829643 125.0571991  66.3434264  75.4948948
 124.6879213  65.7371258  74.1577664 124.9191599  64.7751063  68.4932465
 124.1359121  65.3172743  68.5870689 125.6184345  65.2925042  68.8926706
 128.2288250  50.5845692  71.1366670 128.7256949  49.8315654  70.8167740
 127.4575231  50.6210009  70.5709879 136.0818007  56.2886058  72.7784961
 136.0707883  57.1710773  72.4078895 135.2135386  55.9357608  72.5839499
 127.5900503  65.4366127  77.1387802 128.3028476  66.0713591  77.0663703
 127.0990532  65.5329993  76.3227804 129.3118030  59.3417379  68.7105093
 128.3774309  59.4618842  68.5409798 129.4894699  58.4389846  68.4465103
 124.8123218  52.7263075  70.8638355 124.4421006  52.1734115  71.5519260
 125.3082311  52.1221209  70.3113355 132.6990582  55.1834699  69.2455128
 133.1651034  56.0162690  69.1715430 133.1498082  54.7179680  69.9500386
 122.6412417  63.1860570  77.9593373 123.3421876  63.8197053  78.1122767
 122.1707532  63.5275302  77.1989012 130.7666813  61.5278520  66.2441280
 131.0426657  61.4135114  67.1535154 129.8971311  61.1296005  66.2053453
 130.6707244  47.5515286  73.2846029 129.7570324  47.7819512  73.4528236
 131.1000346  47.6353730  74.1360061 130.4413703  55.7405178  75.7845923
 129.7885153  55.9881085  75.1298376 130.8194083  54.9269316  75.4508400
 127.4020877  65.7764871  69.8874093 127.5843271  64.9586527  70.3501846
 128.2253863  65.9932563  69.4498983 127.7363042  64.7033056  67.1489142
 128.2650809  64.1925510  66.5359304 127.9991262  64.3875586  68.0134675
 126.4901276  56.4824989  82.2711960 125.8141913  56.3819118  82.9414335
 127.3128910  56.3264202  82.7347957 121.0918790  65.7548173  69.9086918
 120.4229165  66.2394300  69.4250958 120.9531660  66.0017393  70.8230296
 112.8297790  55.2902525  73.6128918 112.8681889  54.7566116  74.4066036
 112.3238082  54.7637731  72.9939896 125.2324059  67.7891916  76.5069576
 125.7842367  67.9523538  77.2718661 125.5730252  68.3796354  75.8349601
 120.2088552  50.1367066  77.1091461 120.2729878  50.9981897  76.6968858
 120.1455672  49.5241067  76.3763819 119.6840824  52.2090198  80.7564495
 120.3112863  51.8267276  81.3702019 118.8268743  51.9904400  81.1220187
 130.0834933  62.6153174  82.3618230 130.6274837  63.2283132  81.8673185
 129.5021778  63.1732752  82.8785243 128.3692446  65.7373892  73.4933258
 128.2443585  64.9363631  72.9844204 129.0271537  66.2320085  73.0047228
 119.9900614  52.0922624  72.6710398 119.2687200  52.7058592  72.5317872
 120.7793870  52.6280389  72.5927044 130.4327354  63.5382912  75.1212808
 129.4857690  63.4188263  75.0491135 130.7810128  62.6505410  75.2039070
 122.7926928  49.4277051  78.9451050 123.3161330  49.6739347  79.7077359
 122.5739261  50.2597085  78.5254187 127.4373788  63.3335628  71.3217160
 127.2898750  62.4052335  71.5024730 128.2627281  63.3555719  70.8374236
 121.3036032  51.9853695  67.1797653 121.6432104  52.5139616  66.4576261
 121.7508152  52.3234101  67.9556219 131.0407910  64.1564187  72.4082033
 131.9654457  63.9507048  72.2706484 130.8723213  63.9080588  73.3171375
 123.9979473  50.3690746  76.6300721 123.6576293  49.5698559  77.0321401
 123.2918479  50.6692457  76.0577554 124.6495945  47.4540058  75.0828044
 125.4722014  46.9800536  74.9606934 124.8934008  48.2330542  75.5826730
 123.2904179  50.4828317  65.3790945 124.0112542  50.8609569  64.8754662
 122.6669483  51.2017193  65.4825923 127.4335302  51.1873466  66.3149278
 127.6498916  52.0698103  66.0138106 126.9529369  50.7959679  65.5854920
 122.1734523  54.1459179  72.8920022 122.0279104  54.4599482  73.7844304
 121.6959727  54.7644079  72.3390921 124.0330906  51.1361727  72.9400912
 124.0192475  50.2402820  72.6033210 124.7503334  51.1432390  73.5739198
 125.8857037  51.5699067  74.9854039 125.6274815  52.4916138  74.9838370
 125.3542077  51.1729501  75.6754503 130.8303226  64.6749854  67.7644125
 131.0040103  64.1096277  67.0117977 131.3232117  65.4750749  67.5823615
 116.6480186  56.6864523  75.8307683 116.1033654  57.4624331  75.9627958
 117.5259535  57.0335328  75.6726805 123.4367802  50.0176107  68.2088482
 123.5583713  49.0892753  68.4079369 123.1469845  50.0314793  67.2966797
 126.3058993  47.7031017  71.3455202 126.3280689  47.7670351  70.3907181
 126.7227052  46.8635526  71.5395708 136.6842617  57.4386277  69.3834424
 137.1273763  56.6893602  68.9853548 135.8069127  57.4296413  69.0008156
 131.8178398  63.9916618  64.8641023 132.5129303  64.6123311  65.0828338
 132.1601548  63.1411970  65.1393401 117.4346207  55.8134419  78.7237840
 116.6927943  55.9617055  79.3102471 117.1138952  56.0742685  77.8604590
 133.7169821  61.4416324  66.3928354 134.2421145  61.7803597  65.6677674
 133.6292174  60.5063339  66.2091488 125.3789870  65.3550398  78.5218230
 125.6876997  65.1099544  79.3940930 126.1765352  65.5597036  78.0337101
 125.4010482  67.5088307  70.7523607 124.9615472  67.0164686  71.4456464
 126.1518599  66.9661275  70.5115682 117.8802821  63.6999848  70.7548235
 118.7060841  63.4003620  70.3746878 117.5296873  62.9307471  71.2038024
 122.8484354  63.0526316  72.8245909 122.2264364  62.3897021  72.5248136
 123.5189221  63.0787448  72.1419556 116.0811426  61.6186175  71.7137169
 115.2443334  61.1908349  71.5321170 116.0535072  61.8118618  72.6507960
 122.9208882  51.5308104  82.4178415 122.9697037  52.4070227  82.0356184
 123.4631396  50.9885497  81.8450058 133.4063727  62.0749228  81.6979552
 132.6159271  62.0573366  81.1584051 133.1697082  62.6137521  82.4528588
 133.5261602  58.9241694  79.0112280 133.5759607  58.7591701  79.9527803
 133.4175526  58.0568953  78.6210161 122.4097861  61.6030240  66.3004369
 122.5585982  62.2865704  65.6471042 123.2164305  61.5835330  66.8153825
 130.8165365  54.9072622  80.3271587 131.7175228  54.7679087  80.0355585
 130.8913339  55.0727077  81.2669764 125.1508170  52.2839477  79.1724773
 124.2811480  52.5773043  78.9007362 125.3867651  52.8679922  79.8932037
 135.0279799  61.3438636  79.2554302 134.7364608  61.7068616  80.0917763
 134.4151931  60.6305644  79.0767634 136.2275482  58.9091515  71.7756872
 137.0622373  59.3481319  71.9394432 136.3634610  58.4330169  70.9565118
 133.2766988  56.4671250  77.7234360 133.7521109  56.6598896  76.9153211
 132.3532553  56.5230436  77.4777743 120.1650494  57.6295417  67.3065438
 119.9196536  56.7257747  67.5045648 120.3346409  57.6312568  66.3644916
 127.8547204  48.5019094  76.6890194 128.3729148  49.2380121  76.3636682
 127.5002337  48.8083087  77.5236953 119.4346142  53.3623775  64.8051599
 118.7415387  53.4368130  64.1491635 119.1897894  52.5984119  65.3273116
 128.1059798  44.9219376  72.2091090 128.3861552  44.2542565  72.8351517
 128.8910405  45.1148472  71.6965754 125.9093267  64.0978370  63.7716117
 125.3367234  64.7168557  63.3186588 126.4826060  64.6477732  64.3056038
 131.9768657  53.3437010  75.9562665 132.9286079  53.4435108  75.9774889
 131.8072107  52.5515279  76.4660750 129.9983036  50.4292593  76.1422066
 129.4032968  50.7097606  75.4468555 129.7132733  50.9186494  76.9138807
 129.1290526  64.3815520  64.9024699 130.0621200  64.3161082  65.1057574
 129.0413739  65.2171787  64.4439231 131.7578543  63.6981391  61.8628646
 131.6792175  63.3641254  62.7564404 132.5788210  64.1903159  61.8620119
 134.4556734  56.5643130  75.0704965 134.4233054  55.6259131  75.2564649
 135.0657358  56.6427167  74.3370790 126.2940065  55.4339183  61.1132169
 127.2399170  55.3045391  61.1820587 125.9154310  54.6953845  61.5901597
 134.6051223  53.3554173  75.1163248 134.0890271  52.5712630  74.9293177
 135.4891171  53.0272890  75.2809768 132.2661950  47.0995189  71.0759061
 132.0686771  46.7910277  71.9602393 132.8761655  47.8256828  71.2056991
 140.2733284  57.6259137  74.2111002 141.0036673  57.3644425  74.7718705
 139.6640230  56.8887859  74.2513070 138.3548581  55.7666999  74.8085453
 137.6281745  55.6322964  74.2001945 137.9395868  56.0743828  75.6142171
 126.1778758  59.4856929  82.5732826 127.0981767  59.6635528  82.7672873
 126.1428341  58.5412974  82.4212525 124.4782982  53.3589159  61.0487054
 123.5714438  53.0622272  61.1249768 124.7558963  53.0618977  60.1821340
 115.3960923  54.6795523  71.4986101 115.0763707  53.8260831  71.2060475
 114.8494351  54.8944101  72.2544068 119.1740830  57.3957964  75.2155607
 119.3926840  58.3275071  75.2343641 119.5866604  57.0365938  76.0010411
 126.0945048  47.9026049  67.2031296 125.2845776  47.5573134  67.5786542
 126.7829465  47.5933593  67.7918907 128.0235596  46.9804096  68.8255592
 128.5766635  47.3999549  69.4845615 128.2605683  46.0539844  68.8678548
 124.0468696  52.9691169  84.6058356 123.9465422  53.9185526  84.5370447
 123.8290238  52.6409408  83.7334426 123.2481767  50.2176094  61.1899033
 124.1100931  50.5430993  61.4494851 123.4332111  49.4307590  60.6772099
 115.2649183  58.2998434  73.4679222 114.5712654  57.8852387  72.9549177
 116.0122174  58.3418971  72.8712641 131.4014403  49.0904621  68.3334256
 130.8213073  49.7489425  67.9512309 131.1350336  48.2681966  67.9221674
 129.8517970  48.4909679  70.5355577 130.3517748  48.6026213  69.7269896
 130.4953578  48.1870732  71.1756385 123.9099966  56.3988308  83.4223418
 123.4267047  57.1988668  83.6287307 123.9960905  56.4096253  82.4690862
 117.1785925  58.2316688  71.3445237 117.1556613  58.3304375  70.3927120
 117.4886562  59.0781839  71.6662403 119.8373303  60.2892843  75.4591852
 120.7916557  60.2576785  75.3921783 119.6385827  59.8283467  76.2742077
 120.4272685  58.8593959  78.0262649 121.2465574  59.3538038  78.0497486
 120.7009493  57.9425927  77.9980217 130.1839281  51.2504711  67.3890605
 129.2965136  51.5354362  67.1710799 130.5993271  51.0898475  66.5417882
 133.5353818  51.2751232  71.1044944 134.3114208  51.7647685  71.3769561
 132.8101952  51.7009287  71.5616813 135.9726376  51.9878852  72.1618885
 136.5670867  51.7474587  71.4512193 136.0452960  51.2685982  72.7892421
 118.1923532  65.8312462  72.4762049 118.0578000  65.0712863  71.9100047
 117.7755594  66.5553362  72.0090838 129.3282495  61.0149386  61.4838625
 130.0318345  61.2199389  62.0996280 128.6045144  61.5826148  61.7487708
 130.1580305  56.7659247  67.6040895 130.1015507  57.2227799  66.7648527
 130.7108648  56.0049932  67.4263738 133.9685111  52.5548979  68.4291014
 133.7122045  52.1545615  69.2599222 133.3437979  53.2692773  68.3041154
 138.2797449  55.2945052  70.9362306 137.7197007  55.3638242  71.7093868
 137.6740952  55.1186037  70.2161802 121.3492658  66.7281780  72.6880492
 121.2325042  67.6727212  72.5859182 120.5285104  66.4255341  73.0766291
 131.2369192  61.4531915  63.5337085 132.0714796  61.0213114  63.3514560
 131.0753535  61.2813929  64.4613979 130.8915085  57.9564029  64.8993424
 130.8363888  57.7908300  63.9581868 130.2661140  58.6640061  65.0555614
 115.6807600  53.1932093  78.7254846 116.3266463  52.6831047  79.2142071
 115.4724751  53.9300775  79.2998272 128.2060992  60.2612940  84.2246987
 129.0752151  60.4353593  83.8633622 127.7267743  61.0807357  84.1022716
 124.2011210  47.4572138  64.4778742 124.1889880  48.4013977  64.6347013
 125.0934632  47.2742283  64.1838204 122.3747172  67.3810041  75.9036420
 123.2774419  67.4133652  76.2202915 122.1484542  66.4510492  75.9182756
 124.1300774  66.1341028  72.5646499 123.1796405  66.1342890  72.4510871
 124.4333260  65.3873763  72.0482534 128.0163329  44.0514914  68.7324679
 127.2495725  43.4973401  68.8781362 128.4274034  44.1236783  69.5938831
 120.0205091  50.3399710  82.8229860 120.8836552  49.9836515  83.0333185
 119.4470501  50.0013605  83.5105265 139.8653467  71.9701566  73.6292261
 140.5031877  71.8508314  72.9255602 139.7474310  72.9182410  73.6880214
 136.6743174  71.9228994  73.5653786 136.3361685  71.8070059  72.6774321
 137.5432942  71.5220160  73.5454792 132.5329989  73.7764471  69.5550677
 131.9694855  73.6854408  68.7866965 132.4182384  72.9564375  70.0353170
 137.1562957  73.0763846  79.5239992 137.1451597  72.6816644  78.6520495
 137.3183596  72.3429919  80.1173763 130.0794421  75.2715662  72.3934898
 130.8715713  74.9306487  71.9781197 130.3191072  75.3810637  73.3137051
 138.1129548  77.4435439  64.8665142 137.4617528  78.0289519  64.4799156
 138.9073911  77.9741633  64.9260180 132.0385175  74.5324576  65.2652276
 132.8116051  73.9853563  65.1265152 132.3910574  75.3968825  65.4766738
 133.8770218  75.8600958  78.4719176 133.5860084  76.7646589  78.3565842
 134.5127202  75.9017486  79.1863245 134.8026425  73.2377806  75.0620535
 135.3989997  73.0133829  74.3477498 134.8601396  72.4962552  75.6645983
 134.3751453  70.6917242  62.8970726 134.6276974  70.1698763  62.1354189
 133.4376012  70.5283387  62.9997410 139.4194736  69.6953020  70.7045470
 140.2057825  69.2772443  70.3535887 139.6833440  70.5999112  70.8727118
 139.5904813  75.1325870  65.4034126 138.9550646  75.2060497  66.1155031
 139.2602220  75.7219469  64.7253206 134.0947742  72.5945348  65.0995101
 133.9784000  71.9190251  65.7676186 134.2050002  72.1077722  64.2827254
 136.4379283  72.0555495  68.8041790 136.0737490  71.5286116  69.5154712
 137.2946399  71.6653964  68.6308276 142.3428583  63.3449827  76.0673057
 142.0111908  64.2145238  75.8434272 141.7474197  63.0286111  76.7467087
 136.0784770  67.0845395  63.8003139 136.2459172  67.9525631  64.1673610
 135.8881939  67.2472676  62.8764428 138.8360103  75.5462373  75.4668969
 138.5360826  76.4487412  75.3584777 138.4911162  75.2794557  76.3190122
 132.2872584  71.9976170  71.5005674 131.3623081  71.8652384  71.7083366
 132.5356998  72.7770390  71.9975616 142.2357247  68.0644914  73.1466407
 141.3274124  67.9960322  72.8525168 142.1844843  68.5416859  73.9748232
 136.0573991  69.5403052  64.7849806 135.9373616  69.9860103  65.6235286
 135.3626579  69.8888370  64.2263344 129.6481395  71.6409444  72.3349463
 129.7773777  71.8943923  73.2488875 128.9678847  72.2337152  72.0154118
 133.8180883  82.3106694  68.4339937 133.7404912  83.2614519  68.5128418
 133.2142526  81.9652566  69.0914863 136.3098112  69.4834559  81.0901304
 135.5331447  70.0428479  81.0804169 136.9488676  69.9691342  81.6116174
 141.7559057  70.0124525  65.6130140 142.6676913  70.2451912  65.4377837
 141.2468704  70.5961569  65.0505218 134.5644485  72.2920013  80.6519271
 135.3059169  72.8305057  80.3754095 133.8581470  72.9186301  80.8090823
 140.0399824  74.4349153  79.2491432 140.4483180  73.9931564  78.5046065
 139.3177086  73.8601781  79.5025625 136.3930894  69.3721760  76.6224989
 137.2392090  69.7961173  76.7659638 136.3329532  68.7155384  77.3163553
 140.3628639  74.9950344  73.0043721 139.7337502  75.1596058  72.3019789
 139.9754301  75.4091953  73.7754685 139.5430340  67.0326128  78.2806163
 139.2991272  67.7868189  77.7440439 139.8190270  67.4111476  79.1153410
 141.4968803  73.5764741  76.9583429 141.7085698  74.2196500  76.2817810
 141.4498551  72.7427057  76.4905359 139.0995032  66.1882561  73.8620001
 138.2379511  66.4863815  74.1536738 139.1257466  66.4052960  72.9301033
 135.9156601  74.7324752  70.2693806 136.3794947  75.0112455  69.4798429
 135.6513399  73.8308196  70.0866897 132.8080682  74.2796233  73.2073570
 133.3782039  74.7083502  72.5691054 133.3988794  73.9978818  73.9057755
 134.8525487  70.8547904  67.0783372 135.5549530  71.3068948  67.5457298
 134.5206116  70.2131723  67.7063265 133.3005849  69.4459661  81.4534581
 132.6704509  70.1275942  81.6869978 133.1941936  69.3342742  80.5087719
 128.5950821  69.1131457  72.3800505 127.8049875  69.3688985  71.9040616
 129.0862068  69.9279795  72.4852546 142.6114631  76.4536696  75.1305786
 143.4332074  76.0516883  74.8488468 142.6077033  76.3504930  76.0821902
 130.5465566  69.4776036  69.3383982 129.7496730  69.5894730  69.8567478
 130.3191159  69.8162688  68.4724872 136.3771234  76.0020739  77.2866496
 136.4415667  76.4641147  78.1224668 135.6682158  75.3718104  77.4148806
 126.8788524  69.3661947  74.8115496 127.1296562  70.2508957  75.0773072
 127.4148072  69.1866549  74.0390588 136.0919252  77.6688847  67.1545477
 135.9564926  78.5140383  67.5830325 136.6329064  77.8708124  66.3911411
 132.5786591  63.7480427  83.8159832 132.1853537  63.1946625  84.4907476
 133.3952732  64.0591005  84.2066350 129.5448649  75.1864285  67.7273402
 130.0573170  75.9807535  67.8778967 130.1971362  74.4890575  67.6607003
 131.3543534  78.3030041  69.8096155 131.5310162  79.2248006  69.6217139
 132.1500367  77.9888460  70.2390535 135.4954552  65.1638306  81.4080089
 136.2364266  65.7645459  81.3284551 135.7272475  64.4215944  80.8498131
 130.6395890  70.3494673  79.6858318 130.5249405  69.4479930  79.9865417
 129.7840408  70.5958370  79.3343135 137.7187728  78.2912413  81.2845819
 137.2751582  77.5048792  80.9666723 138.3804942  78.4791564  80.6189710
 132.4774849  79.8208215  75.8106497 133.0282274  79.6925278  75.0383491
 131.6386325  80.1203104  75.4601390 139.8168966  78.5715213  79.3127220
 139.7987441  79.3924094  78.8207489 140.7388886  78.4469288  79.5377361
 136.2742020  76.0859343  80.1550729 136.8070357  75.3247631  79.9250036
 135.7456101  75.7932995  80.8974883 139.4411715  61.1919409  75.6844370
 139.0975985  62.0821050  75.6083481 139.8090678  61.0021066  74.8213955
 127.5097566  73.5152939  68.5032972 128.3472788  73.9249947  68.2866680
 127.6875834  72.5752381  68.4733166 139.4061998  71.1828020  64.1916805
 138.8908621  71.9532624  64.4305193 139.1339306  70.5093156  64.8149867
 136.9909109  66.0277721  69.2502044 136.1350705  65.6384571  69.0707682
 137.4036061  66.1069681  68.3901829 138.5208256  63.5624064  73.6493604
 138.0173051  63.5254199  72.8361409 138.8138862  64.4716807  73.7090260
 134.7651141  63.6462794  72.6559785 135.6304138  63.4505602  72.2965675
 134.8328650  63.4173145  73.5829142 139.1948301  69.0555112  66.0176587
 138.8898437  69.3701261  66.8686730 140.1478743  69.1336532  66.0603920
 137.6394733  75.2145335  67.6669541 137.1116095  74.4798095  67.3542778
 137.1382236  75.9920012  67.4209509 142.6187579  73.4094356  72.7836587
 141.9611253  74.0993617  72.8716715 143.4227978  73.7990788  73.1270573
 132.3713461  65.8765001  70.0276152 132.9457212  65.6540183  69.2949345
 132.9584443  65.9453696  70.7804753 141.4293038  71.7638728  70.8340529
 141.9424920  72.3968720  71.3362238 142.0794262  71.1639924  70.4683889
 132.6983048  67.9069462  64.0472037 131.8620360  68.2444149  64.3681312
 132.5587817  67.7718442  63.1099174 134.6736128  62.7506250  68.7551221
 134.0200541  62.4355268  68.1307836 134.6316602  62.1281991  69.4811044
 135.7847333  73.0325545  60.6704514 134.8774395  72.8014799  60.8695663
 136.2818365  72.2363165  60.8578495 138.6915412  81.7423053  63.5901200
 138.0177111  82.0454749  64.1986158 139.0781234  82.5452133  63.2406657
 137.9073869  69.2388184  73.0798869 136.9896430  69.4603131  72.9220557
 138.3234012  69.3134494  72.2210576 138.6908916  70.6379600  68.2101549
 139.4380735  71.1500997  67.9008671 138.9600506  70.3163652  69.0705943
 136.9635567  73.1338140  65.1928504 136.0546786  72.8497173  65.2900973
 136.9930650  73.5537219  64.3331811 142.1954834  76.7444730  68.9619671
 141.7417161  75.9035640  69.0184862 141.5648801  77.3806128  69.2994451
 141.1387754  67.6736716  70.1920339 140.4010510  67.1614102  70.5230581
 141.3914527  67.2337097  69.3803616 140.6387773  78.5821227  69.8969489
 140.9310748  79.1426284  69.1781855 141.1486394  78.8749787  70.6522648
 141.2399381  60.4512968  70.7862108 141.5458258  59.5910331  70.4988023
 141.9651986  61.0430588  70.5861102 127.5323737  70.8543654  69.1743706
 127.3348137  70.2613015  68.4494772 126.9770401  70.5495865  69.8919645
 135.5120461  70.7466761  71.2938299 135.5669070  69.7940597  71.2180776
 134.7011663  70.9026200  71.7779597 136.6611654  74.6746884  62.5316582
 136.2231084  73.9582743  62.0722220 137.4022095  74.9022999  61.9701674
 133.4512821  69.3643821  69.0528678 132.6380686  69.6637991  69.4593870
 133.9471815  68.9699509  69.7703160 135.6021398  79.3601578  70.9862943
 135.5597577  79.5862424  70.0571475 136.5184097  79.1264952  71.1348744
 139.0487032  69.8285645  77.8843572 139.4036420  70.0557118  78.7438038
 139.6959163  70.1604022  77.2620827 132.9426895  66.9362176  74.6689913
 133.5826275  66.7950935  73.9712876 132.1104426  66.6496690  74.2928515
 133.7187199  76.2364607  70.7824905 134.5127798  75.7414927  70.5807480
 133.0078892  75.7082470  70.4192611 138.5382044  78.6182702  75.1337273
 138.5919066  79.1873638  75.9014989 137.6696825  78.7884587  74.7691310
 130.0269963  70.3807688  66.8584658 129.0967551  70.3192144  67.0754620
 130.1227435  69.8583641  66.0621299 129.9455512  66.9062501  69.4462900
 130.2062329  67.8207834  69.3372060 130.7672684  66.4386944  69.5959512
 131.4180437  68.3200258  76.6161724 132.0903490  68.1117620  75.9674373
 130.5910224  68.1222344  76.1766956 137.3206009  64.9462199  78.6327385
 136.6733924  65.6452149  78.5391861 138.0907024  65.3798343  79.0003633
 140.7284807  75.2111051  81.7077938 140.5770313  74.9821603  80.7908022
 140.7189486  76.1681653  81.7209283 137.4970143  72.7842964  76.6924205
 138.4262203  72.9354124  76.5193172 137.0761173  72.8726985  75.8372851
 136.2958475  76.8093629  74.4622742 136.1569561  76.4412413  75.3348680
 135.5073071  77.3241268  74.2906700 136.8906627  81.9102725  65.8048279
 137.0658383  81.4390768  66.6193902 136.2039415  82.5368491  66.0329540
 137.8463690  76.1875231  71.8511580 137.5113523  76.1476001  72.7469230
 137.3467636  75.5219947  71.3781990 131.8207934  71.5942861  77.3764161
 131.6827732  70.8623100  77.9775700 132.7312858  71.5051761  77.0948349
 140.7822882  73.5331266  62.1248640 140.1652053  72.8078094  62.0281692
 140.3139370  74.2940626  61.7815714 134.4490235  71.3062821  76.8647841
 135.1589853  70.6656013  76.8234459 134.4059543  71.5575715  77.7874022
 142.4377014  78.2430174  79.7854420 142.3789560  77.5589394  79.1185003
 142.8396532  78.9849164  79.3335046 133.1619169  68.2928039  78.6843480
 132.6256526  67.8418777  79.3365077 132.5735877  68.4273947  77.9413945
 131.4567712  85.0592088  72.5788139 131.6964311  85.6910612  73.2567158
 130.6136909  84.7080128  72.8653498 132.5721428  67.7516690  61.2469944
 131.6950894  67.6305491  60.8832191 133.0479181  66.9602768  60.9948833
 142.4394421  76.2069758  78.0168400 141.5521200  75.8695680  78.1394799
 143.0092972  75.4752789  78.2537165 124.0923568  72.5393850  71.3411451
 124.7794608  72.2255580  70.7532467 123.9371697  73.4435214  71.0678703
 128.8958290  67.4284046  75.7696475 128.8116479  66.8209716  75.0346885
 128.0740997  67.9193065  75.7705971 135.9695574  80.8671210  74.9829643
 135.8965746  81.6726182  75.4948948 135.5272967  81.0663176  74.1577664
 135.7585354  80.1042980  68.4932465 134.9752876  80.6464660  68.5870689
 136.4578099  80.6216960  68.8926706 139.0682004  65.9137610  71.1366670
 139.5650704  65.1607572  70.8167740 138.2968986  65.9501926  70.5709879
 138.4294258  80.7658044  77.1387802 139.1422230  81.4005509  77.0663703
 137.9384286  80.8621910  76.3227804 140.1511785  74.6709297  68.7105093
 139.2168063  74.7910759  68.5409798 140.3288453  73.7681764  68.4465103
 135.6516973  68.0554993  70.8638355 135.2814760  67.5026033  71.5519260
 136.1476065  67.4513126  70.3113355 133.4806171  78.5152488  77.9593373
 134.1815631  79.1488971  78.1122767 133.0101286  78.8567219  77.1989012
 141.6060567  76.8570438  66.2441280 141.8820411  76.7427032  67.1535154
 140.7365066  76.4587922  66.2053453 141.5100999  62.8807203  73.2846029
 140.5964079  63.1111430  73.4528236 141.9394100  62.9645647  74.1360061
 141.2807457  71.0697095  75.7845923 140.6278908  71.3173003  75.1298376
 141.6587837  70.2561233  75.4508400 138.2414631  81.1056788  69.8874093
 138.4237026  80.2878444  70.3501846 139.0647617  81.3224481  69.4498983
 138.5756797  80.0324974  67.1489142 139.1044563  79.5217428  66.5359304
 138.8385016  79.7167504  68.0134675 137.3295030  71.8116906  82.2711960
 136.6535667  71.7111036  82.9414335 138.1522664  71.6556120  82.7347957
 129.0773889  78.0488843  74.8924475 129.6627326  77.3032531  75.0252379
 128.8798728  78.3592800  75.7761139 131.9312545  81.0840090  69.9086918
 131.2622920  81.5686218  69.4250958 131.7925414  81.3309311  70.8230296
 123.6691544  70.6194443  73.6128918 123.7075644  70.0858034  74.4066036
 123.1631837  70.0929649  72.9939896 136.0717813  83.1183834  76.5069576
 136.6236121  83.2815455  77.2718661 136.4124007  83.7088272  75.8349601
 131.0482306  65.4658984  77.1091461 131.1123633  66.3273814  76.6968858
 130.9849427  64.8532985  76.3763819 130.5234579  67.5382116  80.7564495
 131.1506618  67.1559193  81.3702019 129.6662498  67.3196318  81.1220187
 140.9228688  77.9445091  82.3618230 141.4668592  78.5575050  81.8673185
 140.3415532  78.5024670  82.8785243 127.3000122  69.3458545  66.6882850
 127.5953563  68.4369224  66.6349903 126.3988158  69.3246285  66.3663852
 139.2086201  81.0665809  73.4933258 139.0837340  80.2655549  72.9844204
 139.8665292  81.5612003  73.0047228 130.8294369  67.4214542  72.6710398
 130.1080954  68.0350509  72.5317872 131.6187625  67.9572307  72.5927044
 141.2721109  78.8674829  75.1212808 140.3251444  78.7480181  75.0491135
 141.6203882  77.9797327  75.2039070 133.6320682  64.7568968  78.9451050
 134.1555084  65.0031265  79.7077359 133.4133016  65.5889003  78.5254187
 129.0287963  67.0272643  66.8122175 128.7000669  66.1470022  66.6297281
 129.3827334  66.9720312  67.6998564 138.2767542  78.6627546  71.3217160
 138.1292505  77.7344253  71.5024730 139.1021036  78.6847636  70.8374236
 132.1429786  67.3145613  67.1797653 132.4825859  67.8431534  66.4576261
 132.5901907  67.6526019  67.9556219 141.8801664  79.4856104  72.4082033
 142.8048212  79.2798966  72.2706484 141.7116967  79.2372505  73.3171375
 134.8373227  65.6982663  76.6300721 134.4970048  64.8990476  77.0321401
 134.1312234  65.9984374  76.0577554 135.4889699  62.7831976  75.0828044
 136.3115768  62.3092454  74.9606934 135.7327763  63.5622460  75.5826730
 134.1297934  65.8120234  65.3790945 134.8506296  66.1901487  64.8754662
 133.5063238  66.5309111  65.4825923 138.2729057  66.5165383  66.3149278
 138.4892671  67.3990021  66.0138106 137.7923124  66.1251597  65.5854920
 133.0128278  69.4751096  72.8920022 132.8672859  69.7891399  73.7844304
 132.5353482  70.0935997  72.3390921 134.8724661  66.4653644  72.9400912
 134.8586230  65.5694738  72.6033210 135.5897089  66.4724308  73.5739198
 136.7250791  66.8990985  74.9854039 136.4668569  67.8208055  74.9838370
 136.1935832  66.5021419  75.6754503 141.6696980  80.0041772  67.7644125
 141.8433858  79.4388194  67.0117977 142.1625871  80.8042667  67.5823615
 127.4873940  72.0156441  75.8307683 126.9427408  72.7916249  75.9627958
 128.3653290  72.3627245  75.6726805 134.2761557  65.3468025  68.2088482
 134.3977468  64.4184671  68.4079369 133.9863599  65.3606711  67.2966797
 137.1452747  63.0322935  71.3455202 137.1674444  63.0962268  70.3907181
 137.5620806  62.1927444  71.5395708 142.6572153  79.3208536  64.8641023
 143.3523057  79.9415229  65.0828338 142.9995303  78.4703887  65.1393401
 128.2739962  71.1426337  78.7237840 127.5321698  71.2908972  79.3102471
 127.9532706  71.4034603  77.8604590 136.2183625  80.6842315  78.5218230
 136.5270751  80.4391462  79.3940930 137.0159107  80.8888954  78.0337101
 136.2404237  82.8380225  70.7523607 135.8009227  82.3456604  71.4456464
 136.9912354  82.2953193  70.5115682 128.7196576  79.0291766  70.7548235
 129.5454596  78.7295538  70.3746878 128.3690628  78.2599388  71.2038024
 133.6878109  78.3818234  72.8245909 133.0658118  77.7188939  72.5248136
 134.3582976  78.4079366  72.1419556 126.9205181  76.9478092  71.7137169
 126.0837089  76.5200267  71.5321170 126.8928826  77.1410536  72.6507960
 133.7602636  66.8600022  82.4178415 133.8090792  67.7362145  82.0356184
 134.3025150  66.3177415  81.8450058 133.2491616  76.9322157  66.3004369
 133.3979736  77.6157622  65.6471042 134.0558059  76.9127247  66.8153825
 141.6559119  70.2364540  80.3271587 142.5568982  70.0971005  80.0355585
 141.7307094  70.4018995  81.2669764 135.9901925  67.6131394  79.1724773
 135.1205234  67.9064961  78.9007362 136.2261405  68.1971839  79.8932037
 131.0044249  72.9587335  67.3065438 130.7590291  72.0549665  67.5045648
 131.1740163  72.9604485  66.3644916 138.6940959  63.8311011  76.6890194
 139.2122902  64.5672038  76.3636682 138.3396091  64.1375005  77.5236953
 130.2739896  68.6915693  64.8051599 129.5809141  68.7660048  64.1491635
 130.0291648  67.9276036  65.3273116 138.9453553  60.2511294  72.2091090
 139.2255306  59.5834483  72.8351517 139.7304160  60.4440390  71.6965754
 136.7487021  79.4270288  63.7716117 136.1760988  80.0460475  63.3186588
 137.3219815  79.9769650  64.3056038 140.8376791  65.7584511  76.1422066
 140.2426723  66.0389524  75.4468555 140.5526487  66.2478412  76.9138807
 139.9684281  79.7107438  64.9024699 140.9014954  79.6453000  65.1057574
 139.8807494  80.5463705  64.4439231 142.5972298  79.0273308  61.8628646
 142.5185929  78.6933172  62.7564404 143.4181964  79.5195076  61.8620119
 137.1333820  70.7631101  61.1132169 138.0792924  70.6337309  61.1820587
 136.7548065  70.0245762  61.5901597 137.0172512  74.8148847  82.5732826
 137.9375522  74.9927446  82.7672873 136.9822095  73.8704892  82.4212525
 135.3176737  68.6881077  61.0487054 134.4108192  68.3914190  61.1249768
 135.5952718  68.3910895  60.1821340 126.2354677  70.0087440  71.4986101
 125.9157462  69.1552749  71.2060475 125.6888105  70.2236019  72.2544068
 130.0134585  72.7249881  75.2155607 130.2320595  73.6566989  75.2343641
 130.4260359  72.3657856  76.0010411 136.9338803  63.2317967  67.2031296
 136.1239531  62.8865052  67.5786542 137.6223219  62.9225510  67.7918907
 138.8629351  62.3096013  68.8255592 139.4160389  62.7291467  69.4845615
 139.0999437  61.3831762  68.8678548 134.8862450  68.2983087  84.6058356
 134.7859177  69.2477444  84.5370447 134.6683992  67.9701326  83.7334426
 134.0875521  65.5468012  61.1899033 134.9494685  65.8722910  61.4494851
 134.2725866  64.7599508  60.6772099 126.1042937  73.6290352  73.4679222
 125.4106409  73.2144305  72.9549177 126.8515928  73.6710888  72.8712641
 142.2408158  64.4196539  68.3334256 141.6606827  65.0781343  67.9512309
 141.9744091  63.5973883  67.9221674 140.6911724  63.8201596  70.5355577
 141.1911503  63.9318131  69.7269896 141.3347332  63.5162649  71.1756385
 134.7493720  71.7280226  83.4223418 134.2660802  72.5280586  83.6287307
 134.8354659  71.7388171  82.4690862 128.0179680  73.5608606  71.3445237
 127.9950368  73.6596293  70.3927120 128.3280316  74.4073756  71.6662403
 130.6767058  75.6184761  75.4591852 131.6310311  75.5868703  75.3921783
 130.4779581  75.1575384  76.2742077 131.2666440  74.1885877  78.0262649
 132.0859329  74.6829955  78.0497486 131.5403247  73.2717845  77.9980217
 141.0233036  66.5796629  67.3890605 140.1358891  66.8646280  67.1710799
 141.4387025  66.4190392  66.5417882 129.0317286  81.1604380  72.4762049
 128.8971754  80.4004781  71.9100047 128.6149349  81.8845280  72.0090838
 140.1676249  76.3441304  61.4838625 140.8712100  76.5491306  62.0996280
 139.4438898  76.9118066  61.7487708 140.9974060  72.0951165  67.6040895
 140.9409261  72.5519716  66.7648527 141.5502402  71.3341850  67.4263738
 132.1886412  82.0573697  72.6880492 132.0718796  83.0019130  72.5859182
 131.3678859  81.7547259  73.0766291 142.0762947  76.7823833  63.5337085
 142.9108551  76.3505031  63.3514560 141.9147290  76.6105847  64.4613979
 141.7308839  73.2855946  64.8993424 141.6757643  73.1200218  63.9581868
 141.1054894  73.9931979  65.0555614 126.5201354  68.5224011  78.7254846
 127.1660218  68.0122965  79.2142071 126.3118505  69.2592692  79.2998272
 139.0454746  75.5904858  84.2246987 139.9145906  75.7645510  83.8633622
 138.5661498  76.4099275  84.1022716 135.0404964  62.7864055  64.4778742
 135.0283634  63.7305895  64.6347013 135.9328386  62.6034201  64.1838204
 133.2140926  82.7101959  75.9036420 134.1168173  82.7425569  76.2202915
 132.9878296  81.7802410  75.9182756 134.9694528  81.4632946  72.5646499
 134.0190159  81.4634807  72.4510871 135.2727015  80.7165680  72.0482534
 138.8557084  59.3806832  68.7324679 138.0889480  58.8265319  68.8781362
 139.2667789  59.4528701  69.5938831 130.8598845  65.6691628  82.8229860
 131.7230307  65.3128433  83.0333185 130.2864256  65.3305522  83.5105265
 143.3723744  89.1056389  69.5550677 142.8088609  89.0146325  68.7866965
 143.2576139  88.2856293  70.0353170 140.9188176  90.6007580  72.3934898
 141.7109468  90.2598405  71.9781197 141.1584826  90.7102555  73.3137051
 143.1266339  87.3268088  71.5005674 142.2016835  87.1944302  71.7083366
 143.3750752  88.1062307  71.9975616 140.4875150  86.9701362  72.3349463
 140.6167531  87.2235840  73.2488875 139.8072601  87.5629070  72.0154118
 139.4344575  84.4423374  72.3800505 138.6443629  84.6980903  71.9040616
 139.9255823  85.2571712  72.4852546 141.3859321  84.8067954  69.3383982
 140.5890484  84.9186648  69.8567478 141.1584913  85.1454606  68.4724872
 137.7182278  84.6953865  74.8115496 137.9690317  85.5800875  75.0773072
 138.2541827  84.5158466  74.0390588 140.3842404  90.5156202  67.7273402
 140.8966924  91.3099453  67.8778967 141.0365116  89.8182493  67.6607003
 142.1937288  93.6321959  69.8096155 142.3703917  94.5539923  69.6217139
 142.9894122  93.3180378  70.2390535 141.4789645  85.6786591  79.6858318
 141.3643160  84.7771848  79.9865417 140.6234163  85.9250287  79.3343135
 138.3491320  88.8444857  68.5032972 139.1866542  89.2541865  68.2866680
 138.5269588  87.9044299  68.4733166 138.3717491  86.1835572  69.1743706
 138.1741891  85.5904933  68.4494772 137.8164155  85.8787782  69.8919645
 140.8663717  85.7099606  66.8584658 139.9361305  85.6484062  67.0754620
 140.9621189  85.1875559  66.0621299 140.7849266  82.2354419  69.4462900
 141.0456084  83.1499752  69.3372060 141.6066439  81.7678861  69.5959512
 142.2574192  83.6492176  76.6161724 142.9297245  83.4409538  75.9674373
 141.4303978  83.4514262  76.1766956 142.2961467 100.3884005  72.5788139
 142.5358065 101.0202530  73.2567158 141.4530663 100.0372046  72.8653498
 134.9317323  87.8685767  71.3411451 135.6188362  87.5547497  70.7532467
 134.7765451  88.7727132  71.0678703 139.7352045  82.7575964  75.7696475
 139.6510233  82.1501633  75.0346885 138.9134751  83.2484982  75.7705971
 139.9167644  93.3780760  74.8924475 140.5021081  92.6324448  75.0252379
 139.7192482  93.6884717  75.7761139 142.7706299  96.4132008  69.9086918
 142.1016674  96.8978136  69.4250958 142.6319169  96.6601228  70.8230296
 134.5085299  85.9486361  73.6128918 134.5469398  85.4149951  74.4066036
 134.0025591  85.4221566  72.9939896 141.8876061  80.7950901  77.1091461
 141.9517387  81.6565732  76.6968858 141.8243181  80.1824903  76.3763819
 141.3628333  82.8674034  80.7564495 141.9900372  82.4851111  81.3702019
 140.5056252  82.6488236  81.1220187 138.1393876  84.6750463  66.6882850
 138.4347317  83.7661141  66.6349903 137.2381912  84.6538202  66.3663852
 141.6688123  82.7506459  72.6710398 140.9474709  83.3642427  72.5317872
 142.4581379  83.2864224  72.5927044 139.8681718  82.3564561  66.8122175
 139.5394424  81.4761939  66.6297281 140.2221089  82.3012229  67.6998564
 142.9823541  82.6437530  67.1797653 143.3219613  83.1723452  66.4576261
 143.4295661  82.9817936  67.9556219 138.3267695  87.3448358  75.8307683
 137.7821163  88.1208166  75.9627958 139.2047044  87.6919163  75.6726805
 139.1133716  86.4718255  78.7237840 138.3715452  86.6200890  79.3102471
 138.7926461  86.7326520  77.8604590 139.5590330  94.3583683  70.7548235
 140.3848350  94.0587455  70.3746878 139.2084382  93.5891306  71.2038024
 137.7598935  92.2770010  71.7137169 136.9230843  91.8492184  71.5321170
 137.7322581  92.4702453  72.6507960 141.8438003  88.2879253  67.3065438
 141.5984045  87.3841583  67.5045648 142.0133918  88.2896403  66.3644916
 141.1133651  84.0207610  64.8051599 140.4202896  84.0951965  64.1491635
 140.8685403  83.2567954  65.3273116 137.0748432  85.3379358  71.4986101
 136.7551216  84.4844666  71.2060475 136.5281860  85.5527936  72.2544068
 140.8528339  88.0541799  75.2155607 141.0714349  88.9858907  75.2343641
 141.2654113  87.6949773  76.0010411 136.9436692  88.9582270  73.4679222
 136.2500163  88.5436222  72.9549177 137.6909683  89.0002806  72.8712641
 138.8573434  88.8900523  71.3445237 138.8344122  88.9888211  70.3927120
 139.1674071  89.7365674  71.6662403 141.5160812  90.9476678  75.4591852
 142.4704066  90.9160621  75.3921783 141.3173336  90.4867302  76.2742077
 142.1060194  89.5177794  78.0262649 142.9253083  90.0121873  78.0497486
 142.3797002  88.6009763  77.9980217 139.8711041  96.4896298  72.4762049
 139.7365509  95.7296699  71.9100047 139.4543103  97.2137198  72.0090838
 143.0280167  97.3865615  72.6880492 142.9112551  98.3311047  72.5859182
 142.2072613  97.0839176  73.0766291 137.3595108  83.8515928  78.7254846
 138.0053972  83.3414882  79.2142071 137.1512260  84.5884610  79.2998272
 141.6992599  80.9983545  82.8229860 142.5624061  80.6420350  83.0333185
 141.1258010  80.6597440  83.5105265  97.5613159   6.2902032  59.1180204
  98.3534451   5.9492857  58.7026504  97.8009809   6.3997007  60.0382358
 105.5948286   8.4621808  51.5910449 104.9436266   9.0475889  51.2044462
 106.3892649   8.9928003  51.6505486 101.3588956   6.8787328  65.1964482
 101.0678822   7.7832958  65.0811149 101.9945940   6.9203855  65.9108552
 101.2999621  13.3293063  55.1585244 101.2223650  14.2800888  55.2373724
 100.6961264  12.9838936  55.8160170 103.5737989   8.6875216  53.8790783
 103.4383664   9.5326752  54.3075631 104.1147802   8.8894494  53.1156717
  97.0267387   6.2050654  54.4518709  97.5391907   6.9993905  54.6024273
  97.6790100   5.5076945  54.3852310  98.8362272   9.3216411  56.5341462
  99.0128900  10.2434375  56.3462446  99.6319105   9.0074830  56.9635841
 105.2006466   9.3098783  68.0091126 104.7570320   8.5235161  67.6912030
 105.8623679   9.4977933  67.3435016  99.9593587  10.8394584  62.5351804
 100.5101012  10.7111648  61.7628798  99.1205063  11.1389473  62.1846697
 107.2987704   9.5901583  66.0372527 107.2806179  10.4110464  65.5452796
 108.2207624   9.4655658  66.2622668 106.1734150  12.7609422  50.3146506
 105.4995849  13.0641119  50.9231464 106.5599972  13.5638503  49.9651963
 108.1206511   9.6007596  56.6214796 108.4129485  10.1612653  55.9027162
 108.6305132   9.8936157  57.3767955 103.0840136  10.3787947  57.7108249
 103.0416315  10.6048793  56.7816781 104.0002835  10.1451322  57.8594050
 106.0200781   9.6369072  61.8582580 106.0737804  10.2060008  62.6260295
 105.1515563   9.8070957  61.4936617 103.7777213   7.8279998  61.1868049
 103.6388299   7.4598783  62.0593987 102.9891809   8.3427638  61.0152007
 104.3725365  12.9289095  52.5293586 104.5477121  12.4577138  53.3439208
 103.6858153  13.5554861  52.7574846  98.9386450  16.0778457  59.3033446
  99.1783048  16.7096982  59.9812464  98.0955647  15.7266497  59.5898805
 103.4514312  11.8857580  61.7074950 103.3784484  12.6912551  62.2194254
 103.0091705  12.0849546  60.8822971 103.2404092  11.1229350  55.2177771
 102.4571614  11.6651030  55.3115996 103.9396837  11.6403329  55.6172012
 105.9112996  11.7844414  63.8633108 106.6240968  12.4191879  63.7909010
 105.4203024  11.8808280  63.0473110 100.9624909   9.5338857  64.6838679
 101.6634369  10.1675340  64.8368073 100.4920024   9.8753589  63.9234318
 105.7233369  12.1243158  56.6119400 105.9055764  11.3064814  57.0747152
 106.5466355  12.3410850  56.1744290 106.0575534  11.0511343  53.8734448
 106.5863301  10.5403798  53.2604610 106.3203754  10.7353873  54.7379981
  96.5592627   9.0675212  61.6169782  97.1446064   8.3218900  61.7497686
  96.3617466   9.3779169  62.5006446  99.4131282  12.1026460  56.6332224
  98.7441658  12.5872587  56.1496264  99.2744152  12.3495680  57.5475603
 103.5536551  14.1370203  63.2314883 104.1054859  14.3001825  63.9963968
 103.8942744  14.7274641  62.5594907 106.6904938  12.0852179  60.2178565
 106.5656078  11.2841919  59.7089510 107.3484029  12.5798372  59.7292535
 105.7586280   9.6813915  58.0462467 105.6111242   8.7530623  58.2270037
 106.5839773   9.7034006  57.5619542 109.3620402  10.5042474  59.1327340
 110.2866949  10.2985335  58.9951791 109.1935705  10.2558875  60.0416681
 109.1515718  11.0228141  54.4889431 109.3252596  10.4574564  53.7363284
 109.6444609  11.8229036  54.3068921 103.7002362  11.7028685  65.2463537
 104.0089489  11.4577832  66.1186237 104.4977844  11.9075323  64.7582407
 103.7222974  13.8566595  57.4768914 103.2827965  13.3642973  58.1701770
 104.4731091  13.3139562  57.2360989  96.2015313  10.0478135  57.4793542
  97.0273333   9.7481907  57.0992185  95.8509365   9.2785758  57.9283330
 101.1696847   9.4004604  59.5491215 100.5476856   8.7375309  59.2493443
 101.8401713   9.4265735  58.8664863  94.4023918   7.9664462  58.4382475
  93.5655827   7.5386636  58.2566476  94.3747564   8.1596905  59.3753266
 100.7310353   7.9508527  53.0249676 100.8798474   8.6343991  52.3716348
 101.5376797   7.9313617  53.5399131 104.2305759  10.4456657  50.4961423
 103.6579726  11.0646845  50.0431895 104.8038553  10.9956019  51.0301345
 107.4503019  10.7293808  51.6270005 108.3833692  10.6639369  51.8302881
 107.3626232  11.5650074  51.1684538 110.0791035  10.0459678  48.5873953
 110.0004667   9.7119541  49.4809711 110.9000702  10.5381446  48.5865425
  93.5861675   4.6476721  60.1924529  92.8925146   4.2330674  59.6794483
  94.3334666   4.6897258  59.5957948  95.4998418   4.5794975  58.0690544
  95.4769106   4.6782662  57.1172427  95.8099054   5.4260126  58.3907710
  98.1585795   6.6371130  62.1837158  99.1129049   6.6055073  62.1167090
  97.9598319   6.1761754  62.9987384  96.5136024  12.1790750  59.2007356
  96.3790492  11.4191151  58.6345354  96.0968086  12.9031650  58.7336145
  99.6705150  13.0760067  59.4125799  99.5537534  14.0205499  59.3104489
  98.8497596  12.7733628  59.8011598 100.6959664  13.7288329  62.6281727
 101.5986911  13.7611939  62.9448222 100.4697034  12.7988780  62.6428063
 102.4513266  12.4819315  59.2891806 101.5008897  12.4821177  59.1756178
 102.7545752  11.7352050  58.7727840 118.1865960  18.3179854  60.3537568
 118.8244370  18.1986601  59.6500908 118.0686803  19.2660698  60.4125520
 114.9955666  18.2707282  60.2899093 114.6574178  18.1548346  59.4019628
 115.8645434  17.8698447  60.2700099 110.8542482  20.1242758  56.2795984
 110.2907347  20.0332695  55.5112272 110.7394877  19.3042663  56.7598476
 115.4775449  19.4242133  66.2485298 115.4664090  19.0294932  65.3765802
 115.6396088  18.6908206  66.8419070 108.4006914  21.6193950  59.1180204
 109.1928206  21.2784774  58.7026504 108.6403564  21.7288925  60.0382358
 116.4342040  23.7913726  51.5910449 115.7830020  24.3767806  51.2044462
 117.2286403  24.3219921  51.6505486 110.3597668  20.8802863  51.9897583
 111.1328544  20.3331850  51.8510459 110.7123066  21.7447112  52.2012044
 112.1982710  22.2079245  65.1964482 111.9072576  23.1124876  65.0811149
 112.8339694  22.2495773  65.9108552 113.1238917  19.5856094  61.7865842
 113.7202489  19.3612116  61.0722805 113.1813889  18.8440839  62.3891290
 112.6963945  17.0395529  49.6216033 112.9489466  16.5177050  48.8599496
 111.7588504  16.8761675  49.7242717 117.7407228  16.0431307  57.4290776
 118.5270317  15.6250731  57.0781193 118.0045933  16.9477400  57.5972425
 117.9117306  21.4804158  52.1279433 117.2763139  21.5538784  52.8400338
 117.5814712  22.0697757  51.4498512 123.1415655  15.9806541  58.3323755
 123.8740827  15.4105757  58.5661584 122.3855011  15.5928141  58.7730260
 112.4160234  18.9423635  51.8240408 112.2996492  18.2668538  52.4921492
 112.5262494  18.4556009  51.0072561 114.7591775  18.4033782  55.5287097
 114.3949982  17.8764403  56.2400019 115.6158891  18.0132251  55.3553583
 114.3997262  13.4323682  50.5248446 114.5671664  14.3003918  50.8918917
 114.2094431  13.5950964  49.6009735 117.1572595  21.8940661  62.1914276
 116.8573318  22.7965700  62.0830083 116.8123655  21.6272844  63.0435429
 110.6085077  18.3454458  58.2250980 109.6835573  18.2130672  58.4328672
 110.8569490  19.1248677  58.7220923 120.5569739  14.4123201  59.8711713
 119.6486616  14.3438609  59.5770474 120.5057335  14.8895146  60.6993539
 114.3786483  15.8881339  51.5095112 114.2586108  16.3338390  52.3480593
 113.6839071  16.2366657  50.9508651 107.9693888  17.9887731  59.0594770
 108.0986269  18.2422210  59.9734181 107.2891339  18.5815439  58.7399425
 112.1393375  28.6584981  55.1585244 112.0617405  29.6092806  55.2373724
 111.5355019  28.3130854  55.8160170 114.6310605  15.8312846  67.8146611
 113.8543939  16.3906767  67.8049475 115.2701168  16.3169629  68.3361481
 120.0771549  16.3602812  52.3375447 120.9889405  16.5930199  52.1623144
 119.5681196  16.9439857  51.7750525 112.8856977  18.6398300  67.3764578
 113.6271661  19.1783344  67.0999401 112.1793963  19.2664589  67.5336129
 118.3612317  20.7827440  65.9736739 118.7695673  20.3409851  65.2291371
 117.6389578  20.2080068  66.2270932 114.7143387  15.7200047  63.3470296
 115.5604582  16.1439461  63.4904945 114.6542024  15.0633671  64.0408859
 118.6841131  21.3428631  59.7289028 118.0549994  21.5074345  59.0265096
 118.2966793  21.7570240  60.4999992 122.5630363  22.2783069  57.0833392
 121.8781401  22.6581970  56.5330425 122.6474213  22.8878395  57.8165339
 117.8642832  13.3804415  65.0051470 117.6203764  14.1346476  64.4685745
 118.1402763  13.7589763  65.8398717 119.8181295  19.9243028  63.6828735
 120.0298190  20.5674788  63.0063116 119.7711043  19.0905344  63.2150665
 117.4207524  12.5360848  60.5865307 116.5592003  12.8342102  60.8782045
 117.4469958  12.7531247  59.6546340 114.2369093  21.0803039  56.9939113
 114.7007439  21.3590742  56.2043736 113.9725891  20.1786484  56.8112204
 111.1293174  20.6274521  59.9318876 111.6994531  21.0561789  59.2936361
 111.7201286  20.3457105  60.6303062 113.1737979  17.2026191  53.8028678
 113.8762023  17.6547235  54.2702605 112.8418608  16.5610010  54.4308571
 111.6218341  15.7937948  68.1779888 110.9917001  16.4754229  68.4115284
 111.5154429  15.6821030  67.2333026 106.9163313  15.4609744  59.1045812
 106.1262367  15.7167273  58.6285922 107.4074561  16.2758082  59.2097852
 120.9327123  22.8014983  61.8551093 121.7544567  22.3995171  61.5733774
 120.9289526  22.6983217  62.8067208 108.8678059  15.8254323  56.0629288
 108.0709222  15.9373018  56.5812784 108.6403651  16.1640976  55.1970179
 114.6983726  22.3499027  64.0111803 114.7628159  22.8119434  64.8469975
 113.9894650  21.7196391  64.1394113 105.2001016  15.7140235  61.5360803
 105.4509055  16.5987244  61.8018379 105.7360565  15.5344836  60.7635894
 129.0233116  19.1453732  58.2036064 128.2696824  18.5761130  58.0480069
 129.1580657  19.1116396  59.1506699 114.4131744  24.0167134  53.8790783
 114.2777419  24.8618670  54.3075631 114.9541556  24.2186412  53.1156717
 107.8661141  21.5342572  54.4518709 108.3785662  22.3285822  54.6024273
 108.5183854  20.8368863  54.3852310 109.6756026  24.6508328  56.5341462
 109.8522654  25.5726293  56.3462446 110.4712860  24.3366748  56.9635841
 108.9608383  16.6972960  66.4103625 108.8461898  15.7958217  66.7110724
 108.1052900  16.9436657  66.0588441 116.0400220  24.6390701  68.0091126
 115.5964074  23.8527079  67.6912030 116.7017434  24.8269851  67.3435016
 110.7987341  26.1686502  62.5351804 111.3494767  26.0403565  61.7628798
 109.9598817  26.4681391  62.1846697 118.1381458  24.9193500  66.0372527
 118.1199934  25.7402382  65.5452796 119.0601378  24.7947576  66.2622668
 114.5954513  22.4337630  66.8796035 115.1282849  21.6725918  66.6495343
 114.0668594  22.1411282  67.6220190 105.8310058  19.8631226  55.2278279
 106.6685280  20.2728235  55.0111987 106.0088326  18.9230669  55.1978473
 117.7274490  17.5306307  50.9162112 117.2121114  18.3010912  51.1550499
 117.4551799  16.8571443  51.5395173 115.3121601  12.3756008  55.9747350
 114.4563198  11.9862858  55.7952989 115.7248553  12.4547969  55.1147136
 122.7008764  20.2838662  52.8515285 121.9238207  19.9449821  52.4070448
 123.3800245  20.2891285  52.1770251 117.5160793  15.4033399  52.7421893
 117.2110929  15.7179548  53.5932036 118.4691236  15.4814819  52.7849226
 115.9607225  21.5623622  54.3914847 115.4328587  20.8276382  54.0788085
 115.4594728  22.3398299  54.1454815 120.9400071  19.7572643  59.5081893
 120.2823746  20.4471904  59.5962022 121.7440470  20.1469075  59.8515880
 110.6925953  12.2243289  56.7521459 111.2669705  12.0018470  56.0194652
 111.2796935  12.2931983  57.5050060 119.7505530  18.1117016  57.5585835
 120.2637412  18.7447007  58.0607545 120.4006754  17.5118211  57.1929195
 111.0195540  14.2547750  50.7717344 110.1832852  14.5922436  51.0926619
 110.8800310  14.1196730  49.8344481 114.1059825  19.3803833  47.3949820
 113.1986887  19.1493086  47.5940969 114.6030857  18.5841452  47.5823802
 117.0127904  28.0901340  50.3146506 116.3389603  28.3933037  50.9231464
 117.3993726  28.8930420  49.9651963 116.2286361  15.5866471  59.8044176
 115.3108922  15.8081418  59.6465864 116.6446505  15.6612782  58.9455883
 117.0121409  16.9857887  54.9346856 117.7593228  17.4979284  54.6253978
 117.2812998  16.6641940  55.7951250 115.2848059  19.4816428  51.9173810
 114.3759278  19.1975460  52.0146280 115.3143143  19.9015506  51.0577117
 120.5167326  23.0923017  55.6864978 120.0629653  22.2513927  55.7430168
 119.8861293  23.7284415  56.0239758 119.4600246  14.0215003  56.9165645
 118.7223003  13.5092389  57.2475888 119.7127019  13.5815385  56.1048922
 118.9600266  24.9299514  56.6214796 119.2523240  25.4904571  55.9027162
 119.4698886  25.2228075  57.3767955 105.8536229  17.2021942  55.8989012
 105.6560629  16.6091302  55.1740079 105.2982893  16.8974152  56.6164951
 113.8332953  17.0945048  58.0183606 113.8881563  16.1418885  57.9426082
 113.0224155  17.2504487  58.5024904 114.9824147  21.0225171  49.2561889
 114.5443577  20.3061030  48.7967526 115.7234588  21.2501286  48.6946980
 111.7725313  15.7122108  55.7773985 110.9593178  16.0116278  56.1839177
 112.2684307  15.3177797  56.4948467 113.9233891  25.7079865  57.7108249
 113.8810069  25.9340711  56.7816781 114.8396590  25.4743239  57.8594050
 117.3699524  16.1763932  64.6088878 117.7248912  16.4035406  65.4683344
 118.0171656  16.5082309  63.9866134 123.0997261  19.2982368  55.3138207
 122.9615160  19.4883964  54.3859397 122.7433480  20.0601751  55.7706259
 111.2639388  13.2840463  61.3935219 111.9038767  13.1429223  60.6958183
 110.4316918  12.9974977  61.0173821 123.1266641  21.3658895  60.3249479
 123.5603148  21.2734184  61.1732533 123.8398222  21.3416396  59.6869495
 112.0399691  22.5842894  57.5070212 112.8340290  22.0893214  57.3052787
 111.3291384  22.0560757  57.1437917 116.8594536  24.9660989  61.8582580
 116.9131558  25.5351926  62.6260295 115.9909317  25.1362874  61.4936617
 108.3482455  16.7285976  53.5829965 107.4180043  16.6670431  53.7999927
 108.4439927  16.2061928  52.7866606 108.2668004  13.2540788  56.1708206
 108.5274821  14.1686122  56.0617367 109.0885176  12.7865231  56.3204819
 109.7392929  14.6678546  63.3407031 110.4115983  14.4595908  62.6919680
 108.9122716  14.4700632  62.9012263 123.9882191  21.4082596  62.8582364
 124.1818081  22.3128406  63.1041639 123.8882809  20.9490015  63.6920949
 119.0497299  21.5589339  68.4323245 118.8982806  21.3299890  67.5153329
 119.0401979  22.5159940  68.4454590 115.8182636  19.1321251  63.4169511
 116.7474696  19.2832411  63.2438479 115.3973666  19.2205272  62.5618158
 114.6170967  23.1571916  61.1868049 114.4782053  22.7890700  62.0593987
 113.8285564  23.6719555  61.0152007 115.2119119  28.2581012  52.5293586
 115.3870875  27.7869055  53.3439208 114.5251907  28.8846778  52.7574846
 116.1676183  22.5353519  58.5756887 115.8326015  22.4954288  59.4714537
 115.6680128  21.8698234  58.1027297 110.1420427  17.9421149  64.1009468
 110.0040225  17.2101387  64.7021007 111.0525350  17.8530049  63.8193656
 119.1035374  19.8809553  48.8493946 118.4864545  19.1556381  48.7526999
 118.6351863  20.6418913  48.5061021 112.7702727  17.6541108  63.5893148
 113.4802346  17.0134300  63.5479766 112.7272035  17.9054003  64.5119328
 120.7589506  24.5908461  66.5099727 120.7002052  23.9067681  65.8430310
 121.1609024  25.3327451  66.0580353 111.4831661  14.6406326  65.4088787
 110.9469018  14.1897064  66.0610383 110.8948370  14.7752235  64.6659251
 109.7780205  31.4070375  59.3033446 110.0176803  32.0388899  59.9812464
 108.9349401  31.0558415  59.5898805 110.8933920  14.0994977  47.9715251
 110.0163386  13.9783778  47.6077497 111.3691673  13.3081055  47.7194139
 120.7606913  22.5548045  64.7413706 119.8733692  22.2173967  64.8640105
 121.3305464  21.8231076  64.9782472 102.4136060  18.8872137  58.0656758
 103.1007100  18.5733867  57.4777773 102.2584189  19.7913502  57.7924009
 107.2170782  13.7762333  62.4941782 107.1328971  13.1688003  61.7592192
 106.3953489  14.2671352  62.4951278 114.2908067  27.2149498  61.7074950
 114.2178238  28.0204469  62.2194254 113.8485460  27.4141463  60.8822971
 114.0797846  26.4521268  55.2177771 113.2965368  26.9942948  55.3115996
 114.7790591  26.9695247  55.6172012 125.2424254  17.9656263  59.5030268
 125.2314130  18.8480978  59.1324201 124.3741633  17.6127813  59.3084805
 116.7506750  27.1136332  63.8633108 117.4634722  27.7483796  63.7909010
 116.2596779  27.2100198  63.0473110 118.4724277  21.0187584  55.4350400
 117.5380556  21.1389047  55.2655104 118.6500945  20.1160051  55.1710410
 113.9729465  14.4033280  57.5883661 113.6027253  13.8504320  58.2764567
 114.4688558  13.7991413  57.0358661 121.8596828  16.8604903  55.9700434
 122.3257281  17.6932895  55.8960737 122.3104329  16.3949885  56.6745693
 111.8018664  24.8630775  64.6838679 112.5028123  25.4967258  64.8368073
 111.3313779  25.2045507  63.9234318 119.9273059  23.2048725  52.9686586
 120.2032903  23.0905319  53.8780460 119.0577558  22.8066210  52.9298759
 119.6019950  17.4175382  62.5091230 118.9491400  17.6651290  61.8543682
 119.9800330  16.6039521  62.1753707 116.5627123  27.4535076  56.6119400
 116.7449518  26.6356732  57.0747152 117.3860110  27.6702768  56.1744290
 116.8969289  26.3803261  53.8734448 117.4257055  25.8695715  53.2604610
 117.1597509  26.0645791  54.7379981 115.6507523  18.1595194  68.9957267
 114.9748160  18.0589323  69.6659642 116.4735157  18.0034407  69.4593264
 107.3986382  24.3967130  61.6169782 107.9839819  23.6510818  61.7497686
 107.2011220  24.7071087  62.5006446 110.2525037  27.4318377  56.6332224
 109.5835412  27.9164505  56.1496264 110.1137907  27.6787598  57.5475603
 101.9904036  16.9672730  60.3374225 102.0288136  16.4336321  61.1311343
 101.4844329  16.4407936  59.7185202 114.3930306  29.4662121  63.2314883
 114.9448614  29.6293742  63.9963968 114.7336499  30.0566559  62.5594907
 109.3694799  11.8137271  63.8336767 109.4336125  12.6752102  63.4214165
 109.3061919  11.2011272  63.1009126 108.8447071  13.8860403  67.4809802
 109.4719110  13.5037481  68.0947326 107.9874990  13.6674605  67.8465494
 119.2441180  24.2923378  69.0863537 119.7881084  24.9053337  68.5918492
 118.6628025  24.8502957  69.6030550 105.6212614  15.6936832  53.4128156
 105.9166055  14.7847511  53.3595210 104.7200650  15.6724572  53.0909159
 117.5298693  27.4144096  60.2178565 117.4049832  26.6133836  59.7089510
 118.1877784  27.9090290  59.7292535 109.1506861  13.7692829  59.3955705
 108.4293447  14.3828797  59.2563178 109.9400117  14.3050594  59.3172351
 119.5933601  25.2153117  61.8458115 118.6463937  25.0958468  61.7736442
 119.9416374  24.3275615  61.9284376 111.9533175  11.1047255  65.6696357
 112.4767576  11.3509552  66.4322666 111.7345508  11.9367290  65.2499494
 107.3500456  13.3750930  53.5367482 107.0213162  12.4948309  53.3542587
 107.7039826  13.3198599  54.4243871 116.5980034  25.0105833  58.0462467
 116.4504997  24.0822540  58.2270037 117.4233528  25.0325923  57.5619542
 110.4642279  13.6623900  53.9042959 110.8038351  14.1909821  53.1821568
 110.9114399  14.0004306  54.6801526 120.2014156  25.8334392  59.1327340
 121.1260704  25.6277253  58.9951791 120.0329460  25.5850793  60.0416681
 113.1585720  12.0460951  63.3546027 112.8182540  11.2468764  63.7566707
 112.4524726  12.3462661  62.7822860 112.4510426  12.1598521  52.1036252
 113.1718788  12.5379774  51.5999969 111.8275730  12.8787398  52.2071230
 116.5941549  12.8643670  53.0394584 116.8105163  13.7468308  52.7383412
 116.1135616  12.4729884  52.3100226 111.3340770  15.8229384  59.6165329
 111.1885351  16.1369687  60.5089610 110.8565974  16.4414284  59.0636228
 113.1937153  12.8131932  59.6646218 113.1798722  11.9173025  59.3278516
 113.9109581  12.8202595  60.2984505 115.0463284  13.2469272  61.7099346
 114.7881062  14.1686342  61.7083676 114.5148324  12.8499706  62.3999810
 119.9909473  26.3520059  54.4889431 120.1646350  25.7866481  53.7363284
 120.4838364  27.1520954  54.3068921 105.8086432  18.3634728  62.5552990
 105.2639900  19.1394536  62.6873264 106.6865782  18.7105533  62.3972112
 112.5974049  11.6946312  54.9333789 112.7189960  10.7662958  55.1324676
 112.3076091  11.7084998  54.0212104 125.8448864  19.1156482  56.1079731
 126.2880010  18.3663807  55.7098854 124.9675374  19.1066618  55.7253463
 120.9784645  25.6686823  51.5886330 121.6735550  26.2893516  51.8073644
 121.3207795  24.8182175  51.8638707 106.5952454  17.4904624  65.4483147
 105.8534190  17.6387260  66.0347777 106.2745198  17.7512890  64.5849896
 122.8776068  23.1186529  53.1173660 123.4027392  23.4573802  52.3922980
 122.7898421  22.1833544  52.9336795 114.5396117  27.0320603  65.2463537
 114.8483243  26.7869749  66.1186237 115.3371599  27.2367241  64.7582407
 114.5616729  29.1858512  57.4768914 114.1221719  28.6934891  58.1701770
 115.3124846  28.6431480  57.2360989 107.0409068  25.3770053  57.4793542
 107.8667088  25.0773825  57.0992185 106.6903120  24.6077675  57.9283330
 112.0090601  24.7296521  59.5491215 111.3870610  24.0667226  59.2493443
 112.6795468  24.7557653  58.8664863 105.2417673  23.2956379  58.4382475
 104.4049581  22.8678554  58.2566476 105.2141318  23.4888823  59.3753266
 112.0815129  13.2078309  69.1423721 112.1303284  14.0840432  68.7601491
 112.6237643  12.6655702  68.5695364 122.5669974  23.7519433  68.4224858
 121.7765518  23.7343571  67.8829358 122.3303329  24.2907726  69.1773895
 122.6867849  20.6011899  65.7357587 122.7365854  20.4361906  66.6773110
 122.5781773  19.7339158  65.3455468 111.5704108  23.2800445  53.0249676
 111.7192228  23.9635909  52.3716348 112.3770551  23.2605535  53.5399131
 119.9771612  16.5842827  67.0516894 120.8781474  16.4449292  66.7600891
 120.0519586  16.7497282  67.9915071 114.3114417  13.9609682  65.8970080
 113.4417726  14.2543248  65.6252668 114.5473897  14.5450127  66.6177343
 124.1886046  23.0208840  65.9799608 123.8970854  23.3838821  66.8163069
 123.5758177  22.3075849  65.8012940 125.3881728  20.5861720  58.5002179
 126.2228620  21.0251524  58.6639739 125.5240857  20.1100373  57.6810424
 122.4373234  18.1441455  64.4479666 122.9127356  18.3369101  63.6398518
 121.5138800  18.2000641  64.2023050 109.3256741  19.3065622  54.0310745
 109.0802783  18.4027952  54.2290955 109.4952655  19.3082773  53.0890223
 108.5952388  15.0393980  51.5296906 107.9021633  15.1138335  50.8736942
 108.3504140  14.2754323  52.0518423 115.0699513  25.7748575  50.4961423
 114.4973481  26.3938762  50.0431895 115.6432307  26.3247937  51.0301345
 121.1374903  15.0207215  62.6807972 122.0892326  15.1205313  62.7020196
 120.9678354  14.2285484  63.1906056 118.2896773  26.0585725  51.6270005
 119.2227446  25.9931287  51.8302881 118.2019986  26.8941992  51.1684538
 120.9184790  25.3751596  48.5873953 120.8398421  25.0411459  49.4809711
 121.7394457  25.8673363  48.5865425 123.6162981  18.2413335  61.7950272
 123.5839301  17.3029336  61.9809955 124.2263605  18.3197372  61.0616096
 115.4546312  17.1109388  47.8377476 116.4005417  16.9815596  47.9065894
 115.0760557  16.3724050  48.3146904 129.4339531  19.3029342  60.9356308
 130.1642919  19.0414630  61.4964012 128.8246476  18.5658064  60.9758376
 127.5154828  17.4437204  61.5330760 126.7887992  17.3093169  60.9247251
 127.1002115  17.7514033  62.3387478 115.3385005  21.1627134  69.2978133
 116.2588014  21.3405733  69.4918179 115.3034588  20.2183179  69.1457832
 113.6389229  15.0359364  47.7732361 112.7320685  14.7392477  47.8495074
 113.9165210  14.7389182  46.9066647 104.5567169  16.3565728  58.2231407
 104.2369954  15.5031036  57.9305781 104.0100598  16.5714306  58.9789375
 108.3347077  19.0728169  61.9400914 108.5533087  20.0045276  61.9588948
 108.7472851  18.7136143  62.7255718 113.2074942  14.6461374  71.3303663
 113.1071669  15.5955731  71.2615754 112.9896484  14.3179613  70.4579733
 112.4088014  11.8946299  47.9144340 113.2707178  12.2201198  48.1740157
 112.5938358  11.1077795  47.4017406 104.4255430  19.9768639  60.1924529
 103.7318901  19.5622592  59.6794483 105.1728421  20.0189176  59.5957948
 113.0706212  18.0758513  70.1468724 112.5873294  18.8758873  70.3532613
 113.1567151  18.0866458  69.1936168 106.3392172  19.9086893  58.0690544
 106.3162860  20.0074580  57.1172427 106.6492809  20.7552044  58.3907710
 108.9979550  21.9663048  62.1837158 109.9522803  21.9346990  62.1167090
 108.7992073  21.5053672  62.9987384 109.5878932  20.5364164  64.7507956
 110.4071821  21.0308243  64.7742793 109.8615740  19.6196132  64.7225523
 107.3529779  27.5082667  59.2007356 107.2184247  26.7483068  58.6345354
 106.9361841  28.2323567  58.7336145 118.4888742  22.6919591  48.2083931
 119.1924592  22.8969593  48.8241587 117.7651390  23.2596353  48.4733015
 119.3186552  18.4429452  54.3286201 119.2621753  18.8998004  53.4893834
 119.8714894  17.6820137  54.1509044 127.4403696  16.9715257  57.6607612
 126.8803254  17.0408447  58.4339174 126.8347199  16.7956242  56.9407109
 110.5098905  28.4051984  59.4125799 110.3931289  29.3497417  59.3104489
 109.6891351  28.1025546  59.8011598 120.3975439  23.1302120  50.2582391
 121.2321043  22.6983319  50.0759866 120.2359782  22.9584134  51.1859286
 120.0521331  19.6334233  51.6238731 119.9970135  19.4678505  50.6827175
 119.4267387  20.3410266  51.7800920 104.8413846  14.8702298  65.4500153
 105.4872710  14.3601252  65.9387378 104.6330997  15.6070979  66.0243578
 117.3667238  21.9383145  70.9492293 118.2358398  22.1123798  70.5878928
 116.8873990  22.7577562  70.8268023 111.5353419  29.0580246  62.6281727
 112.4380665  29.0903857  62.9448222 111.3090789  28.1280697  62.6428063
 113.2907021  27.8111233  59.2891806 112.3402652  27.8113094  59.1756178
 113.5939507  27.0643967  58.7727840 109.1811337  12.0169915  69.5475167
 110.0442799  11.6606720  69.7578492 108.6076748  11.6783810  70.2350571
 129.0259714  33.6471771  60.3537568 129.6638124  33.5278519  59.6500908
 128.9080557  34.5952615  60.4125520 125.8349420  33.5999199  60.2899093
 125.4967932  33.4840264  59.4019628 126.7039189  33.1990364  60.2700099
 121.6936236  35.4534676  56.2795984 121.1301101  35.3624613  55.5112272
 121.5788631  34.6334580  56.7598476 126.3169203  34.7534051  66.2485298
 126.3057844  34.3586849  65.3765802 126.4789843  34.0200124  66.8419070
 119.2400668  36.9485867  59.1180204 120.0321960  36.6076692  58.7026504
 119.4797318  37.0580842  60.0382358 127.2735795  39.1205643  51.5910449
 126.6223775  39.7059724  51.2044462 128.0680158  39.6511838  51.6505486
 121.1991422  36.2094781  51.9897583 121.9722298  35.6623768  51.8510459
 121.5516821  37.0739030  52.2012044 123.0376465  37.5371163  65.1964482
 122.7466331  38.4416794  65.0811149 123.6733449  37.5787690  65.9108552
 123.9632671  34.9148011  61.7865842 124.5596244  34.6904034  61.0722805
 124.0207643  34.1732757  62.3891290 123.5357700  32.3687447  49.6216033
 123.7883221  31.8468968  48.8599496 122.5982259  32.2053592  49.7242717
 128.5800983  31.3723225  57.4290776 129.3664072  30.9542648  57.0781193
 128.8439687  32.2769317  57.5972425 128.7511060  36.8096075  52.1279433
 128.1156893  36.8830702  52.8400338 128.4208466  37.3989674  51.4498512
 133.9809410  31.3098458  58.3323755 134.7134582  30.7397675  58.5661584
 133.2248766  30.9220059  58.7730260 123.2553989  34.2715553  51.8240408
 123.1390247  33.5960456  52.4921492 123.3656249  33.7847927  51.0072561
 125.5985530  33.7325700  55.5287097 125.2343737  33.2056321  56.2400019
 126.4552645  33.3424169  55.3553583 131.5034830  25.0220032  62.7918363
 131.1718155  25.8915443  62.5679578 130.9080444  24.7056316  63.4712394
 125.2391017  28.7615599  50.5248446 125.4065419  29.6295836  50.8918917
 125.0488186  28.9242881  49.6009735 127.9966350  37.2232578  62.1914276
 127.6967073  38.1257617  62.0830083 127.6517409  36.9564762  63.0435429
 121.4478831  33.6746375  58.2250980 120.5229328  33.5422589  58.4328672
 121.6963244  34.4540594  58.7220923 131.3963493  29.7415119  59.8711713
 130.4880371  29.6730527  59.5770474 131.3451089  30.2187064  60.6993539
 125.2180237  31.2173257  51.5095112 125.0979863  31.6630308  52.3480593
 124.5232826  31.5658575  50.9508651 118.8087642  33.3179649  59.0594770
 118.9380023  33.5714128  59.9734181 118.1285094  33.9107357  58.7399425
 122.9787130  43.9876899  55.1585244 122.9011159  44.9384724  55.2373724
 122.3748773  43.6422771  55.8160170 125.4704359  31.1604764  67.8146611
 124.6937693  31.7198684  67.8049475 126.1094922  31.6461547  68.3361481
 133.2625140  27.9431557  61.6489587 132.6199520  28.2364090  61.0029382
 132.7580068  27.8284477  62.4542784 130.9165304  31.6894730  52.3375447
 131.8283160  31.9222117  52.1623144 130.4074951  32.2731774  51.7750525
 123.7250732  33.9690218  67.3764578 124.4665416  34.5075261  67.0999401
 123.0187717  34.5956506  67.5336129 129.2006071  36.1119358  65.9736739
 129.6089427  35.6701769  65.2291371 128.4783333  35.5371986  66.2270932
 125.5537141  31.0491965  63.3470296 126.3998336  31.4731378  63.4904945
 125.4935779  30.3925589  64.0408859 129.5234886  36.6720549  59.7289028
 128.8943748  36.8366263  59.0265096 129.1360548  37.0862158  60.4999992
 133.4024118  37.6074986  57.0833392 132.7175156  37.9873888  56.5330425
 133.4867967  38.2170313  57.8165339 128.7036587  28.7096333  65.0051470
 128.4597518  29.4638394  64.4685745 128.9796517  29.0881681  65.8398717
 130.6575049  35.2534945  63.6828735 130.8691945  35.8966705  63.0063116
 130.6104798  34.4197262  63.2150665 128.2601278  27.8652766  60.5865307
 127.3985757  28.1634020  60.8782045 128.2863713  28.0823165  59.6546340
 125.0762848  36.4094957  56.9939113 125.5401193  36.6882660  56.2043736
 124.8119646  35.5078401  56.8112204 121.9686929  35.9566438  59.9318876
 122.5388286  36.3853707  59.2936361 122.5595041  35.6749023  60.6303062
 124.0131734  32.5318109  53.8028678 124.7155777  32.9839153  54.2702605
 123.6812362  31.8901928  54.4308571 122.4612095  31.1229866  68.1779888
 121.8310756  31.8046147  68.4115284 122.3548183  31.0112947  67.2333026
 117.7557068  30.7901662  59.1045812 116.9656122  31.0459190  58.6285922
 118.2468315  31.6050000  59.2097852 131.7720877  38.1306901  61.8551093
 132.5938321  37.7287088  61.5733774 131.7683280  38.0275135  62.8067208
 119.7071813  31.1546241  56.0629288 118.9102976  31.2664935  56.5812784
 119.4797405  31.4932893  55.1970179 125.5377481  37.6790944  64.0111803
 125.6021913  38.1411351  64.8469975 124.8288405  37.0488309  64.1394113
 116.0394771  31.0432152  61.5360803 116.2902809  31.9279162  61.8018379
 116.5754319  30.8636754  60.7635894 139.8626870  34.4745649  58.2036064
 139.1090579  33.9053047  58.0480069 139.9974412  34.4408314  59.1506699
 125.2525498  39.3459052  53.8790783 125.1171173  40.1910587  54.3075631
 125.7935311  39.5478329  53.1156717 121.7392838  25.4250632  70.5405139
 121.3459784  24.8716830  71.2152783 122.5558978  25.7361210  70.9311656
 118.7054896  36.8634490  54.4518709 119.2179416  37.6577740  54.6024273
 119.3577609  36.1660780  54.3852310 120.5149781  39.9800246  56.5341462
 120.6916409  40.9018211  56.3462446 121.3106614  39.6658665  56.9635841
 124.6560799  26.8408511  68.1325395 125.3970512  27.4415664  68.0529858
 124.8878722  26.0986148  67.5743438 119.8002137  32.0264878  66.4103625
 119.6855652  31.1250135  66.7110724 118.9446655  32.2728575  66.0588441
 126.8793975  39.9682618  68.0091126 126.4357829  39.1818997  67.6912030
 127.5411188  40.1561769  67.3435016 121.6381096  41.4978420  62.5351804
 122.1888521  41.3695483  61.7628798 120.7992572  41.7973309  62.1846697
 128.9775213  40.2485418  66.0372527 128.9593688  41.0694299  65.5452796
 129.8995133  40.1239493  66.2622668 125.4348267  37.7629548  66.8796035
 125.9676604  37.0017836  66.6495343 124.9062348  37.4703199  67.6220190
 128.6017962  22.8689614  62.4089677 128.2582231  23.7591255  62.3328787
 128.9696925  22.6791271  61.5459262 116.6703813  35.1923144  55.2278279
 117.5079035  35.6020152  55.0111987 116.8482080  34.2522586  55.1978473
 128.5668245  32.8598225  50.9162112 128.0514868  33.6302829  51.1550499
 128.2945553  32.1863361  51.5395173 126.1515356  27.7047925  55.9747350
 125.2956952  27.3154776  55.7952989 126.5642308  27.7839886  55.1147136
 127.6814502  25.2394269  60.3738910 127.1779298  25.2024404  59.5606715
 127.9745109  26.1487011  60.4335567 123.9257388  25.3232998  59.3805092
 124.7910385  25.1275807  59.0210981 123.9934897  25.0943350  60.3074449
 133.5402519  35.6130579  52.8515285 132.7631962  35.2741739  52.4070448
 134.2194000  35.6183202  52.1770251 128.3554548  30.7325317  52.7421893
 128.0504683  31.0471466  53.5932036 129.3084990  30.8106737  52.7849226
 126.8000980  36.8915540  54.3914847 126.2722341  36.1568300  54.0788085
 126.2988482  37.6690216  54.1454815 131.7793826  35.0864561  59.5081893
 131.1217500  35.7763822  59.5962022 132.5834225  35.4760993  59.8515880
 121.5319707  27.5535206  56.7521459 122.1063459  27.3310388  56.0194652
 122.1190690  27.6223901  57.5050060 130.5899285  33.4408933  57.5585835
 131.1031166  34.0738925  58.0607545 131.2400508  32.8410129  57.1929195
 121.8589294  29.5839667  50.7717344 121.0226607  29.9214354  51.0926619
 121.7194064  29.4488647  49.8344481 123.8342375  24.4276455  55.4796528
 123.1806787  24.1125472  54.8553143 123.7922849  23.8052196  56.2056351
 124.9453580  34.7095750  47.3949820 124.0380642  34.4785004  47.5940969
 125.4424612  33.9133370  47.5823802 127.8521659  43.4193258  50.3146506
 127.1783358  43.7224954  50.9231464 128.2387481  44.2222338  49.9651963
 127.0680115  30.9158389  59.8044176 126.1502677  31.1373336  59.6465864
 127.4840259  30.9904699  58.9455883 127.8515163  32.3149805  54.9346856
 128.5986982  32.8271202  54.6253978 128.1206753  31.9933857  55.7951250
 126.1241813  34.8108345  51.9173810 125.2153033  34.5267378  52.0146280
 126.1536897  35.2307424  51.0577117 131.3561081  38.4214935  55.6864978
 130.9023408  37.5805845  55.7430168 130.7255047  39.0576333  56.0239758
 130.2994000  29.3506921  56.9165645 129.5616757  28.8384307  57.2475888
 130.5520774  28.9107302  56.1048922 129.7994020  40.2591431  56.6214796
 130.0916994  40.8196489  55.9027162 130.3092641  40.5519992  57.3767955
 130.4005628  22.1283173  57.5107415 130.7064504  21.2680536  57.2233330
 131.1258232  22.7200793  57.3106408 116.6929984  32.5313859  55.8989012
 116.4954384  31.9383220  55.1740079 116.1376648  32.2266070  56.6164951
 124.6726707  32.4236966  58.0183606 124.7275317  31.4710802  57.9426082
 123.8617909  32.5796405  58.5024904 125.8217901  36.3517089  49.2561889
 125.3837331  35.6352948  48.7967526 126.5628342  36.5793204  48.6946980
 122.6119067  31.0414026  55.7773985 121.7986933  31.3408196  56.1839177
 123.1078061  30.6469714  56.4948467 124.7627645  41.0371783  57.7108249
 124.7203824  41.2632629  56.7816781 125.6790344  40.8035157  57.8594050
 128.2093279  31.5055850  64.6088878 128.5642667  31.7327323  65.4683344
 128.8565410  31.8374227  63.9866134 133.9391016  34.6274286  55.3138207
 133.8008915  34.8175882  54.3859397 133.5827235  35.3893669  55.7706259
 122.1033142  28.6132381  61.3935219 122.7432521  28.4721140  60.6958183
 121.2710673  28.3266894  61.0173821 133.9660396  36.6950813  60.3249479
 134.3996902  36.6026102  61.1732533 134.6791976  36.6708313  59.6869495
 122.8793446  37.9134812  57.5070212 123.6734044  37.4185132  57.3052787
 122.1685138  37.3852675  57.1437917 127.6988290  40.2952907  61.8582580
 127.7525313  40.8643843  62.6260295 126.8303072  40.4654792  61.4936617
 119.1876209  32.0577893  53.5829965 118.2573798  31.9962349  53.7999927
 119.2833681  31.5353846  52.7866606 119.1061758  28.5832706  56.1708206
 119.3668576  29.4978039  56.0617367 119.9278931  28.1157149  56.3204819
 120.5786684  29.9970463  63.3407031 121.2509737  29.7887825  62.6919680
 119.7516470  29.7992549  62.9012263 134.8275945  36.7374514  62.8582364
 135.0211835  37.6420324  63.1041639 134.7276563  36.2781933  63.6920949
 126.4812256  26.6232404  65.3572692 125.8340171  27.3222354  65.2637168
 127.2513271  27.0568548  65.7248940 129.8891054  36.8881256  68.4323245
 129.7376560  36.6591808  67.5153329 129.8795733  37.8451858  68.4454590
 126.6576390  34.4613169  63.4169511 127.5868450  34.6124329  63.2438479
 126.2367420  34.5497190  62.5618158 125.4564722  38.4863834  61.1868049
 125.3175808  38.1182618  62.0593987 124.6679318  39.0011473  61.0152007
 126.0512874  43.5872930  52.5293586 126.2264630  43.1160973  53.3439208
 125.3645662  44.2138696  52.7574846 127.0069937  37.8645436  58.5756887
 126.6719770  37.8246206  59.4714537 126.5073883  37.1990152  58.1027297
 120.9814181  33.2713066  64.1009468 120.8433979  32.5393305  64.7021007
 121.8919105  33.1821966  63.8193656 129.9429129  35.2101471  48.8493946
 129.3258299  34.4848299  48.7526999 129.4745617  35.9710831  48.5061021
 123.6096482  32.9833026  63.5893148 124.3196100  32.3426218  63.5479766
 123.5665790  33.2345920  64.5119328 131.5983260  39.9200379  66.5099727
 131.5395807  39.2359599  65.8430310 132.0002779  40.6619369  66.0580353
 122.3225416  29.9698243  65.4088787 121.7862773  29.5188982  66.0610383
 121.7342124  30.1044152  64.6659251 120.6173959  46.7362293  59.3033446
 120.8570557  47.3680817  59.9812464 119.7743156  46.3850333  59.5898805
 121.7327675  29.4286895  47.9715251 120.8557141  29.3075696  47.6077497
 122.2085428  28.6372973  47.7194139 131.6000668  37.8839963  64.7413706
 130.7127446  37.5465885  64.8640105 132.1699219  37.1522994  64.9782472
 113.2529815  34.2164055  58.0656758 113.9400855  33.9025785  57.4777773
 113.0977943  35.1205419  57.7924009 118.0564537  29.1054251  62.4941782
 117.9722726  28.4979921  61.7592192 117.2347243  29.5963269  62.4951278
 125.1301821  42.5441415  61.7074950 125.0571993  43.3496387  62.2194254
 124.6879214  42.7433381  60.8822971 124.9191601  41.7813185  55.2177771
 124.1359123  42.3234865  55.3115996 125.6184346  42.2987165  55.6172012
 128.2288251  27.5907815  57.8611977 128.7256950  26.8377777  57.5413047
 127.4575232  27.6272131  57.2955186 136.0818008  33.2948180  59.5030268
 136.0707884  34.1772896  59.1324201 135.2135388  32.9419731  59.3084805
 127.5900505  42.4428249  63.8633108 128.3028477  43.0775714  63.7909010
 127.0990533  42.5392115  63.0473110 129.3118032  36.3479502  55.4350400
 128.3774310  36.4680964  55.2655104 129.4894700  35.4451969  55.1710410
 124.8123220  29.7325198  57.5883661 124.4421007  29.1796238  58.2764567
 125.3082312  29.1283331  57.0358661 132.6990583  32.1896821  55.9700434
 133.1651035  33.0224813  55.8960737 133.1498083  31.7241803  56.6745693
 122.6412418  40.1922693  64.6838679 123.3421878  40.8259176  64.8368073
 122.1707533  40.5337424  63.9234318 130.7666814  38.5340642  52.9686586
 131.0426658  38.4197237  53.8780460 129.8971313  38.1358127  52.9298759
 130.6707246  24.5577408  60.0091335 129.7570325  24.7881635  60.1773542
 131.1000347  24.6415852  60.8605368 130.4413704  32.7467300  62.5091230
 129.7885154  32.9943208  61.8543682 130.8194084  31.9331438  62.1753707
 127.4020878  42.7826993  56.6119400 127.5843273  41.9648649  57.0747152
 128.2253864  42.9994686  56.1744290 127.7363043  41.7095178  53.8734448
 128.2650810  41.1987633  53.2604610 127.9991263  41.3937709  54.7379981
 126.4901277  33.4887111  68.9957267 125.8141914  33.3881241  69.6659642
 127.3128911  33.3326325  69.4593264 118.2380136  39.7259048  61.6169782
 118.8233573  38.9802736  61.7497686 118.0404975  40.0363004  62.5006446
 121.0918791  42.7610295  56.6332224 120.4229167  43.2456423  56.1496264
 120.9531661  43.0079516  57.5475603 112.8297791  32.2964648  60.3374225
 112.8681890  31.7628239  61.1311343 112.3238084  31.7699853  59.7185202
 125.2324060  44.7954039  63.2314883 125.7842368  44.9585660  63.9963968
 125.5730253  45.3858476  62.5594907 120.2088553  27.1429188  63.8336767
 120.2729880  28.0044019  63.4214165 120.1455673  26.5303190  63.1009126
 119.6840826  29.2152321  67.4809802 120.3112865  28.8329398  68.0947326
 118.8268745  28.9966523  67.8465494 130.0834934  39.6215296  69.0863537
 130.6274838  40.2345254  68.5918492 129.5021779  40.1794875  69.6030550
 116.4606369  31.0228750  53.4128156 116.7559810  30.1139429  53.3595210
 115.5594404  31.0016490  53.0909159 128.3692447  42.7436014  60.2178565
 128.2443587  41.9425754  59.7089510 129.0271538  43.2382208  59.7292535
 119.9900616  29.0984747  59.3955705 119.2687201  29.7120714  59.2563178
 120.7793871  29.6342511  59.3172351 130.4327356  40.5445034  61.8458115
 129.4857691  40.4250385  61.7736442 130.7810129  39.6567532  61.9284376
 122.7926929  26.4339173  65.6696357 123.3161331  26.6801470  66.4322666
 122.5739262  27.2659208  65.2499494 118.1894210  28.7042848  53.5367482
 117.8606916  27.8240227  53.3542587 118.5433581  28.6490516  54.4243871
 127.4373789  40.3397750  58.0462467 127.2898751  39.4114458  58.2270037
 128.2627282  40.3617841  57.5619542 121.3036033  28.9915818  53.9042959
 121.6432106  29.5201739  53.1821568 121.7508154  29.3296224  54.6801526
 131.0407911  41.1626309  59.1327340 131.9654458  40.9569171  58.9951791
 130.8723214  40.9142710  60.0416681 123.9979474  27.3752868  63.3546027
 123.6576294  26.5760681  63.7566707 123.2918480  27.6754579  62.7822860
 124.6495946  24.4602181  61.8073350 125.4722015  23.9862659  61.6852241
 124.8934009  25.2392664  62.3072037 123.2904180  27.4890439  52.1036252
 124.0112543  27.8671692  51.5999969 122.6669485  28.2079316  52.2071230
 127.4335303  28.1935588  53.0394584 127.6498918  29.0760226  52.7383412
 126.9529370  27.8021802  52.3100226 122.1734525  31.1521301  59.6165329
 122.0279105  31.4661604  60.5089610 121.6959728  31.7706202  59.0636228
 124.0330908  28.1423849  59.6646218 124.0192476  27.2464943  59.3278516
 124.7503336  28.1494513  60.2984505 125.8857038  28.5761190  61.7099346
 125.6274816  29.4978260  61.7083676 125.3542079  28.1791624  62.3999810
 130.8303227  41.6811977  54.4889431 131.0040105  41.1158399  53.7363284
 131.3232118  42.4812872  54.3068921 116.6480187  33.6926646  62.5552990
 116.1033655  34.4686454  62.6873264 117.5259537  34.0397450  62.3972112
 123.4367803  27.0238230  54.9333789 123.5583715  26.0954876  55.1324676
 123.1469846  27.0376916  54.0212104 126.3058994  24.7093140  58.0700508
 126.3280691  24.7732473  57.1152488 126.7227053  23.8697649  58.2641015
 136.6842618  34.4448400  56.1079731 137.1273764  33.6955725  55.7098854
 135.8069128  34.4358536  55.7253463 131.8178400  40.9978741  51.5886330
 132.5129304  41.6185434  51.8073644 132.1601550  40.1474092  51.8638707
 117.4346209  32.8196542  65.4483147 116.6927945  32.9679177  66.0347777
 117.1138953  33.0804808  64.5849896 133.7169823  38.4478447  53.1173660
 134.2421147  38.7865719  52.3922980 133.6292175  37.5125462  52.9336795
 125.3789871  42.3612520  65.2463537 125.6876998  42.1161667  66.1186237
 126.1765353  42.5659159  64.7582407 125.4010483  44.5150430  57.4768914
 124.9615474  44.0226809  58.1701770 126.1518600  43.9723398  57.2360989
 117.8802822  40.7061971  57.4793542 118.7060842  40.4065743  57.0992185
 117.5296874  39.9369593  57.9283330 122.8484356  40.0588439  59.5491215
 122.2264365  39.3959144  59.2493443 123.5189222  40.0849571  58.8664863
 116.0811427  38.6248297  58.4382475 115.2443336  38.1970472  58.2566476
 116.0535073  38.8180741  59.3753266 122.9208883  28.5370227  69.1423721
 122.9697038  29.4132350  68.7601491 123.4631397  27.9947620  68.5695364
 133.4063729  39.0811350  68.4224858 132.6159272  39.0635489  67.8829358
 133.1697083  39.6199644  69.1773895 133.5261604  35.9303817  65.7357587
 133.5759609  35.7653824  66.6773110 133.4175527  35.0631076  65.3455468
 122.4097862  38.6092362  53.0249676 122.5585983  39.2927827  52.3716348
 123.2164306  38.5897452  53.5399131 130.8165366  31.9134745  67.0516894
 131.7175229  31.7741209  66.7600891 130.8913341  32.0789199  67.9915071
 125.1508171  29.2901599  65.8970080 124.2811481  29.5835165  65.6252668
 125.3867652  29.8742044  66.6177343 135.0279801  38.3500758  65.9799608
 134.7364609  38.7130739  66.8163069 134.4151932  37.6367766  65.8012940
 136.2275483  35.9153638  58.5002179 137.0622374  36.3543442  58.6639739
 136.3634612  35.4392291  57.6810424 133.2766989  33.4733373  64.4479666
 133.7521110  33.6661019  63.6398518 132.3532554  33.5292559  64.2023050
 120.1650495  34.6357540  54.0310745 119.9196537  33.7319870  54.2290955
 120.3346410  34.6374690  53.0890223 127.8547205  25.5081216  63.4135500
 128.3729149  26.2442243  63.0881989 127.5002338  25.8145210  64.2482259
 119.4346143  30.3685898  51.5296906 118.7415388  30.4430252  50.8736942
 119.1897895  29.6046241  52.0518423 128.1059799  21.9281499  58.9336397
 128.3861553  21.2604688  59.5596823 128.8910406  22.1210594  58.4211061
 125.9093268  41.1040493  50.4961423 125.3367235  41.7230680  50.0431895
 126.4826062  41.6539854  51.0301345 131.9768658  30.3499133  62.6807972
 132.9286081  30.4497230  62.7020196 131.8072108  29.5577401  63.1906056
 129.9983037  27.4354716  62.8667373 129.4032969  27.7159729  62.1713862
 129.7132734  27.9248617  63.6384114 129.1290528  41.3877643  51.6270005
 130.0621201  41.3223205  51.8302881 129.0413741  42.2233910  51.1684538
 131.7578544  40.7043513  48.5873953 131.6792176  40.3703377  49.4809711
 132.5788211  41.1965281  48.5865425 134.4556736  33.5705253  61.7950272
 134.4233056  32.6321253  61.9809955 135.0657359  33.6489289  61.0616096
 126.2940066  32.4401305  47.8377476 127.2399171  32.3107514  47.9065894
 125.9154311  31.7015967  48.3146904 134.6051224  30.3616296  61.8408555
 134.0890273  29.5774753  61.6538484 135.4891173  30.0335013  62.0055074
 132.2661951  24.1057312  57.8004367 132.0686772  23.7972400  58.6847699
 132.8761657  24.8318950  57.9302297 140.2733285  34.6321259  60.9356308
 141.0036674  34.3706547  61.4964012 139.6640231  33.8949981  60.9758376
 138.3548583  32.7729122  61.5330760 137.6281746  32.6385087  60.9247251
 137.9395869  33.0805951  62.3387478 126.1778759  36.4919052  69.2978133
 127.0981768  36.6697651  69.4918179 126.1428342  35.5475097  69.1457832
 124.4782984  30.3651282  47.7732361 123.5714439  30.0684395  47.8495074
 124.7558965  30.0681100  46.9066647 115.3960924  31.6857645  58.2231407
 115.0763708  30.8322953  57.9305781 114.8494352  31.9006223  58.9789375
 119.1740832  34.4020086  61.9400914 119.3926841  35.3337194  61.9588948
 119.5866605  34.0428061  62.7255718 126.0945049  24.9088172  53.9276602
 125.2845778  24.5635257  54.3031848 126.7829466  24.5995715  54.5164214
 128.0235598  23.9866218  55.5500899 128.5766636  24.4061672  56.2090922
 128.2605684  23.0601967  55.5923855 124.0468697  29.9753292  71.3303663
 123.9465424  30.9247649  71.2615754 123.8290239  29.6471531  70.4579733
 123.2481768  27.2238217  47.9144340 124.1100932  27.5493115  48.1740157
 123.4332112  26.4369713  47.4017406 115.2649184  35.3060557  60.1924529
 114.5712655  34.8914510  59.6794483 116.0122175  35.3481093  59.5957948
 131.4014405  26.0966744  55.0579563 130.8213074  26.7551548  54.6757615
 131.1350337  25.2744088  54.6466981 129.8517971  25.4971801  57.2600883
 130.3517749  25.6088336  56.4515202 130.4953579  25.1932854  57.9001692
 123.9099967  33.4050431  70.1468724 123.4267049  34.2050791  70.3532613
 123.9960906  33.4158376  69.1936168 117.1785927  35.2378811  58.0690544
 117.1556615  35.3366498  57.1172427 117.4886563  36.0843961  58.3907710
 119.8373304  37.2954966  62.1837158 120.7916558  37.2638908  62.1167090
 119.6385828  36.8345589  62.9987384 120.4272687  35.8656082  64.7507956
 121.2465576  36.3600160  64.7742793 120.7009494  34.9488050  64.7225523
 130.1839283  28.2566834  54.1135911 129.2965138  28.5416485  53.8956106
 130.5993272  28.0960597  53.2663188 133.5353819  28.2813355  57.8290251
 134.3114209  28.7709807  58.1014867 132.8101953  28.7071409  58.2862120
 135.9726377  28.9940974  58.8864191 136.5670868  28.7536710  58.1757499
 136.0452961  28.2748105  59.5137727 118.1923533  42.8374585  59.2007356
 118.0578001  42.0774986  58.6345354 117.7755595  43.5615485  58.7336145
 129.3282496  38.0211509  48.2083931 130.0318346  38.2261511  48.8241587
 128.6045145  38.5888271  48.4733015 130.1580306  33.7721370  54.3286201
 130.1015508  34.2289921  53.4893834 130.7108649  33.0112054  54.1509044
 133.9685112  29.5611102  55.1536321 133.7122047  29.1607737  55.9844529
 133.3437980  30.2754896  55.0286460 138.2797450  32.3007175  57.6607612
 137.7197008  32.3700364  58.4339174 137.6740954  32.1248160  56.9407109
 121.3492659  43.7343902  59.4125799 121.2325043  44.6789335  59.3104489
 120.5285105  43.4317464  59.8011598 131.2369194  38.4594038  50.2582391
 132.0714798  38.0275236  50.0759866 131.0753537  38.2876051  51.1859286
 130.8915086  34.9626151  51.6238731 130.8363890  34.7970423  50.6827175
 130.2661141  35.6702184  51.7800920 115.6807601  30.1994215  65.4500153
 116.3266464  29.6893169  65.9387378 115.4724752  30.9362897  66.0243578
 128.2060993  37.2675063  70.9492293 129.0752153  37.4415715  70.5878928
 127.7267744  38.0869480  70.8268023 124.2011211  24.4634260  51.2024049
 124.1889881  25.4076100  51.3592320 125.0934633  24.2804406  50.9083510
 122.3747173  44.3872164  62.6281727 123.2774420  44.4195774  62.9448222
 122.1484543  43.4572615  62.6428063 124.1300775  43.1403151  59.2891806
 123.1796406  43.1405012  59.1756178 124.4333261  42.3935885  58.7727840
 128.0163331  21.0577037  55.4569986 127.2495727  20.5035523  55.6026668
 128.4274036  21.1298906  56.3184137 120.0205092  27.3461833  69.5475167
 120.8836553  26.9898637  69.7578492 119.4470502  27.0075727  70.2350571
 139.8653469  48.9763689  60.3537568 140.5031879  48.8570436  59.6500908
 139.7474312  49.9244533  60.4125520 136.6743175  48.9291117  60.2899093
 136.3361686  48.8132182  59.4019628 137.5432943  48.5282282  60.2700099
 132.5329991  50.7826593  56.2795984 131.9694856  50.6916530  55.5112272
 132.4182386  49.9626498  56.7598476 137.1562958  50.0825969  66.2485298
 137.1451599  49.6878767  65.3765802 137.3183597  49.3492041  66.8419070
 130.0794423  52.2777785  59.1180204 130.8715715  51.9368610  58.7026504
 130.3191073  52.3872760  60.0382358 138.1129549  54.4497561  51.5910449
 137.4617529  55.0351642  51.2044462 138.9073912  54.9803756  51.6505486
 132.0385177  51.5386698  51.9897583 132.8116053  50.9915685  51.8510459
 132.3910575  52.4030948  52.2012044 133.8770219  52.8663081  65.1964482
 133.5860085  53.7708711  65.0811149 134.5127203  52.9079608  65.9108552
 134.8026426  50.2439929  61.7865842 135.3989998  50.0195951  61.0722805
 134.8601397  49.5024675  62.3891290 134.3751454  47.6979364  49.6216033
 134.6276975  47.1760886  48.8599496 133.4376013  47.5345510  49.7242717
 139.4194737  46.7015143  57.4290776 140.2057826  46.2834566  57.0781193
 139.6833442  47.6061235  57.5972425 139.5904815  52.1387993  52.1279433
 138.9550648  52.2122620  52.8400338 139.2602221  52.7281592  51.4498512
 134.0947743  49.6007470  51.8240408 133.9784001  48.9252374  52.4921492
 134.2050003  49.1139844  51.0072561 136.4379284  49.0617617  55.5287097
 136.0737491  48.5348238  56.2400019 137.2946400  48.6716087  55.3553583
 142.3428585  40.3511950  62.7918363 142.0111909  41.2207361  62.5679578
 141.7474198  40.0348234  63.4712394 136.0784771  44.0907517  50.5248446
 136.2459173  44.9587754  50.8918917 135.8881940  44.2534799  49.6009735
 138.8360104  52.5524496  62.1914276 138.5360827  53.4549535  62.0830083
 138.4911164  52.2856679  63.0435429 132.2872586  49.0038293  58.2250980
 131.3623082  48.8714507  58.4328672 132.5356999  49.7832512  58.7220923
 142.2357248  45.0707036  59.8711713 141.3274125  45.0022445  59.5770474
 142.1844844  45.5478981  60.6993539 136.0573992  46.5465175  51.5095112
 135.9373617  46.9922225  52.3480593 135.3626580  46.8950492  50.9508651
 129.6481397  48.6471566  59.0594770 129.7773778  48.9006045  59.9734181
 128.9678848  49.2399274  58.7399425 133.8180884  59.3168816  55.1585244
 133.7404914  60.2676641  55.2373724 133.2142528  58.9714689  55.8160170
 136.3098114  46.4896682  67.8146611 135.5331448  47.0490602  67.8049475
 136.9488677  46.9753465  68.3361481 141.7559058  47.0186648  52.3375447
 142.6676914  47.2514035  52.1623144 141.2468705  47.6023692  51.7750525
 134.5644486  49.2982135  67.3764578 135.3059170  49.8367179  67.0999401
 133.8581472  49.9248424  67.5336129 140.0399826  51.4411276  65.9736739
 140.4483182  50.9993686  65.2291371 139.3177087  50.8663903  66.2270932
 136.3930896  46.3783882  63.3470296 137.2392091  46.8023296  63.4904945
 136.3329533  45.7217507  64.0408859 140.3628640  52.0012466  59.7289028
 139.7337503  52.1658180  59.0265096 139.9754302  52.4154076  60.4999992
 139.5430341  44.0388251  65.0051470 139.2991273  44.7930311  64.4685745
 139.8190272  44.4173598  65.8398717 141.4968804  50.5826863  63.6828735
 141.7085699  51.2258623  63.0063116 141.4498552  49.7489180  63.2150665
 139.0995033  43.1944684  60.5865307 138.2379512  43.4925937  60.8782045
 139.1257467  43.4115083  59.6546340 135.9156602  51.7386874  56.9939113
 136.3794948  52.0174577  56.2043736 135.6513400  50.8370319  56.8112204
 132.8080683  51.2858356  59.9318876 133.3782040  51.7145624  59.2936361
 133.3988795  51.0040941  60.6303062 134.8525488  47.8610027  53.8028678
 135.5549532  48.3131070  54.2702605 134.5206117  47.2193846  54.4308571
 133.3005850  46.4521783  68.1779888 132.6704510  47.1338064  68.4115284
 133.1941938  46.3404865  67.2333026 128.5950822  46.1193579  59.1045812
 127.8049876  46.3751108  58.6285922 129.0862070  46.9341917  59.2097852
 142.6114632  53.4598819  61.8551093 143.4332076  53.0579006  61.5733774
 142.6077035  53.3567053  62.8067208 130.5465568  46.4838159  56.0629288
 129.7496731  46.5956853  56.5812784 130.3191160  46.8224811  55.1970179
 136.3771235  53.0082862  64.0111803 136.4415668  53.4703269  64.8469975
 135.6682159  52.3780227  64.1394113 126.8788525  46.3724070  61.5360803
 127.1296564  47.2571080  61.8018379 127.4148074  46.1928671  60.7635894
 136.0919253  54.6750969  53.8790783 135.9564928  55.5202505  54.3075631
 136.6329065  54.8770247  53.1156717 132.5786593  40.7542549  70.5405139
 132.1853538  40.2008748  71.2152783 133.3952733  41.0653128  70.9311656
 129.5448650  52.1926407  54.4518709 130.0573171  52.9869658  54.6024273
 130.1971363  51.4952698  54.3852310 131.3543535  55.3092164  56.5341462
 131.5310163  56.2310128  56.3462446 132.1500369  54.9950583  56.9635841
 135.4954554  42.1700428  68.1325395 136.2364267  42.7707581  68.0529858
 135.7272476  41.4278066  67.5743438 130.6395892  47.3556796  66.4103625
 130.5249407  46.4542053  66.7110724 129.7840409  47.6020492  66.0588441
 137.7187729  55.2974536  68.0091126 137.2751583  54.5110914  67.6912030
 138.3804943  55.4853686  67.3435016 132.4774850  56.8270337  62.5351804
 133.0282276  56.6987401  61.7628798 131.6386326  57.1265226  62.1846697
 139.8168967  55.5777336  66.0372527 139.7987443  56.3986217  65.5452796
 140.7388887  55.4531411  66.2622668 136.2742022  53.0921465  66.8796035
 136.8070358  52.3309753  66.6495343 135.7456103  52.7995117  67.6220190
 139.4411716  38.1981531  62.4089677 139.0975986  39.0883173  62.3328787
 139.8090679  38.0083189  61.5459262 127.5097567  50.5215062  55.2278279
 128.3472789  50.9312070  55.0111987 127.6875835  49.5814504  55.1978473
 139.4061999  48.1890142  50.9162112 138.8908623  48.9594747  51.1550499
 139.1339308  47.5155279  51.5395173 136.9909110  43.0339843  55.9747350
 136.1350707  42.6446694  55.7952989 137.4036062  43.1131804  55.1147136
 138.5208257  40.5686186  60.3738910 138.0173052  40.5316322  59.5606715
 138.8138864  41.4778929  60.4335567 134.7651143  40.6524916  59.3805092
 135.6304140  40.4567725  59.0210981 134.8328652  40.4235268  60.3074449
 139.1948302  46.0617234  52.7421893 138.8898438  46.3763384  53.5932036
 140.1478744  46.1398654  52.7849226 137.6394734  52.2207458  54.3914847
 137.1116096  51.4860217  54.0788085 137.1382237  52.9982134  54.1454815
 142.6187580  50.4156478  59.5081893 141.9611255  51.1055740  59.5962022
 143.4227979  50.8052910  59.8515880 132.3713462  42.8827124  56.7521459
 132.9457214  42.6602306  56.0194652 132.9584444  42.9515819  57.5050060
 141.4293039  48.7700851  57.5585835 141.9424921  49.4030843  58.0607545
 142.0794263  48.1702046  57.1929195 132.6983049  44.9131585  50.7717344
 131.8620361  45.2506272  51.0926619 132.5587819  44.7780565  49.8344481
 134.6736130  39.7568373  55.4796528 134.0200542  39.4417390  54.8553143
 134.6316604  39.1344113  56.2056351 135.7847334  50.0387668  47.3949820
 134.8774396  49.8076921  47.5940969 136.2818366  49.2425287  47.5823802
 138.6915413  58.7485175  50.3146506 138.0177112  59.0516872  50.9231464
 139.0781235  59.5514256  49.9651963 137.9073870  46.2450306  59.8044176
 136.9896431  46.4665254  59.6465864 138.3234014  46.3196617  58.9455883
 138.6908918  47.6441722  54.9346856 139.4380737  48.1563119  54.6253978
 138.9600507  47.3225775  55.7951250 136.9635568  50.1400263  51.9173810
 136.0546787  49.8559296  52.0146280 136.9930652  50.5599341  51.0577117
 142.1954835  53.7506852  55.6864978 141.7417162  52.9097762  55.7430168
 141.5648802  54.3868251  56.0239758 141.1387755  44.6798838  56.9165645
 140.4010512  44.1676225  57.2475888 141.3914528  44.2399220  56.1048922
 140.6387774  55.5883349  56.6214796 140.9310749  56.1488406  55.9027162
 141.1486395  55.8811910  57.3767955 141.2399382  37.4575090  57.5107415
 141.5458259  36.5972454  57.2233330 141.9651987  38.0492711  57.3106408
 127.5323738  47.8605777  55.8989012 127.3348138  47.2675138  55.1740079
 126.9770402  47.5557987  56.6164951 135.5120462  47.7528884  58.0183606
 135.5669072  46.8002720  57.9426082 134.7011664  47.9088323  58.5024904
 136.6611656  51.6809007  49.2561889 136.2231086  50.9644866  48.7967526
 137.4022097  51.9085121  48.6946980 133.4512822  46.3705943  55.7773985
 132.6380687  46.6700114  56.1839177 133.9471816  45.9761632  56.4948467
 135.6021400  56.3663700  57.7108249 135.5597578  56.5924546  56.7816781
 136.5184099  56.1327075  57.8594050 139.0487033  46.8347768  64.6088878
 139.4036421  47.0619241  65.4683344 139.6959165  47.1666145  63.9866134
 132.9426897  43.9424299  61.3935219 133.5826276  43.8013058  60.6958183
 132.1104427  43.6558812  61.0173821 133.7187200  53.2426729  57.5070212
 134.5127799  52.7477049  57.3052787 133.0078893  52.7144592  57.1437917
 138.5382045  55.6244825  61.8582580 138.5919067  56.1935761  62.6260295
 137.6696826  55.7946710  61.4936617 130.0269964  47.3869811  53.5829965
 129.0967552  47.3254266  53.7999927 130.1227436  46.8645764  52.7866606
 129.9455513  43.9124624  56.1708206 130.2062330  44.8269957  56.0617367
 130.7672685  43.4449066  56.3204819 131.4180438  45.3262381  63.3407031
 132.0903492  45.1179743  62.6919680 130.5910225  45.1284467  62.9012263
 137.3206010  41.9524322  65.3572692 136.6733925  42.6514272  65.2637168
 138.0907026  42.3860466  65.7248940 140.7284808  52.2173174  68.4323245
 140.5770315  51.9883726  67.5153329 140.7189488  53.1743775  68.4454590
 137.4970145  49.7905087  63.4169511 138.4262205  49.9416246  63.2438479
 137.0761175  49.8789108  62.5618158 136.2958476  53.8155751  61.1868049
 136.1569562  53.4474536  62.0593987 135.5073073  54.3303391  61.0152007
 136.8906628  58.9164848  52.5293586 137.0658384  58.4452891  53.3439208
 136.2039416  59.5430614  52.7574846 137.8463692  53.1937354  58.5756887
 137.5113524  53.1538124  59.4714537 137.3467637  52.5282070  58.1027297
 131.8207936  48.6004984  64.1009468 131.6827733  47.8685223  64.7021007
 132.7312859  48.5113884  63.8193656 140.7822883  50.5393388  48.8493946
 140.1652054  49.8140216  48.7526999 140.3139372  51.3002748  48.5061021
 134.4490236  48.3124943  63.5893148 135.1589855  47.6718135  63.5479766
 134.4059544  48.5637838  64.5119328 142.4377015  55.2492297  66.5099727
 142.3789561  54.5651517  65.8430310 142.8396533  55.9911287  66.0580353
 133.1619170  45.2990161  65.4088787 132.6256527  44.8480900  66.0610383
 132.5735879  45.4336070  64.6659251 131.4567714  62.0654210  59.3033446
 131.6964312  62.6972735  59.9812464 130.6136910  61.7142250  59.5898805
 132.5721429  44.7578813  47.9715251 131.6950895  44.6367613  47.6077497
 133.0479182  43.9664891  47.7194139 142.4394422  53.2131881  64.7413706
 141.5521201  52.8757802  64.8640105 143.0092973  52.4814912  64.9782472
 124.0923569  49.5455972  58.0656758 124.7794609  49.2317702  57.4777773
 123.9371698  50.4497337  57.7924009 128.8958291  44.4346169  62.4941782
 128.8116480  43.8271838  61.7592192 128.0740998  44.9255187  62.4951278
 135.9695576  57.8733333  61.7074950 135.8965747  58.6788304  62.2194254
 135.5272969  58.0725299  60.8822971 135.7585355  57.1105103  55.2177771
 134.9752877  57.6526783  55.3115996 136.4578100  57.6279083  55.6172012
 139.0682005  42.9199732  57.8611977 139.5650705  42.1669695  57.5413047
 138.2968987  42.9564049  57.2955186 138.4294259  57.7720167  63.8633108
 139.1422231  58.4067632  63.7909010 137.9384288  57.8684033  63.0473110
 140.1511786  51.6771420  55.4350400 139.2168065  51.7972882  55.2655104
 140.3288454  50.7743886  55.1710410 135.6516974  45.0617115  57.5883661
 135.2814762  44.5088156  58.2764567 136.1476067  44.4575249  57.0358661
 133.4806173  55.5214610  64.6838679 134.1815632  56.1551093  64.8368073
 133.0101288  55.8629342  63.9234318 141.6060568  53.8632560  52.9686586
 141.8820412  53.7489155  53.8780460 140.7365067  53.4650045  52.9298759
 141.5101000  39.8869326  60.0091335 140.5964080  40.1173553  60.1773542
 141.9394102  39.9707770  60.8605368 141.2807459  48.0759218  62.5091230
 140.6278909  48.3235125  61.8543682 141.6587838  47.2623356  62.1753707
 138.2414632  58.1118911  56.6119400 138.4237027  57.2940567  57.0747152
 139.0647618  58.3286603  56.1744290 138.5756798  57.0387096  53.8734448
 139.1044564  56.5279551  53.2604610 138.8385018  56.7229626  54.7379981
 137.3295032  48.8179029  68.9957267 136.6535669  48.7173158  69.6659642
 138.1522666  48.6618243  69.4593264 129.0773891  55.0550965  61.6169782
 129.6627328  54.3094653  61.7497686 128.8798729  55.3654922  62.5006446
 131.9312546  58.0902213  56.6332224 131.2622921  58.5748340  56.1496264
 131.7925416  58.3371433  57.5475603 123.6691545  47.6256566  60.3374225
 123.7075645  47.0920156  61.1311343 123.1631838  47.0991771  59.7185202
 136.0717814  60.1245956  63.2314883 136.6236123  60.2877578  63.9963968
 136.4124008  60.7150394  62.5594907 131.0482308  42.4721106  63.8336767
 131.1123634  43.3335937  63.4214165 130.9849428  41.8595108  63.1009126
 130.5234580  44.5444239  67.4809802 131.1506619  44.1621316  68.0947326
 129.6662499  44.3258441  67.8465494 140.9228689  54.9507214  69.0863537
 141.4668593  55.5637172  68.5918492 140.3415534  55.5086792  69.6030550
 127.3000123  46.3520668  53.4128156 127.5953564  45.4431346  53.3595210
 126.3988159  46.3308407  53.0909159 139.2086202  58.0727932  60.2178565
 139.0837341  57.2717672  59.7089510 139.8665293  58.5674125  59.7292535
 130.8294370  44.4276664  59.3955705 130.1080956  45.0412632  59.2563178
 131.6187626  44.9634429  59.3172351 141.2721110  55.8736952  61.8458115
 140.3251446  55.7542303  61.7736442 141.6203883  54.9859450  61.9284376
 133.6320684  41.7631091  65.6696357 134.1555085  42.0093387  66.4322666
 133.4133017  42.5951126  65.2499494 129.0287965  44.0334765  53.5367482
 128.7000671  43.1532144  53.3542587 129.3827335  43.9782434  54.4243871
 138.2767543  55.6689668  58.0462467 138.1292506  54.7406376  58.2270037
 139.1021037  55.6909759  57.5619542 132.1429788  44.3207735  53.9042959
 132.4825860  44.8493656  53.1821568 132.5901908  44.6588141  54.6801526
 141.8801665  56.4918227  59.1327340 142.8048213  56.2861088  58.9951791
 141.7116969  56.2434628  60.0416681 134.8373229  42.7044786  63.3546027
 134.4970049  41.9052599  63.7566707 134.1312235  43.0046497  62.7822860
 135.4889700  39.7894098  61.8073350 136.3115770  39.3154577  61.6852241
 135.7327764  40.5684582  62.3072037 134.1297935  42.8182357  52.1036252
 134.8506297  43.1963610  51.5999969 133.5063239  43.5371234  52.2071230
 138.2729058  43.5227506  53.0394584 138.4892672  44.4052144  52.7383412
 137.7923125  43.1313719  52.3100226 133.0128279  46.4813219  59.6165329
 132.8672860  46.7953522  60.5089610 132.5353483  47.0998119  59.0636228
 134.8724662  43.4715767  59.6646218 134.8586231  42.5756860  59.3278516
 135.5897090  43.4786431  60.2984505 136.7250793  43.9053107  61.7099346
 136.4668571  44.8270178  61.7083676 136.1935833  43.5083542  62.3999810
 141.6696982  57.0103894  54.4889431 141.8433859  56.4450317  53.7363284
 142.1625873  57.8104789  54.3068921 127.4873941  49.0218563  62.5552990
 126.9427409  49.7978371  62.6873264 128.3653291  49.3689368  62.3972112
 134.2761558  42.3530147  54.9333789 134.3977469  41.4246793  55.1324676
 133.9863600  42.3668833  54.0212104 137.1452748  40.0385058  58.0700508
 137.1674445  40.1024391  57.1152488 137.5620807  39.1989566  58.2641015
 142.6572154  56.3270659  51.5886330 143.3523059  56.9477351  51.8073644
 142.9995304  55.4766010  51.8638707 128.2739963  48.1488460  65.4483147
 127.5321699  48.2971095  66.0347777 127.9532707  48.4096725  64.5849896
 136.2183626  57.6904438  65.2463537 136.5270752  57.4453585  66.1186237
 137.0159108  57.8951076  64.7582407 136.2404238  59.8442348  57.4768914
 135.8009228  59.3518726  58.1701770 136.9912355  59.3015315  57.2360989
 128.7196577  56.0353888  57.4793542 129.5454597  55.7357660  57.0992185
 128.3690629  55.2661511  57.9283330 133.6878110  55.3880357  59.5491215
 133.0658119  54.7251062  59.2493443 134.3582977  55.4141489  58.8664863
 126.9205182  53.9540215  58.4382475 126.0837090  53.5262389  58.2566476
 126.8928827  54.1472658  59.3753266 133.7602638  43.8662145  69.1423721
 133.8090793  44.7424267  68.7601491 134.3025152  43.3239538  68.5695364
 133.2491617  53.9384280  53.0249676 133.3979737  54.6219744  52.3716348
 134.0558060  53.9189370  53.5399131 141.6559121  47.2426662  67.0516894
 142.5568983  47.1033127  66.7600891 141.7307095  47.4081117  67.9915071
 135.9901926  44.6193517  65.8970080 135.1205235  44.9127083  65.6252668
 136.2261406  45.2033962  66.6177343 131.0044250  49.9649458  54.0310745
 130.7590292  49.0611788  54.2290955 131.1740164  49.9666608  53.0890223
 138.6940960  40.8373134  63.4135500 139.2122904  41.5734161  63.0881989
 138.3396093  41.1437127  64.2482259 130.2739897  45.6977815  51.5296906
 129.5809142  45.7722170  50.8736942 130.0291649  44.9338159  52.0518423
 138.9453554  37.2573417  58.9336397 139.2255308  36.5896606  59.5596823
 139.7304161  37.4502512  58.4211061 136.7487022  56.4332410  50.4961423
 136.1760990  57.0522598  50.0431895 137.3219816  56.9831772  51.0301345
 140.8376792  42.7646634  62.8667373 140.2426724  43.0451646  62.1713862
 140.5526488  43.2540535  63.6384114 139.9684282  56.7169561  51.6270005
 140.9014955  56.6515122  51.8302881 139.8807495  57.5525827  51.1684538
 142.5972299  56.0335431  48.5873953 142.5185930  55.6995294  49.4809711
 143.4181966  56.5257199  48.5865425 137.1333821  47.7693223  47.8377476
 138.0792926  47.6399431  47.9065894 136.7548066  47.0307885  48.3146904
 137.0172513  51.8210969  69.2978133 137.9375523  51.9989568  69.4918179
 136.9822097  50.8767015  69.1457832 135.3176738  45.6943200  47.7732361
 134.4108193  45.3976312  47.8495074 135.5952719  45.3973018  46.9066647
 126.2354678  47.0149563  58.2231407 125.9157463  46.1614871  57.9305781
 125.6888107  47.2298141  58.9789375 130.0134586  49.7312004  61.9400914
 130.2320596  50.6629112  61.9588948 130.4260360  49.3719978  62.7255718
 136.9338804  40.2380089  53.9276602 136.1239532  39.8927174  54.3031848
 137.6223221  39.9287633  54.5164214 138.8629352  39.3158136  55.5500899
 139.4160391  39.7353589  56.2090922 139.0999438  38.3893884  55.5923855
 134.8862451  45.3045210  71.3303663 134.7859178  46.2539567  71.2615754
 134.6683993  44.9763449  70.4579733 134.0875523  42.5530135  47.9144340
 134.9494687  42.8785033  48.1740157 134.2725867  41.7661631  47.4017406
 126.1042938  50.6352474  60.1924529 125.4106410  50.2206427  59.6794483
 126.8515929  50.6773011  59.5957948 142.2408159  41.4258661  55.0579563
 141.6606828  42.0843465  54.6757615 141.9744092  40.6036006  54.6466981
 140.6911726  40.8263719  57.2600883 141.1911504  40.9380253  56.4515202
 141.3347333  40.5224772  57.9001692 134.7493721  48.7342349  70.1468724
 134.2660803  49.5342709  70.3532613 134.8354660  48.7450293  69.1936168
 128.0179681  50.5670728  58.0690544 127.9950369  50.6658416  57.1172427
 128.3280318  51.4135879  58.3907710 130.6767059  52.6246883  62.1837158
 131.6310312  52.5930826  62.1167090 130.4779582  52.1637507  62.9987384
 131.2666441  51.1947999  64.7507956 132.0859330  51.6892078  64.7742793
 131.5403249  50.2779967  64.7225523 141.0233037  43.5858752  54.1135911
 140.1358892  43.8708402  53.8956106 141.4387026  43.4252515  53.2663188
 129.0317288  58.1666503  59.2007356 128.8971756  57.4066904  58.6345354
 128.6149350  58.8907403  58.7336145 140.1676251  53.3503426  48.2083931
 140.8712101  53.5553429  48.8241587 139.4438899  53.9180188  48.4733015
 140.9974061  49.1013288  54.3286201 140.9409262  49.5581839  53.4893834
 141.5502403  48.3403972  54.1509044 132.1886414  59.0635820  59.4125799
 132.0718798  60.0081252  59.3104489 131.3678860  58.7609381  59.8011598
 142.0762948  53.7885955  50.2582391 142.9108552  53.3567154  50.0759866
 141.9147291  53.6167969  51.1859286 141.7308840  50.2918069  51.6238731
 141.6757644  50.1262340  50.6827175 141.1054896  50.9994102  51.7800920
 126.5201355  45.5286133  65.4500153 127.1660219  45.0185087  65.9387378
 126.3118506  46.2654815  66.0243578 139.0454747  52.5966981  70.9492293
 139.9145907  52.7707633  70.5878928 138.5661499  53.4161397  70.8268023
 135.0404966  39.7926178  51.2024049 135.0283636  40.7368018  51.3592320
 135.9328388  39.6096323  50.9083510 133.2140928  59.7164082  62.6281727
 134.1168174  59.7487692  62.9448222 132.9878298  58.7864533  62.6428063
 134.9694530  58.4695068  59.2891806 134.0190161  58.4696930  59.1756178
 135.2727016  57.7227803  58.7727840 138.8557085  36.3868954  55.4569986
 138.0889481  35.8327441  55.6026668 139.2667790  36.4590823  56.3184137
 130.8598846  42.6753750  69.5475167 131.7230308  42.3190555  69.7578492
 130.2864257  42.3367645  70.2350571 143.3723745  66.1118511  56.2795984
 142.8088610  66.0208448  55.5112272 143.2576140  65.2918416  56.7598476
 140.9188177  67.6069703  59.1180204 141.7109469  67.2660527  58.7026504
 141.1584827  67.7164678  60.0382358 143.1266340  64.3330211  58.2250980
 142.2016837  64.2006425  58.4328672 143.3750753  65.1124430  58.7220923
 140.4875151  63.9763484  59.0594770 140.6167532  64.2297963  59.9734181
 139.8072603  64.5691192  58.7399425 139.4344577  61.4485497  59.1045812
 138.6443631  61.7043026  58.6285922 139.9255824  62.2633835  59.2097852
 141.3859322  61.8130076  56.0629288 140.5890485  61.9248771  56.5812784
 141.1584914  62.1516729  55.1970179 137.7182280  61.7015988  61.5360803
 137.9690318  62.5862997  61.8018379 138.2541828  61.5220589  60.7635894
 140.3842405  67.5218325  54.4518709 140.8966925  68.3161575  54.6024273
 141.0365118  66.8244616  54.3852310 142.1937289  70.6384081  56.5341462
 142.3703918  71.5602046  56.3462446 142.9894123  70.3242501  56.9635841
 141.4789646  62.6848713  66.4103625 141.3643161  61.7833970  66.7110724
 140.6234164  62.9312410  66.0588441 138.3491322  65.8506979  55.2278279
 139.1866544  66.2603988  55.0111987 138.5269589  64.9106422  55.1978473
 138.3717493  63.1897695  55.8989012 138.1741893  62.5967055  55.1740079
 137.8164157  62.8849905  56.6164951 140.8663718  62.7161729  53.5829965
 139.9361307  62.6546184  53.7999927 140.9621190  62.1937681  52.7866606
 140.7849267  59.2416541  56.1708206 141.0456085  60.1561875  56.0617367
 141.6066440  58.7740984  56.3204819 142.2574193  60.6554299  63.3407031
 142.9297246  60.4471661  62.6919680 141.4303979  60.4576385  62.9012263
 142.2961468  77.3946128  59.3033446 142.5358066  78.0264652  59.9812464
 141.4530665  77.0434168  59.5898805 134.9317324  64.8747890  58.0656758
 135.6188364  64.5609620  57.4777773 134.7765452  65.7789255  57.7924009
 139.7352046  59.7638086  62.4941782 139.6510235  59.1563756  61.7592192
 138.9134752  60.2547105  62.4951278 139.9167645  70.3842883  61.6169782
 140.5021082  69.6386571  61.7497686 139.7192484  70.6946840  62.5006446
 142.7706300  73.4194130  56.6332224 142.1016676  73.9040258  56.1496264
 142.6319170  73.6663351  57.5475603 134.5085300  62.9548483  60.3374225
 134.5469399  62.4212074  61.1311343 134.0025593  62.4283689  59.7185202
 141.8876062  57.8013024  63.8336767 141.9517389  58.6627855  63.4214165
 141.8243182  57.1887025  63.1009126 141.3628335  59.8736156  67.4809802
 141.9900374  59.4913234  68.0947326 140.5056254  59.6550358  67.8465494
 138.1393877  61.6812585  53.4128156 138.4347319  60.7723264  53.3595210
 137.2381913  61.6600325  53.0909159 141.6688124  59.7568582  59.3955705
 140.9474710  60.3704550  59.2563178 142.4581380  60.2926347  59.3172351
 139.8681719  59.3626683  53.5367482 139.5394425  58.4824062  53.3542587
 140.2221090  59.3074352  54.4243871 142.9823542  59.6499653  53.9042959
 143.3219615  60.1785574  53.1821568 143.4295663  59.9880059  54.6801526
 138.3267696  64.3510481  62.5552990 137.7821164  65.1270289  62.6873264
 139.2047046  64.6981286  62.3972112 139.1133718  63.4780377  65.4483147
 138.3715454  63.6263013  66.0347777 138.7926462  63.7388643  64.5849896
 139.5590331  71.3645806  57.4793542 140.3848351  71.0649578  57.0992185
 139.2084383  70.5953429  57.9283330 137.7598936  69.2832133  58.4382475
 136.9230845  68.8554307  58.2566476 137.7322582  69.4764576  59.3753266
 141.8438004  65.2941375  54.0310745 141.5984046  64.3903705  54.2290955
 142.0133919  65.2958526  53.0890223 141.1133652  61.0269733  51.5296906
 140.4202897  61.1014088  50.8736942 140.8685404  60.2630076  52.0518423
 137.0748433  62.3441481  58.2231407 136.7551217  61.4906789  57.9305781
 136.5281861  62.5590059  58.9789375 140.8528341  65.0603922  61.9400914
 141.0714350  65.9921029  61.9588948 141.2654114  64.7011896  62.7255718
 136.9436693  65.9644392  60.1924529 136.2500164  65.5498345  59.6794483
 137.6909684  66.0064929  59.5957948 138.8573435  65.8962646  58.0690544
 138.8344124  65.9950333  57.1172427 139.1674072  66.7427797  58.3907710
 141.5160813  67.9538801  62.1837158 142.4704067  67.9222743  62.1167090
 141.3173337  67.4929425  62.9987384 142.1060196  66.5239917  64.7507956
 142.9253084  67.0183996  64.7742793 142.3797003  65.6071885  64.7225523
 139.8711042  73.4958420  59.2007356 139.7365510  72.7358821  58.6345354
 139.4543104  74.2199320  58.7336145 143.0280168  74.3927737  59.4125799
 142.9112552  75.3373170  59.3104489 142.2072614  74.0901299  59.8011598
 137.3595110  60.8578051  65.4500153 138.0053973  60.3477005  65.9387378
 137.1512261  61.5946732  66.0243578 141.6992601  58.0045668  69.5475167
 142.5624062  57.6482473  69.7578492 141.1258011  57.6659563  70.2350571
 119.2400669  13.9547990  45.8425511 120.0321961  13.6138815  45.4271810
 119.4797320  14.0642965  46.7627664 127.2735796  16.1267766  38.3155755
 126.6223776  16.7121846  37.9289769 128.0680159  16.6573961  38.3750793
 123.0376466  14.5433285  51.9209789 122.7466332  15.4478916  51.8056455
 123.6733450  14.5849813  52.6353859 122.9787131  20.9939021  41.8830550
 122.9011160  21.9446846  41.9619031 122.3748774  20.6484894  42.5405477
 125.2525500  16.3521174  40.6036090 125.1171174  17.1972710  41.0320938
 125.7935312  16.5540452  39.8402024 118.7054897  13.8696612  41.1764015
 119.2179418  14.6639863  41.3269580 119.3577610  13.1722903  41.1097617
 120.5149782  16.9862369  43.2586768 120.6916410  17.9080333  43.0707752
 121.3106615  16.6720788  43.6881148 126.8793976  16.9744741  54.7336432
 126.4357830  16.1881119  54.4157337 127.5411190  17.1623891  54.0680323
 121.6381097  18.5040542  49.2597111 122.1888522  18.3757606  48.4874105
 120.7992573  18.8035431  48.9092003 128.9775214  17.2547541  52.7617833
 128.9593689  18.0756422  52.2698103 129.8995134  17.1301616  52.9867975
 127.8521660  20.4255380  37.0391813 127.1783359  20.7287077  37.6476771
 128.2387482  21.2284460  36.6897270 129.7994021  17.2653554  43.3460103
 130.0916996  17.8258611  42.6272468 130.3092642  17.5582115  44.1013262
 124.7627646  18.0433905  44.4353556 124.7203825  18.2694751  43.5062088
 125.6790345  17.8097280  44.5839357 127.6988292  17.3015030  48.5827886
 127.7525314  17.8705966  49.3505602 126.8303073  17.4716915  48.2181923
 125.4564723  15.4925956  47.9113356 125.3175809  15.1244741  48.7839294
 124.6679319  16.0073596  47.7397313 126.0512875  20.5935053  39.2538892
 126.2264631  20.1223096  40.0684515 125.3645663  21.2200819  39.4820153
 120.6173960  23.7424415  46.0278752 120.8570559  24.3742939  46.7057771
 119.7743157  23.3912455  46.3144112 125.1301822  19.5503538  48.4320256
 125.0571994  20.3558509  48.9439561 124.6879215  19.7495504  47.6068278
 124.9191602  18.7875308  41.9423078 124.1359124  19.3296988  42.0361302
 125.6184347  19.3049287  42.3417319 127.5900506  19.4490372  50.5878415
 128.3028478  20.0837837  50.5154316 127.0990534  19.5454238  49.7718417
 122.6412419  17.1984815  51.4083986 123.3421879  17.8321298  51.5613380
 122.1707534  17.5399547  50.6479625 127.4020879  19.7889116  43.3364706
 127.5843274  18.9710772  43.7992459 128.2253865  20.0056808  42.8989596
 127.7363045  18.7157301  40.5979755 128.2650811  18.2049756  39.9849917
 127.9991264  18.3999831  41.4625288 118.2380137  16.7321170  48.3415088
 118.8233574  15.9864858  48.4742993 118.0404976  17.0425127  49.2251752
 121.0918793  19.7672418  43.3577531 120.4229168  20.2518545  42.8741571
 120.9531662  20.0141638  44.2720909 125.2324061  21.8016161  49.9560189
 125.7842369  21.9647783  50.7209274 125.5730255  22.3920599  49.2840214
 128.3692449  19.7498137  46.9423871 128.2443588  18.9487877  46.4334817
 129.0271540  20.2444330  46.4537841 127.4373790  17.3459873  44.7707774
 127.2898753  16.4176580  44.9515344 128.2627284  17.3679964  44.2864849
 131.0407912  18.1688432  45.8572646 131.9654460  17.9631293  45.7197098
 130.8723215  17.9204833  46.7661988 130.8303228  18.6874099  41.2134738
 131.0040106  18.1220522  40.4608590 131.3232120  19.4874994  41.0314228
 125.3789873  19.3674643  51.9708844 125.6876999  19.1223790  52.8431543
 126.1765355  19.5721281  51.4827714 125.4010485  21.5212552  44.2014220
 124.9615475  21.0288931  44.8947077 126.1518602  20.9785520  43.9606295
 117.8802824  17.7124093  44.2038848 118.7060844  17.4127865  43.8237492
 117.5296876  16.9431716  44.6528637 122.8484357  17.0650562  46.2736522
 122.2264366  16.4021267  45.9738750 123.5189224  17.0911693  45.5910170
 116.0811429  15.6310420  45.1627782 115.2443337  15.2032594  44.9811783
 116.0535074  15.8242863  46.0998573 122.4097864  15.6154485  39.7494982
 122.5585984  16.2989949  39.0961655 123.2164307  15.5959575  40.2644438
 125.9093269  18.1102615  37.2206730 125.3367236  18.7292802  36.7677202
 126.4826063  18.6601977  37.7546652 129.1290529  18.3939765  38.3515312
 130.0621202  18.3285327  38.5548188 129.0413742  19.2296032  37.8929845
 115.2649185  12.3122679  46.9169835 114.5712657  11.8976632  46.4039790
 116.0122176  12.3543216  46.3203254 117.1785928  12.2440933  44.7935850
 117.1556616  12.3428620  43.8417733 117.4886564  13.0906084  45.1153016
 119.8373306  14.3017088  48.9082465 120.7916559  14.2701031  48.8412396
 119.6385829  13.8407712  49.7232691 118.1923534  19.8436708  45.9252663
 118.0578002  19.0837109  45.3590661 117.7755597  20.5677608  45.4581452
 121.3492660  20.7406025  46.1371105 121.2325044  21.6851457  46.0349796
 120.5285107  20.4379586  46.5256905 122.3747174  21.3934287  49.3527034
 123.2774421  21.4257897  49.6693529 122.1484545  20.4634738  49.3673370
 124.1300776  20.1465273  46.0137112 123.1796407  20.1467135  45.9001485
 124.4333263  19.3998008  45.4973147 139.8653470  25.9825812  47.0782875
 140.5031880  25.8632559  46.3746215 139.7474313  26.9306655  47.1370827
 136.6743176  25.9353240  47.0144399 136.3361688  25.8194304  46.1264934
 137.5432944  25.5344405  46.9945406 132.5329992  27.7888716  43.0041290
 131.9694857  27.6978653  42.2357578 132.4182387  26.9688620  43.4843783
 137.1562959  27.0888091  52.9730605 137.1451600  26.6940890  52.1011109
 137.3183599  26.3554164  53.5664376 130.0794424  29.2839908  45.8425511
 130.8715716  28.9430732  45.4271810 130.3191074  29.3934883  46.7627664
 138.1129551  31.4559684  38.3155755 137.4617530  32.0413764  37.9289769
 138.9073913  31.9865879  38.3750793 132.0385178  28.5448821  38.7142890
 132.8116054  27.9977808  38.5755765 132.3910577  29.4093070  38.9257351
 133.8770220  29.8725203  51.9209789 133.5860086  30.7770834  51.8056455
 134.5127205  29.9141731  52.6353859 134.8026427  27.2502052  48.5111149
 135.3989999  27.0258074  47.7968112 134.8601399  26.5086797  49.1136596
 134.3751456  24.7041487  36.3461340 134.6276976  24.1823008  35.5844803
 133.4376015  24.5407632  36.4488023 139.4194738  23.7077265  44.1536083
 140.2057828  23.2896689  43.8026500 139.6833443  24.6123358  44.3217731
 139.5904816  29.1450116  38.8524740 138.9550649  29.2184742  39.5645644
 139.2602222  29.7343715  38.1743819 134.0947744  26.6069593  38.5485715
 133.9784002  25.9314496  39.2166799 134.2050004  26.1201967  37.7317868
 136.4379285  26.0679740  42.2532404 136.0737493  25.5410361  42.9645325
 137.2946401  25.6778209  42.0798889 138.8360105  29.5586619  48.9159583
 138.5360829  30.4611657  48.8075390 138.4911165  29.2918802  49.7680736
 132.2872587  26.0100416  44.9496287 131.3623083  25.8776630  45.1573979
 132.5357000  26.7894635  45.4466229 142.2357249  22.0769159  46.5957020
 141.3274127  22.0084567  46.3015781 142.1844845  22.5541104  47.4238845
 136.0573993  23.5527297  38.2340419 135.9373618  23.9984348  39.0725899
 135.3626582  23.9012615  37.6753957 129.6481398  25.6533689  45.7840076
 129.7773779  25.9068168  46.6979488 128.9678849  26.2461397  45.4644731
 133.8180885  36.3230939  41.8830550 133.7404915  37.2738764  41.9619031
 133.2142529  35.9776812  42.5405477 136.3098115  23.4958804  54.5391917
 135.5331449  24.0552725  54.5294782 136.9488678  23.9815587  55.0606787
 134.5644487  26.3044258  54.1009884 135.3059172  26.8429302  53.8244708
 133.8581473  26.9310547  54.2581436 140.0399827  28.4473398  52.6982046
 140.4483183  28.0055809  51.9536678 139.3177088  27.8726026  52.9516239
 136.3930897  23.3846005  50.0715603 137.2392092  23.8085419  50.2150252
 136.3329535  22.7279629  50.7654166 140.3628642  29.0074589  46.4534335
 139.7337504  29.1720303  45.7510402 139.9754304  29.4216198  47.2245299
 139.5430342  21.0450373  51.7296776 139.2991274  21.7992434  51.1931052
 139.8190273  21.4235721  52.5644023 141.4968805  27.5888986  50.4074042
 141.7085700  28.2320746  49.7308423 141.4498553  26.7551302  49.9395972
 139.0995034  20.2006806  47.3110614 138.2379513  20.4988060  47.6027352
 139.1257469  20.4177205  46.3791647 135.9156603  28.7448997  43.7184420
 136.3794949  29.0236700  42.9289042 135.6513402  27.8432442  43.5357510
 132.8080685  28.2920479  46.6564183 133.3782042  28.7207747  46.0181667
 133.3988796  28.0103063  47.3548369 134.8525490  24.8672149  40.5273985
 135.5549533  25.3193193  40.9947911 134.5206118  24.2255968  41.1553878
 133.3005851  23.4583906  54.9025194 132.6704512  24.1400187  55.1360591
 133.1941939  23.3466988  53.9578332 128.5950823  23.1255702  45.8291118
 127.8049877  23.3813231  45.3531229 129.0862071  23.9404040  45.9343159
 142.6114633  30.4660941  48.5796399 143.4332077  30.0641128  48.2979081
 142.6077036  30.3629175  49.5312515 130.5465569  23.4900281  42.7874595
 129.7496732  23.6018976  43.3058091 130.3191161  23.8286933  41.9215486
 136.3771237  30.0144984  50.7357110 136.4415669  30.4765392  51.5715282
 135.6682160  29.3842349  50.8639420 126.8788526  23.3786192  48.2606109
 127.1296565  24.2633202  48.5263685 127.4148075  23.1990794  47.4881201
 136.0919254  31.6813092  40.6036090 135.9564929  32.5264628  41.0320938
 136.6329067  31.8832370  39.8402024 129.5448652  29.1988530  41.1764015
 130.0573172  29.9931780  41.3269580 130.1971364  28.5014820  41.1097617
 131.3543536  32.3154286  43.2586768 131.5310165  33.2372251  43.0707752
 132.1500370  32.0012705  43.6881148 130.6395893  24.3618918  53.1348932
 130.5249408  23.4604175  53.4356030 129.7840411  24.6082615  52.7833748
 137.7187731  32.3036658  54.7336432 137.2751585  31.5173037  54.4157337
 138.3804944  32.4915809  54.0680323 132.4774852  33.8332460  49.2597111
 133.0282277  33.7049523  48.4874105 131.6386328  34.1327349  48.9092003
 139.8168969  32.5839458  52.7617833 139.7987444  33.4048339  52.2698103
 140.7388889  32.4593534  52.9867975 136.2742023  30.0983588  53.6041342
 136.8070360  29.3371876  53.3740650 135.7456104  29.8057240  54.3465496
 127.5097568  27.5277184  41.9523586 128.3472790  27.9374193  41.7357293
 127.6875836  26.5876626  41.9223780 139.4062000  25.1952265  37.6407419
 138.8908624  25.9656870  37.8795806 139.1339309  24.5217401  38.2640480
 136.9909111  20.0401966  42.6992657 136.1350708  19.6508816  42.5198296
 137.4036063  20.1193927  41.8392443 139.1948304  23.0679357  39.4667200
 138.8898439  23.3825506  40.3177343 140.1478746  23.1460777  39.5094533
 137.6394735  29.2269580  41.1160154 137.1116097  28.4922340  40.8033391
 137.1382238  30.0044257  40.8700122 142.6187581  27.4218601  46.2327200
 141.9611256  28.1117862  46.3207329 143.4227981  27.8115033  46.5761186
 132.3713463  19.8889247  43.4766765 132.9457215  19.6664428  42.7439958
 132.9584446  19.9577941  44.2295367 141.4293040  25.7762974  44.2831142
 141.9424922  26.4092965  44.7852852 142.0794264  25.1764169  43.9174502
 132.6983050  21.9193708  37.4962651 131.8620362  22.2568394  37.8171925
 132.5587820  21.7842687  36.5589788 138.6915415  35.7547298  37.0391813
 138.0177113  36.0578995  37.6476771 139.0781237  36.5576378  36.6897270
 137.9073871  23.2512429  46.5289482 136.9896433  23.4727376  46.3711170
 138.3234015  23.3258740  45.6701190 138.6908919  24.6503845  41.6592163
 139.4380738  25.1625242  41.3499285 138.9600508  24.3287898  42.5196556
 136.9635569  27.1462386  38.6419117 136.0546788  26.8621418  38.7391587
 136.9930653  27.5661464  37.7822424 142.1954837  30.7568975  42.4110284
 141.7417164  29.9159885  42.4675475 141.5648803  31.3930373  42.7485065
 141.1387756  21.6860961  43.6410952 140.4010513  21.1738347  43.9721195
 141.3914530  21.2461343  42.8294229 140.6387776  32.5945472  43.3460103
 140.9310750  33.1550529  42.6272468 141.1486396  32.8874033  44.1013262
 127.5323739  24.8667900  42.6234319 127.3348139  24.2737260  41.8985386
 126.9770403  24.5620110  43.3410258 135.5120463  24.7591006  44.7428912
 135.5669073  23.8064843  44.6671389 134.7011665  24.9150445  45.2270211
 136.6611657  28.6871129  35.9807196 136.2231087  27.9706988  35.5212833
 137.4022098  28.9147244  35.4192287 133.4512823  23.3768066  42.5019291
 132.6380689  23.6762236  42.9084483 133.9471817  22.9823755  43.2193773
 135.6021401  33.3725823  44.4353556 135.5597580  33.5986669  43.5062088
 136.5184100  33.1389197  44.5839357 139.0487035  23.8409890  51.3334185
 139.4036422  24.0681363  52.1928651 139.6959166  24.1728267  50.7111440
 132.9426898  20.9486421  48.1180526 133.5826277  20.8075180  47.4203489
 132.1104428  20.6620935  47.7419128 133.7187202  30.2488852  44.2315519
 134.5127800  29.7539172  44.0298094 133.0078894  29.7206715  43.8683224
 138.5382046  32.6306947  48.5827886 138.5919068  33.1997884  49.3505602
 137.6696828  32.8008832  48.2181923 130.0269965  24.3931934  40.3075271
 129.0967553  24.3316389  40.5245233 130.1227437  23.8707886  39.5111912
 129.9455514  20.9186746  42.8953513 130.2062332  21.8332080  42.7862673
 130.7672687  20.4511189  43.0450126 131.4180440  22.3324504  50.0652337
 132.0903493  22.1241866  49.4164986 130.5910226  22.1346590  49.6257570
 140.7284810  29.2235297  55.1568552 140.5770316  28.9945848  54.2398635
 140.7189489  30.1805898  55.1699897 137.4970146  26.7967209  50.1414818
 138.4262206  26.9478369  49.9683785 137.0761176  26.8851230  49.2863465
 136.2958478  30.8217874  47.9113356 136.1569563  30.4536658  48.7839294
 135.5073074  31.3365513  47.7397313 136.8906630  35.9226970  39.2538892
 137.0658385  35.4515013  40.0684515 136.2039418  36.5492736  39.4820153
 137.8463693  30.1999476  45.3002193 137.5113525  30.1600246  46.1959843
 137.3467639  29.5344192  44.8272604 131.8207937  25.6067107  50.8254775
 131.6827735  24.8747345  51.4266314 132.7312860  25.5176007  50.5438962
 134.4490237  25.3187066  50.3138454 135.1589856  24.6780258  50.2725073
 134.4059546  25.5699961  51.2364635 142.4377016  32.2554419  53.2345033
 142.3789562  31.5713639  52.5675616 142.8396535  32.9973409  52.7825659
 133.1619171  22.3052284  52.1334094 132.6256528  21.8543022  52.7855690
 132.5735880  22.4398193  51.3904558 131.4567715  39.0716333  46.0278752
 131.6964313  39.7034857  46.7057771 130.6136911  38.7204373  46.3144112
 142.4394423  30.2194003  51.4659013 141.5521202  29.8819925  51.5885412
 143.0092974  29.4877034  51.7027779 124.0923571  26.5518095  44.7902065
 124.7794610  26.2379825  44.2023080 123.9371699  27.4559459  44.5169316
 128.8958293  21.4408291  49.2187088 128.8116481  20.8333961  48.4837498
 128.0740999  21.9317310  49.2196585 135.9695577  34.8795455  48.4320256
 135.8965748  35.6850427  48.9439561 135.5272970  35.0787421  47.6068278
 135.7585356  34.1167225  41.9423078 134.9752878  34.6588906  42.0361302
 136.4578102  34.6341205  42.3417319 138.4294260  34.7782289  50.5878415
 139.1422233  35.4129754  50.5154316 137.9384289  34.8746155  49.7718417
 140.1511787  28.6833542  42.1595707 139.2168066  28.8035005  41.9900411
 140.3288456  27.7806009  41.8955716 135.6516975  22.0679238  44.3128968
 135.2814763  21.5150278  45.0009873 136.1476068  21.4637371  43.7603968
 133.4806174  32.5276733  51.4083986 134.1815633  33.1613216  51.5613380
 133.0101289  32.8691464  50.6479625 141.6060570  30.8694683  39.6931893
 141.8820414  30.7551277  40.6025767 140.7365068  30.4712168  39.6544066
 141.2807460  25.0821340  49.2336536 140.6278910  25.3297248  48.5788989
 141.6587840  24.2685479  48.8999013 138.2414634  35.1181034  43.3364706
 138.4237028  34.3002690  43.7992459 139.0647620  35.3348726  42.8989596
 138.5756799  34.0449219  40.5979755 139.1044566  33.5341673  39.9849917
 138.8385019  33.7291749  41.4625288 137.3295033  25.8241151  55.7202573
 136.6535670  25.7235281  56.3904948 138.1522667  25.6680365  56.1838570
 129.0773892  32.0613088  48.3415088 129.6627329  31.3156776  48.4742993
 128.8798730  32.3717045  49.2251752 131.9312547  35.0964335  43.3577531
 131.2622922  35.5810463  42.8741571 131.7925417  35.3433556  44.2720909
 123.6691547  24.6318688  47.0619532 123.7075646  24.0982279  47.8556650
 123.1631839  24.1053894  46.4430509 136.0717816  37.1308079  49.9560189
 136.6236124  37.2939700  50.7209274 136.4124009  37.7212517  49.2840214
 131.0482309  19.4783229  50.5582074 131.1123635  20.3398060  50.1459472
 130.9849429  18.8657230  49.8254432 130.5234582  21.5506361  54.2055108
 131.1506620  21.1683439  54.8192633 129.6662500  21.3320563  54.5710801
 140.9228690  31.9569336  55.8108844 141.4668594  32.5699295  55.3163798
 140.3415535  32.5148915  56.3275857 127.3000124  23.3582790  40.1373463
 127.5953565  22.4493469  40.0840517 126.3988160  23.3370530  39.8154465
 139.2086203  35.0790054  46.9423871 139.0837342  34.2779794  46.4334817
 139.8665294  35.5736248  46.4537841 130.8294371  21.4338787  46.1201012
 130.1080957  22.0474755  45.9808485 131.6187627  21.9696552  46.0417658
 141.2721111  32.8799075  48.5703421 140.3251447  32.7604426  48.4981748
 141.6203885  31.9921573  48.6529683 133.6320685  18.7693213  52.3941663
 134.1555087  19.0155510  53.1567973 133.4133018  19.6013248  51.9744801
 129.0287966  21.0396888  40.2612788 128.7000672  20.1594267  40.0787894
 129.3827337  20.9844557  41.1489177 138.2767545  32.6751791  44.7707774
 138.1292507  31.7468498  44.9515344 139.1021038  32.6971881  44.2864849
 132.1429789  21.3269858  40.6288266 132.4825862  21.8555779  39.9066874
 132.5901909  21.6650264  41.4046832 141.8801667  33.4980349  45.8572646
 142.8048214  33.2923211  45.7197098 141.7116970  33.2496751  46.7661988
 134.8373230  19.7106909  50.0791334 134.4970050  18.9114722  50.4812014
 134.1312236  20.0108619  49.5068167 134.1297936  19.8244479  38.8281559
 134.8506299  20.2025732  38.3245275 133.5063240  20.5433356  38.9316537
 133.0128280  23.4875342  46.3410636 132.8672861  23.8015645  47.2334917
 132.5353484  24.1060242  45.7881534 134.8724663  20.4777890  46.3891525
 134.8586232  19.5818983  46.0523823 135.5897091  20.4848553  47.0229811
 136.7250794  20.9115230  48.4344653 136.4668572  21.8332300  48.4328983
 136.1935834  20.5145664  49.1245117 141.6696983  34.0166017  41.2134738
 141.8433860  33.4512439  40.4608590 142.1625874  34.8166912  41.0314228
 127.4873943  26.0280686  49.2798297 126.9427411  26.8040494  49.4118571
 128.3653292  26.3751490  49.1217418 134.2761559  19.3592270  41.6579095
 134.3977470  18.4308916  41.8569983 133.9863602  19.3730956  40.7457411
 142.6572155  33.3332781  38.3131636 143.3523060  33.9539474  38.5318951
 142.9995305  32.4828133  38.5884014 128.2739964  25.1550582  52.1728454
 127.5321700  25.3033218  52.7593084 127.9532709  25.4158848  51.3095203
 136.2183627  34.6966560  51.9708844 136.5270754  34.4515707  52.8431543
 137.0159109  34.9013199  51.4827714 136.2404239  36.8504470  44.2014220
 135.8009229  36.3580849  44.8947077 136.9912356  36.3077438  43.9606295
 128.7196578  33.0416011  44.2038848 129.5454598  32.7419783  43.8237492
 128.3690630  32.2723633  44.6528637 133.6878111  32.3942479  46.2736522
 133.0658121  31.7313184  45.9738750 134.3582978  32.4203611  45.5910170
 126.9205183  30.9602337  45.1627782 126.0837091  30.5324512  44.9811783
 126.8928829  31.1534781  46.0998573 133.7602639  20.8724267  55.8669028
 133.8090794  21.7486390  55.4846797 134.3025153  20.3301660  55.2940671
 133.2491618  30.9446403  39.7494982 133.3979739  31.6281867  39.0961655
 134.0558062  30.9251493  40.2644438 141.6559122  24.2488785  53.7762200
 142.5568985  24.1095250  53.4846198 141.7307096  24.4143240  54.7160378
 135.9901927  21.6255640  52.6215386 135.1205237  21.9189206  52.3497975
 136.2261408  22.2096085  53.3422650 131.0044251  26.9711580  40.7556051
 130.7590293  26.0673910  40.9536261 131.1740166  26.9728731  39.8135529
 130.2739899  22.7039938  38.2542213 129.5809144  22.7784293  37.5982249
 130.0291651  21.9400281  38.7763730 136.7487024  33.4394533  37.2206730
 136.1760991  34.0584720  36.7677202 137.3219817  33.9893895  37.7546652
 139.9684283  33.7231683  38.3515312 140.9014957  33.6577245  38.5548188
 139.8807496  34.5587950  37.8929845 137.0172515  28.8273092  56.0223439
 137.9375524  29.0051691  56.2163486 136.9822098  27.8829137  55.8703139
 126.2354680  24.0211686  44.9476714 125.9157464  23.1676994  44.6551088
 125.6888108  24.2360264  45.7034681 130.0134587  26.7374127  48.6646220
 130.2320597  27.6691234  48.6834254 130.4260361  26.3782101  49.4501024
 134.8862453  22.3107332  58.0548969 134.7859179  23.2601689  57.9861060
 134.6683995  21.9825571  57.1825039 126.1042940  27.6414597  46.9169835
 125.4106411  27.2268550  46.4039790 126.8515931  27.6835134  46.3203254
 134.7493723  25.7404471  56.8714031 134.2660804  26.5404831  57.0777920
 134.8354662  25.7512416  55.9181475 128.0179682  27.5732851  44.7935850
 127.9950370  27.6720538  43.8417733 128.3280319  28.4198002  45.1153016
 130.6767060  29.6309006  48.9082465 131.6310314  29.5992948  48.8412396
 130.4779584  29.1699630  49.7232691 131.2666442  28.2010122  51.4753262
 132.0859331  28.6954201  51.4988100 131.5403250  27.2842090  51.4470830
 129.0317289  35.1728625  45.9252663 128.8971757  34.4129026  45.3590661
 128.6149351  35.8969525  45.4581452 140.9974062  26.1075410  41.0531508
 140.9409264  26.5643962  40.2139141 141.5502405  25.3466095  40.8754351
 132.1886415  36.0697942  46.1371105 132.0718799  37.0143375  46.0349796
 131.3678861  35.7671504  46.5256905 126.5201357  22.5348256  52.1745460
 127.1660220  22.0247210  52.6632685 126.3118508  23.2716937  52.7488885
 139.0454749  29.6029103  57.6737600 139.9145908  29.7769756  57.3124235
 138.5661500  30.4223520  57.5513329 133.2140929  36.7226204  49.3527034
 134.1168176  36.7549815  49.6693529 132.9878299  35.7926655  49.3673370
 134.9694531  35.4757191  46.0137112 134.0190162  35.4759052  45.9001485
 135.2727017  34.7289925  45.4973147 130.8598848  19.6815873  56.2720474
 131.7230309  19.3252678  56.4823798 130.2864258  19.3429768  56.9595878
 143.3723746  43.1180634  43.0041290 142.8088612  43.0270571  42.2357578
 143.2576141  42.2980538  43.4843783 140.9188178  44.6131825  45.8425511
 141.7109470  44.2722650  45.4271810 141.1584829  44.7226800  46.7627664
 143.1266341  41.3392333  44.9496287 142.2016838  41.2068547  45.1573979
 143.3750755  42.1186552  45.4466229 140.4875152  40.9825607  45.7840076
 140.6167534  41.2360086  46.6979488 139.8072604  41.5753315  45.4644731
 139.4344578  38.4547620  45.8291118 138.6443632  38.7105148  45.3531229
 139.9255825  39.2695958  45.9343159 141.3859323  38.8192199  42.7874595
 140.5890487  38.9310893  43.3058091 141.1584916  39.1578851  41.9215486
 137.7182281  38.7078110  48.2606109 137.9690319  39.5925120  48.5263685
 138.2541829  38.5282712  47.4881201 140.3842406  44.5280448  41.1764015
 140.8966927  45.3223698  41.3269580 141.0365119  43.8306738  41.1097617
 142.1937291  47.6446204  43.2586768 142.3703919  48.5664169  43.0707752
 142.9894124  47.3304623  43.6881148 141.4789647  39.6910836  53.1348932
 141.3643162  38.7896093  53.4356030 140.6234165  39.9374533  52.7833748
 138.3491323  42.8569102  41.9523586 139.1866545  43.2666110  41.7357293
 138.5269591  41.9168544  41.9223780 138.3717494  40.1959817  42.6234319
 138.1741894  39.6029178  41.8985386 137.8164158  39.8912027  43.3410258
 140.8663720  39.7223851  40.3075271 139.9361308  39.6608307  40.5245233
 140.9621192  39.1999804  39.5111912 140.7849269  36.2478664  42.8953513
 141.0456086  37.1623997  42.7862673 141.6066441  35.7803107  43.0450126
 142.2574194  37.6616421  50.0652337 142.9297247  37.4533783  49.4164986
 141.4303981  37.4638507  49.6257570 142.2961469  54.4008251  46.0278752
 142.5358068  55.0326775  46.7057771 141.4530666  54.0496291  46.3144112
 134.9317325  41.8810013  44.7902065 135.6188365  41.5671743  44.2023080
 134.7765454  42.7851377  44.5169316 139.7352047  36.7700209  49.2187088
 139.6510236  36.1625879  48.4837498 138.9134754  37.2609227  49.2196585
 139.9167646  47.3905006  48.3415088 140.5021083  46.6448694  48.4742993
 139.7192485  47.7008962  49.2251752 142.7706302  50.4256253  43.3577531
 142.1016677  50.9102381  42.8741571 142.6319171  50.6725474  44.2720909
 134.5085301  39.9610606  47.0619532 134.5469401  39.4274197  47.8556650
 134.0025594  39.4345811  46.4430509 141.8876063  34.8075146  50.5582074
 141.9517390  35.6689977  50.1459472 141.8243184  34.1949148  49.8254432
 141.3628336  36.8798279  54.2055108 141.9900375  36.4975356  54.8192633
 140.5056255  36.6612481  54.5710801 138.1393879  38.6874708  40.1373463
 138.4347320  37.7785386  40.0840517 137.2381915  38.6662447  39.8154465
 141.6688126  36.7630705  46.1201012 140.9474712  37.3766672  45.9808485
 142.4581382  37.2988469  46.0417658 139.8681720  36.3688806  40.2612788
 139.5394426  35.4886185  40.0787894 140.2221091  36.3136474  41.1489177
 142.9823543  36.6561775  40.6288266 143.3219616  37.1847697  39.9066874
 143.4295664  36.9942182  41.4046832 138.3267697  41.3572604  49.2798297
 137.7821165  42.1332412  49.4118571 139.2047047  41.7043408  49.1217418
 139.1133719  40.4842500  52.1728454 138.3715455  40.6325135  52.7593084
 138.7926463  40.7450766  51.3095203 139.5590333  48.3707929  44.2038848
 140.3848353  48.0711701  43.8237492 139.2084385  47.6015551  44.6528637
 137.7598938  46.2894255  45.1627782 136.9230846  45.8616429  44.9811783
 137.7322583  46.4826698  46.0998573 141.8438006  42.3003498  40.7556051
 141.5984048  41.3965828  40.9536261 142.0133920  42.3020648  39.8135529
 141.1133653  38.0331855  38.2542213 140.4202898  38.1076210  37.5982249
 140.8685405  37.2692199  38.7763730 137.0748434  39.3503603  44.9476714
 136.7551219  38.4968911  44.6551088 136.5281862  39.5652181  45.7034681
 140.8528342  42.0666044  48.6646220 141.0714352  42.9983152  48.6834254
 141.2654116  41.7074019  49.4501024 136.9436694  42.9706515  46.9169835
 136.2500166  42.5560468  46.4039790 137.6909685  43.0127051  46.3203254
 138.8573437  42.9024769  44.7935850 138.8344125  43.0012456  43.8417733
 139.1674073  43.7489919  45.1153016 141.5160815  44.9600924  48.9082465
 142.4704068  44.9284866  48.8412396 141.3173338  44.4991547  49.7232691
 142.1060197  43.5302040  51.4753262 142.9253086  44.0246118  51.4988100
 142.3797004  42.6134008  51.4470830 139.8711043  50.5020543  45.9252663
 139.7365511  49.7420944  45.3590661 139.4543106  51.2261443  45.4581452
 143.0280169  51.3989860  46.1371105 142.9112553  52.3435293  46.0349796
 142.2072616  51.0963422  46.5256905 137.3595111  37.8640173  52.1745460
 138.0053975  37.3539127  52.6632685 137.1512262  38.6008855  52.7488885
 141.6992602  35.0107791  56.2720474 142.5624064  34.6544595  56.4823798
 141.1258013  34.6721685  56.9595878  18.8798242  69.7789484 131.2438606
  18.2286222  70.3643565 130.8572620  19.6742605  70.3095679 131.3033643
  12.8053870  66.8678621 131.6425740  13.5784746  66.3207608 131.5038616
  13.1579268  67.7322871 131.8540201  15.1420147  63.0271287 129.2744190
  15.3945668  62.5052809 128.5127653  14.2044707  62.8637433 129.3770874
  20.3573508  67.4679916 131.7807590  19.7219341  67.5414543 132.4928495
  20.0270914  68.0573515 131.1026669  14.5849577  74.6460739 134.8113401
  14.5073607  75.5968565 134.8901881  13.9811221  74.3006612 135.4688327
  22.5227751  62.3478571 131.9903604  23.4345607  62.5805958 131.8151301
  22.0137398  62.9315615 131.4278682  25.0086565  68.2658827 136.7361549
  24.3237603  68.6457729 136.1858582  25.0930415  68.8754154 137.4693497
  31.4689318  65.1329490 137.8564221  30.7153026  64.5636888 137.7008226
  31.6036859  65.0992155 138.8034856  16.8587946  70.0042892 133.5318941
  16.7233621  70.8494428 133.9603788  17.3997758  70.2062170 132.7684874
  20.1730692  63.5182065 130.5690269  19.6577316  64.2886670 130.8078657
  19.9008001  62.8447202 131.1923331  25.1464966  66.2714420 132.5043443
  24.3694409  65.9325580 132.0598605  25.8256447  66.2767043 131.8298408
  18.4063427  67.5499381 134.0443004  17.8784789  66.8152140 133.7316242
  17.9050930  68.3274057 133.7982973  16.5516027  65.3679591 127.0477977
  15.6443089  65.1368845 127.2469126  17.0487059  64.5717210 127.2351959
  19.4584106  74.0777098 129.9674663  18.7845805  74.3808795 130.5759621
  19.8449928  74.8806179 129.6180121  17.7304261  65.4692186 131.5701967
  16.8215480  65.1851219 131.6674437  17.7599345  65.8891264 130.7105274
  22.9623528  69.0798775 135.3393135  22.5085855  68.2389685 135.3958325
  22.3317495  69.7160174 135.6767915  21.4056468  70.9175272 136.2742953
  21.6979442  71.4780329 135.5555319  21.9155088  71.2103833 137.0296112
  17.4280349  67.0100930 128.9090046  16.9899779  66.2936789 128.4495683
  18.1690790  67.2377044 128.3475137  25.5453463  65.2858127 134.9666365
  25.4071362  65.4759723 134.0387554  25.1889682  66.0477509 135.4234416
  17.6575321  74.2456771 132.1821743  17.8327077  73.7744814 132.9967365
  16.9708110  74.8722537 132.4103003  21.5491576  65.8685311 128.5022104
  20.9320747  65.1432139 128.4055156  21.0808065  66.6294672 128.1589178
  13.3390122  60.0870736 127.6243408  12.4619589  59.9659536 127.2605654
  13.8147875  59.2956814 127.3722296  16.5254048  72.4397026 134.8705928
  15.7421570  72.9818706 134.9644153  17.2246793  72.9571006 135.2700170
  20.9180479  67.0063343 135.0878557  19.9836758  67.1264805 134.9183261
  21.0957148  66.1035809 134.8238567  22.3729262  69.1924483 132.6214743
  22.6489105  69.0781078 133.5308617  21.5033760  68.7941968 132.5826916
  19.0083326  73.4410834 136.2647557  19.1905720  72.6232490 136.7275309
  19.8316312  73.6578526 135.8272447  19.3425491  72.3679019 133.5262605
  19.8713257  71.8571474 132.9132768  19.6053711  72.0521549 134.3908138
  22.4365675  72.3395817 134.1417588  22.6102552  71.7742240 133.3891441
  22.9294566  73.1396712 133.9597078  28.2905066  65.1032240 135.7607888
  28.7336212  64.3539565 135.3627011  27.4131576  65.0942377 135.3781620
  23.4240847  71.6562582 131.2414487  24.1191752  72.2769274 131.4601801
  23.7663997  70.8057933 131.5166865  25.3232270  69.1062287 132.7701817
  25.8483594  69.4449560 132.0451137  25.2354623  68.1709303 132.5864952
  17.0072931  75.1734271 137.1297071  16.5677921  74.6810649 137.8229927
  17.7581048  74.6307238 136.8889146  14.0160310  69.2676203 132.6777833
  14.1648430  69.9511667 132.0244506  14.8226753  69.2481293 133.1927289
  27.8337930  66.5737479 138.1530336  28.6684822  67.0127283 138.3167896
  27.9697059  66.0976132 137.3338581  17.5155716  71.7624333 130.1489580
  16.9429683  72.3814521 129.6960052  18.0888509  72.3123695 130.6829502
  20.7352975  72.0461484 131.2798163  21.6683648  71.9807045 131.4831038
  20.6476188  72.8817750 130.8212695  23.3640992  71.3627354 128.2402110
  23.2854623  71.0287217 129.1337868  24.1850659  71.8549122 128.2393582
  17.9002514  63.0985146 127.4905633  18.8461619  62.9691354 127.5594051
  17.5216759  62.3599808 127.9675061  16.0845431  61.0235123 127.4260518
  15.1776887  60.7268235 127.5023232  16.3621412  60.7264941 126.5594804
  14.8544216  57.8822058 127.5672497  15.7163380  58.2076956 127.8268315
  15.0394560  57.0953554 127.0545563  20.9344944  68.6795349 127.8612088
  21.6380794  68.8845352 128.4769744  20.2107593  69.2472111 128.1261172
  21.7642754  64.4305211 133.9814359  21.7077955  64.8873762 133.1421991
  22.3171096  63.6695895 133.8037201  22.8431641  69.1177878 129.9110548
  23.6777245  68.6859077 129.7288023  22.6815984  68.9459892 130.8387443
  22.4977533  65.6209992 131.2766888  22.4426337  65.4554263 130.3355332
  21.8723589  66.3286025 131.4329077  31.4715916  79.6347530 140.0065725
  32.1094326  79.5154277 139.3029065  31.3536759  80.5828374 140.0653677
  28.2805623  79.5874958 139.9427250  27.9424134  79.4716022 139.0547785
  29.1495391  79.1866123 139.9228256  24.1392438  81.4410434 135.9324141
  23.5757303  81.3500371 135.1640429  24.0244833  80.6210339 136.4126633
  28.7625406  80.7409809 145.9013455  28.7514046  80.3462608 145.0293959
  28.9246045  80.0075882 146.4947227  21.6856870  82.9361626 138.7708361
  22.4778162  82.5952450 138.3554661  21.9253520  83.0456601 139.6910515
  29.7191997  85.1081402 131.2438606  29.0679977  85.6935482 130.8572620
  30.5136360  85.6387597 131.3033643  23.6447624  82.1970539 131.6425740
  24.4178500  81.6499526 131.5038616  23.9973023  83.0614788 131.8540201
  26.4088874  80.9023770 141.4393999  27.0052446  80.6779792 140.7250962
  26.4663845  80.1608515 142.0419447  25.9813902  78.3563205 129.2744190
  26.2339423  77.8344726 128.5127653  25.0438461  78.1929351 129.3770874
  31.0257185  77.3598983 137.0818933  31.8120274  76.9418407 136.7309350
  31.2895889  78.2645076 137.2500582  31.1967262  82.7971834 131.7807590
  30.5613095  82.8706460 132.4928495  30.8664668  83.3865433 131.1026669
  36.4265612  77.2974217 137.9851912  37.1590784  76.7273433 138.2189741
  35.6704968  76.9095817 138.4258417  25.7010191  80.2591311 131.4768565
  25.5846449  79.5836214 132.1449649  25.8112451  79.7723685 130.6600718
  28.0441732  79.7201458 135.1815254  27.6799939  79.1932079 135.8928176
  28.9008847  79.3299927 135.0081740  33.9491032  71.0095791 142.4446520
  33.6174357  71.8791202 142.2207735  33.3536646  70.6932075 143.1240551
  27.6847219  74.7491358 130.1776603  27.8521621  75.6171594 130.5447074
  27.4944388  74.9118640 129.2537892  30.4422552  83.2108337 141.8442433
  30.1423275  84.1133376 141.7358240  30.0973611  82.9440520 142.6963586
  23.8935033  79.6622134 137.8779138  22.9685530  79.5298348 138.0856829
  24.1419446  80.4416353 138.3749080  33.8419696  75.7290877 139.5239870
  32.9336573  75.6606285 139.2298631  33.7907291  76.2062822 140.3521696
  27.6636439  77.2049015 131.1623270  27.5436065  77.6506066 132.0008750
  26.9689028  77.5534333 130.6036808  21.2543844  79.3055407 138.7122927
  21.3836225  79.5589886 139.6262338  20.5741296  79.8983115 138.3927582
  25.4243332  89.9752657 134.8113401  25.3467361  90.9260482 134.8901881
  24.8204975  89.6298530 135.4688327  35.7081342  73.9307315 141.3017744
  35.0655722  74.2239848 140.6557539  35.2036270  73.8160236 142.1070941
  33.3621506  77.6770489 131.9903604  34.2739362  77.9097875 131.8151301
  32.8531153  78.2607533 131.4278682  31.6462273  82.0995116 145.6264896
  32.0545629  81.6577527 144.8819529  30.9239535  81.5247744 145.8799089
  27.9993343  77.0367723 142.9998453  28.8454539  77.4607137 143.1433102
  27.9391981  76.3801347 143.6937016  31.9691088  82.6596307 139.3817185
  31.3399950  82.8242021 138.6793253  31.5816750  83.0737917 140.1528149
  35.8480320  83.5950745 136.7361549  35.1631358  83.9749646 136.1858582
  35.9324169  84.2046071 137.4693497  33.1031251  81.2410704 143.3356892
  33.3148147  81.8842464 142.6591273  33.0561000  80.4073020 142.8678822
  30.7057480  73.8528525 140.2393464  29.8441959  74.1509778 140.5310202
  30.7319915  74.0698923 139.3074497  27.5219050  82.3970715 136.6467270
  27.9857395  82.6758418 135.8571893  27.2575848  81.4954160 136.4640361
  24.4143131  81.9442197 139.5847033  24.9844488  82.3729465 138.9464518
  25.0051243  81.6624781 140.2831219  26.4587936  78.5193867 133.4556835
  27.1611979  78.9714911 133.9230762  26.1268564  77.8777686 134.0836728
  20.2013270  76.7777420 138.7573969  19.4112324  77.0334949 138.2814079
  20.6924517  77.5925758 138.8626009  34.2177079  84.1182659 141.5079250
  35.0394523  83.7162847 141.2261931  34.2139482  84.0150893 142.4595365
  22.1528015  77.1421999 135.7157446  21.3559178  77.2540694 136.2340941
  21.9253607  77.4808652 134.8498336  27.9833683  83.6666703 143.6639960
  28.0478115  84.1287110 144.4998132  27.2744607  83.0364067 143.7922270
  42.3083072  80.4621408 137.8564221  41.5546781  79.8928806 137.7008226
  42.4430614  80.4284072 138.8034856  27.6981700  85.3334810 133.5318941
  27.5627375  86.1786346 133.9603788  28.2391513  85.5354088 132.7684874
  21.1511098  82.8510248 134.1046866  21.6635618  83.6453498 134.2552430
  21.8033811  82.1536539 134.0380467  22.9605983  85.9676004 136.1869619
  23.1372611  86.8893969 135.9990603  23.7562816  85.6534424 136.6163999
  31.4231415  86.2361176 145.6900684  31.4049890  87.0570058 145.1980953
  32.3451335  86.1115252 145.9150825  19.1160015  81.1798902 134.8806436
  19.9535237  81.5895911 134.6640144  19.2938282  80.2398345 134.8506630
  31.0124447  78.8473983 130.5690269  30.4971070  79.6178588 130.8078657
  30.7401755  78.1739119 131.1923331  28.5971558  73.6923684 135.6275507
  27.7413154  73.3030534 135.4481146  29.0098510  73.7715645 134.7675293
  30.1270704  71.2270027 140.0267067  29.6235500  71.1900162 139.2134873
  30.4201311  72.1362770 140.0863724  26.3713590  71.3108757 139.0333249
  27.2366587  71.1151566 138.6739138  26.4391099  71.0819109 139.9602606
  35.9858721  81.6006338 132.5043443  35.2088164  81.2617497 132.0598605
  36.6650202  81.6058961 131.8298408  30.8010750  76.7201075 132.3950050
  30.4960885  77.0347224 133.2460193  31.7541192  76.7982495 132.4377383
  29.2457182  82.8791298 134.0443004  28.7178543  82.1444058 133.7316242
  28.7444684  83.6565975 133.7982973  34.2250028  81.0740319 139.1610051
  33.5673702  81.7639580 139.2490179  35.0290427  81.4636751 139.5044037
  23.9775909  73.5410965 136.4049616  24.5519661  73.3186146 135.6722809
  24.5646892  73.6099659 137.1578217  33.0355487  79.4284692 137.2113992
  33.5487368  80.0614683 137.7135702  33.6856710  78.8285887 136.8457352
  24.3045496  75.5715426 130.4245501  23.4682809  75.9090112 130.7454776
  24.1650266  75.4364406 129.4872638  26.2798577  70.4152214 135.1324685
  25.6262989  70.1001231 134.5081300  26.2379051  69.7927954 135.8584508
  27.3909782  80.6971509 127.0477977  26.4836844  80.4660762 127.2469126
  27.8880814  79.9009128 127.2351959  30.2977861  89.4069016 129.9674663
  29.6239560  89.7100713 130.5759621  30.6843683  90.2098096 129.6180121
  29.5136317  76.9034147 139.4572333  28.5958879  77.1249094 139.2994021
  29.9296461  76.9780458 138.5984040  30.2971365  78.3025563 134.5875013
  31.0443184  78.8146960 134.2782135  30.5662955  77.9809616 135.4479407
  28.5698015  80.7984104 131.5701967  27.6609235  80.5143136 131.6674437
  28.5993099  81.2183182 130.7105274  33.8017283  84.4090693 135.3393135
  33.3479610  83.5681603 135.3958325  33.1711250  85.0452091 135.6767915
  32.7450202  75.3382679 136.5693802  32.0072959  74.8260065 136.9004045
  32.9976976  74.8983061 135.7577079  32.2450222  86.2467190 136.2742953
  32.5373196  86.8072247 135.5555319  32.7548843  86.5395751 137.0296112
  32.8461830  68.1158931 137.1635572  33.1520706  67.2556295 136.8761487
  33.5714434  68.7076551 136.9634566  19.1386186  78.5189618 135.5517170
  18.9410586  77.9258978 134.8268236  18.5832850  78.2141828 136.2693108
  27.1182909  78.4112724 137.6711763  27.1731519  77.4586561 137.5954239
  26.3074111  78.5672163 138.1553061  28.2674103  82.3392847 128.9090046
  27.8293533  81.6228706 128.4495683  29.0084544  82.5668962 128.3475137
  25.0575269  77.0289784 135.4302142  24.2443135  77.3283954 135.8367334
  25.5534264  76.6345473 136.1476624  27.2083847  87.0247541 137.3636406
  27.1660026  87.2508387 136.4344938  28.1246546  86.7910915 137.5122207
  30.6549481  77.4931608 144.2617035  31.0098869  77.7203082 145.1211501
  31.3021612  77.8249985 143.6394291  36.3847218  80.6150044 134.9666365
  36.2465117  80.8051640 134.0387554  36.0283437  81.3769427 135.4234416
  24.5489344  74.6008139 141.0463377  25.1888723  74.4596899 140.3486340
  23.7166875  74.3142653 140.6701979  36.4116598  82.6826571 139.9777636
  36.8453104  82.5901860 140.8260690  37.1248178  82.6584072 139.3397652
  25.3249648  83.9010570 137.1598369  26.1190247  83.4060890 136.9580944
  24.6141340  83.3728433 136.7966075  30.1444492  86.2828665 141.5110737
  30.1981515  86.8519602 142.2788453  29.2759274  86.4530550 141.1464774
  21.6332411  78.0453652 133.2358122  20.7030000  77.9838107 133.4528084
  21.7289883  77.5229604 132.4394763  21.5517961  74.5708464 135.8236363
  21.8124778  75.4853798 135.7145524  22.3735133  74.1032907 135.9732976
  37.2732147  82.7250272 142.5110521  37.4668037  83.6296082 142.7569796
  37.1732765  82.2657691 143.3449106  32.3347256  82.8757015 148.0851402
  32.1832762  82.6467566 147.1681486  32.3251935  83.8327616 148.0982747
  29.1032592  80.4488927 143.0697668  30.0324652  80.6000087 142.8966636
  28.6823622  80.5372948 142.2146315  27.9020924  84.4739592 140.8396206
  27.7632010  84.1058376 141.7122144  27.1135520  84.9887231 140.6680164
  28.4969076  89.5748688 132.1821743  28.6720832  89.1036732 132.9967365
  27.8101864  90.2014455 132.4103003  29.4526139  83.8521195 138.2285044
  29.1175972  83.8121965 139.1242694  28.9530085  83.1865910 137.7555454
  32.3885331  81.1977229 128.5022104  31.7714501  80.4724057 128.4055156
  31.9201819  81.9586589 128.1589178  26.0552684  78.9708784 143.2421305
  26.7652302  78.3301976 143.2007923  26.0121992  79.2221679 144.1647485
  34.0439462  85.9076137 146.1627884  33.9852009  85.2235357 145.4958467
  34.4458981  86.6495127 145.7108510  24.1783877  75.4162653 127.6243408
  23.3013343  75.2951454 127.2605654  24.6541630  74.6248732 127.3722296
  34.0456870  83.8715721 144.3941864  33.1583648  83.5341643 144.5168262
  34.6155421  83.1398752 144.6310629  15.6986017  80.2039813 137.7184915
  16.3857057  79.8901543 137.1305930  15.5434146  81.1081178 137.4452166
  27.5758023  88.5317174 141.3603107  27.5028195  89.3372145 141.8722411
  27.1335416  88.7309139 140.5351128  27.3647803  87.7688944 134.8705928
  26.5815325  88.3110624 134.9644153  28.0640548  88.2862923 135.2700170
  30.6744453  73.5783573 137.5140134  31.1713152  72.8253535 137.1941204
  29.9031434  73.6147890 136.9483343  38.5274210  79.2823939 139.1558425
  38.5164087  80.1648654 138.7852358  37.6591590  78.9295489 138.9612962
  30.0356707  88.4304008 143.5161265  30.7484679  89.0651472 143.4437167
  29.5446735  88.5267874 142.7001267  31.7574234  82.3355260 135.0878557
  30.8230512  82.4556723 134.9183261  31.9350902  81.4327727 134.8238567
  27.2579422  75.7200956 137.2411818  26.8877209  75.1671996 137.9292724
  27.7538514  75.1159090 136.6886818  35.1446785  78.1772580 135.6228591
  35.6107237  79.0100571 135.5488894  35.5954285  77.7117561 136.3273850
  33.2123016  84.5216401 132.6214743  33.4882860  84.4072995 133.5308617
  32.3427515  84.1233886 132.5826916  33.1163448  70.5453167 139.6619493
  32.2026527  70.7757393 139.8301700  33.5456549  70.6291611 140.5133525
  32.8869906  78.7343058 142.1619387  32.2341356  78.9818966 141.5071839
  33.2650286  77.9207197 141.8281864  29.8477080  88.7702752 136.2647557
  30.0299475  87.9524408 136.7275309  30.6710066  88.9870444 135.8272447
  30.1819246  87.6970937 133.5262605  30.7107012  87.1863391 132.9132768
  30.4447465  87.3813467 134.3908138  23.5374993  88.7486053 136.2860381
  22.8685369  89.2332181 135.8024421  23.3987863  88.9955274 137.2003760
  18.9062571  77.0104508 133.0656313  19.2016012  76.1015187 133.0123367
  18.0050606  76.9892248 132.7437316  30.8148649  88.7311773 139.8706722
  30.6899789  87.9301512 139.3617667  31.4727740  89.2257966 139.3820692
  22.4356818  75.0860505 139.0483862  21.7143403  75.6996473 138.9091335
  23.2250073  75.6218270 138.9700508  32.8783558  86.5320793 141.4986272
  31.9313893  86.4126144 141.4264599  33.2266331  85.6443291 141.5812533
  20.6350412  74.6918606 133.1895639  20.3063118  73.8115985 133.0070745
  20.9889783  74.6366275 134.0772028  29.8829991  86.3273509 137.6990624
  29.7354953  85.3990216 137.8798194  30.7083485  86.3493600 137.2147699
  23.7492235  74.9791576 133.5571116  24.0888308  75.5077497 132.8349725
  24.1964356  75.3171982 134.3329683  33.4864113  87.1502068 138.7855497
  34.4110660  86.9444929 138.6479948  33.3179416  86.9018469 139.6944838
  25.7360382  73.4766198 131.7564409  26.4568745  73.8547450 131.2528126
  25.1125687  74.1955074 131.8599387  29.8791505  74.1811346 132.6922741
  30.0955120  75.0635984 132.3911570  29.3985572  73.7897560 131.9628383
  24.6190727  77.1397060 139.2693486  24.4735307  77.4537363 140.1617768
  24.1415930  77.7581960 138.7164385  26.4787110  74.1299608 139.3174376
  26.4648678  73.2340701 138.9806674  27.1959538  74.1370271 139.9512662
  28.3313240  74.5636948 141.3627503  28.0731018  75.4854019 141.3611833
  27.7998281  74.1667382 142.0527967  33.2759429  87.6687735 134.1417588
  33.4496307  87.1034157 133.3891441  33.7688320  88.4688630 133.9597078
  25.8824006  73.0113988 134.5861946  26.0039917  72.0830634 134.7852833
  25.5926048  73.0252674 133.6740261  28.7515196  70.6968898 137.7228666
  28.7736893  70.7608231 136.7680645  29.1683255  69.8573407 137.9169172
  39.1298820  80.4324158 135.7607888  39.5729966  79.6831483 135.3627011
  38.2525331  80.4234294 135.3781620  34.2634602  86.9854499 131.2414487
  34.9585506  87.6061192 131.4601801  34.6057752  86.1349851 131.5166865
  36.1626025  84.4354205 132.7701817  36.6877349  84.7741478 132.0451137
  36.0748377  83.5001220 132.5864952  27.8466685  90.5026188 137.1297071
  27.4071676  90.0102567 137.8229927  28.5974802  89.9599156 136.8889146
  20.3259024  86.6937729 137.1321699  21.1517044  86.3941501 136.7520342
  19.9753076  85.9245352 137.5811487  25.2940558  86.0464197 139.2019372
  24.6720567  85.3834902 138.9021600  25.9645424  86.0725329 138.5193020
  35.8519931  85.0687109 148.0753015  35.0615474  85.0511247 147.5357515
  35.6153285  85.6075402 148.8302052  35.9717806  81.9179575 145.3885744
  36.0215811  81.7529582 146.3301267  35.8631729  81.0506834 144.9983625
  24.8554064  84.5968121 132.6777833  25.0042185  85.2803585 132.0244506
  25.6620508  84.5773211 133.1927289  37.4736003  84.3376516 145.6327765
  37.1820811  84.7006497 146.4691226  36.8608134  83.6243525 145.4541098
  38.6731685  81.9029396 138.1530336  39.5078576  82.3419200 138.3167896
  38.8090814  81.4268049 137.3338581  35.7223191  79.4609131 144.1007823
  36.1977312  79.6536777 143.2926675  34.7988756  79.5168317 143.8551207
  22.6106697  80.6233298 133.6838902  22.3652739  79.7195628 133.8819112
  22.7802612  80.6250449 132.7418380  21.8802345  76.3561656 131.1825063
  21.1871590  76.4306011 130.5265099  21.6354097  75.5921999 131.7046580
  30.5516001  67.9157257 138.5864554  30.8317755  67.2480446 139.2124980
  31.3366608  68.1086353 138.0739218  28.3549470  87.0916251 130.1489580
  27.7823437  87.7106438 129.6960052  28.9282264  87.6415613 130.6829502
  34.4224860  76.3374891 142.3336129  35.3742283  76.4372989 142.3548353
  34.2528310  75.5453160 142.8434213  32.4439239  73.4230474 142.5195530
  31.8489171  73.7035487 141.8242019  32.1588936  73.9124375 143.2912271
  31.5746730  87.3753401 131.2798163  32.5077403  87.3098963 131.4831038
  31.4869943  88.2109668 130.8212695  34.2034746  86.6919272 128.2402110
  34.1248378  86.3579135 129.1337868  35.0244413  87.1841039 128.2393582
  36.9012938  79.5581011 141.4478429  36.8689258  78.6197012 141.6338113
  37.5113561  79.6365048 140.7144254  28.7396268  78.4277064 127.4905633
  29.6855373  78.2983272 127.5594051  28.3610513  77.6891726 127.9675061
  37.0507426  76.3492054 141.4936712  36.5346475  75.5650511 141.3066641
  37.9347375  76.0210771 141.6583231  34.7118153  70.0933070 137.4532525
  34.5142974  69.7848158 138.3375857  35.3217859  70.8194709 137.5830454
  42.7189487  80.6197018 140.5884465  43.4492876  80.3582306 141.1492169
  42.1096433  79.8825740 140.6286533  40.8004785  78.7604880 141.1858917
  40.0737948  78.6260845 140.5775408  40.3852071  79.0681709 141.9915635
  26.9239186  76.3527040 127.4260518  26.0170641  76.0560153 127.5023232
  27.2015167  76.0556858 126.5594804  17.8417126  77.6733404 137.8759564
  17.5219910  76.8198712 137.5833938  17.2950554  77.8881982 138.6317532
  21.6197034  80.3895845 141.5929071  21.8383043  81.3212952 141.6117105
  22.0322807  80.0303819 142.3783875  28.5401251  70.8963930 133.5804759
  27.7301980  70.5511015 133.9560005  29.2285668  70.5871474 134.1692371
  30.4691800  69.9741977 135.2029056  31.0222838  70.3937430 135.8619079
  30.7061886  69.0477725 135.2452012  25.6937970  73.2113975 127.5672497
  26.5557134  73.5368874 127.8268315  25.8788314  72.4245471 127.0545563
  33.8470607  72.0842502 134.7107720  33.2669276  72.7427306 134.3285773
  33.5806539  71.2619847 134.2995138  32.2974173  71.4847560 136.9129040
  32.7973951  71.5964094 136.1043359  32.9409781  71.1808612 137.5529849
  19.6242129  81.2254569 137.7218701  19.6012817  81.3242256 136.7700584
  19.9342765  82.0719720 138.0435867  32.6295485  74.2442592 133.7664068
  31.7421340  74.5292243 133.5484263  33.0449474  74.0836356 132.9191345
  35.9810021  74.2689113 137.4818408  36.7570411  74.7585566 137.7543024
  35.2558155  74.6947167 137.9390277  38.4182580  74.9816733 138.5392348
  39.0127070  74.7412468 137.8285657  38.4909163  74.2623863 139.1665885
  31.7738698  84.0087267 127.8612088  32.4774548  84.2137269 128.4769744
  31.0501347  84.5764029 128.1261172  32.6036509  79.7597128 133.9814359
  32.5471710  80.2165680 133.1421991  33.1564851  78.9987813 133.8037201
  36.4141314  75.5486860 134.8064478  36.1578249  75.1483496 135.6372686
  35.7894182  76.2630654 134.6814617  40.7253652  78.2882933 137.3135769
  40.1653210  78.3576123 138.0867332  40.1197156  78.1123918 136.5935266
  33.6825396  84.4469796 129.9110548  34.5171000  84.0150995 129.7288023
  33.5209739  84.2751810 130.8387443  33.3371288  80.9501909 131.2766888
  33.2820092  80.7846181 130.3355332  32.7117343  81.6577942 131.4329077
  26.6467413  70.4510018 130.8552206  26.6346083  71.3951858 131.0120477
  27.5390835  70.2680164 130.5611667  26.5756977  89.1278909 138.9419963
  25.6252608  89.1280771 138.8284335  26.8789463  88.3811643 138.4255997
  30.4619533  67.0452795 135.1098143  29.6951929  66.4911282 135.2554825
  30.8730238  67.1174664 135.9712295  42.3109671  94.9639447 140.0065725
  42.9488081  94.8446195 139.3029065  42.1930514  95.9120291 140.0653677
  39.1199377  94.9166875 139.9427250  38.7817889  94.8007940 139.0547785
  39.9889145  94.5158040 139.9228256  34.9786193  96.7702352 135.9324141
  34.4151058  96.6792289 135.1640429  34.8638588  95.9502256 136.4126633
  39.6019160  96.0701727 145.9013455  39.5907801  95.6754525 145.0293959
  39.7639799  95.3367800 146.4947227  32.5250625  98.2653543 138.7708361
  33.3171917  97.9244368 138.3554661  32.7647275  98.3748518 139.6910515
  40.5585751 100.4373319 131.2438606  39.9073731 101.0227400 130.8572620
  41.3530114 100.9679514 131.3033643  34.4841379  97.5262457 131.6425740
  35.2572255  96.9791444 131.5038616  34.8366777  98.3906706 131.8540201
  37.2482628  96.2315687 141.4393999  37.8446200  96.0071710 140.7250962
  37.3057600  95.4900433 142.0419447  36.8207656  93.6855123 129.2744190
  37.0733177  93.1636644 128.5127653  35.8832215  93.5221268 129.3770874
  41.8650939  92.6890901 137.0818933  42.6514028  92.2710324 136.7309350
  42.1289644  93.5936993 137.2500582  42.0361017  98.1263751 131.7807590
  41.4006850  98.1998378 132.4928495  41.7058423  98.7157350 131.1026669
  47.2659366  92.6266134 137.9851912  47.9984538  92.0565351 138.2189741
  46.5098722  92.2387735 138.4258417  36.5403945  95.5883229 131.4768565
  36.4240203  94.9128132 132.1449649  36.6506205  95.1015603 130.6600718
  38.8835486  95.0493376 135.1815254  38.5193693  94.5223997 135.8928176
  39.7402602  94.6591845 135.0081740  44.7884787  86.3387708 142.4446520
  44.4568111  87.2083119 142.2207735  44.1930400  86.0223992 143.1240551
  38.5240973  90.0783276 130.1776603  38.6915375  90.9463512 130.5447074
  38.3338142  90.2410557 129.2537892  41.2816306  98.5400254 141.8442433
  40.9817029  99.4425293 141.7358240  40.9367366  98.2732438 142.6963586
  34.7328788  94.9914051 137.8779138  33.8079284  94.8590265 138.0856829
  34.9813201  95.7708271 138.3749080  44.6813450  91.0582795 139.5239870
  43.7730327  90.9898203 139.2298631  44.6301046  91.5354740 140.3521696
  38.5030194  92.5340933 131.1623270  38.3829819  92.9797984 132.0008750
  37.8082782  92.8826251 130.6036808  32.0937599  94.6347325 138.7122927
  32.2229980  94.8881804 139.6262338  31.4135050  95.2275033 138.3927582
  36.2637086 105.3044575 134.8113401  36.1861116 106.2552400 134.8901881
  35.6598730 104.9590447 135.4688327  38.7554316  92.4772440 147.4674768
  37.9787650  93.0366360 147.4577632  39.3944879  92.9629223 147.9889638
  46.5475096  89.2599233 141.3017744  45.9049477  89.5531766 140.6557539
  46.0430025  89.1452153 142.1070941  44.2015260  93.0062406 131.9903604
  45.1133116  93.2389793 131.8151301  43.6924907  93.5899450 131.4278682
  42.4856028  97.4287034 145.6264896  42.8939384  96.9869445 144.8819529
  41.7633289  96.8539662 145.8799089  38.8387098  92.3659641 142.9998453
  39.6848293  92.7899054 143.1433102  38.7785735  91.7093265 143.6937016
  42.8084842  97.9888225 139.3817185  42.1793705  98.1533939 138.6793253
  42.4210504  98.4029834 140.1528149  46.6874074  98.9242663 136.7361549
  46.0025112  99.3041564 136.1858582  46.7717924  99.5337989 137.4693497
  41.9886543  90.0264009 144.6579627  41.7447475  90.7806070 144.1213902
  42.2646474  90.4049357 145.4926874  43.9425006  96.5702622 143.3356892
  44.1541901  97.2134381 142.6591273  43.8954754  95.7364938 142.8678822
  41.5451235  89.1820442 140.2393464  40.6835714  89.4801696 140.5310202
  41.5713670  89.3990841 139.3074497  38.3612804  97.7262633 136.6467270
  38.8251150  98.0050336 135.8571893  38.0969602  96.8246077 136.4640361
  35.2536885  97.2734114 139.5847033  35.8238242  97.7021383 138.9464518
  35.8444997  96.9916699 140.2831219  37.2981690  93.8485785 133.4556835
  38.0005734  94.3006829 133.9230762  36.9662319  93.2069604 134.0836728
  31.0407024  92.1069338 138.7573969  30.2506078  92.3626866 138.2814079
  31.5318272  92.9217676 138.8626009  45.0570834  99.4474577 141.5079250
  45.8788278  99.0454764 141.2261931  45.0533237  99.3442811 142.4595365
  32.9921770  92.4713917 135.7157446  32.1952933  92.5832611 136.2340941
  32.7647362  92.8100569 134.8498336  38.8227437  98.9958620 143.6639960
  38.8871870  99.4579027 144.4998132  38.1138361  98.3655985 143.7922270
  29.3244727  92.3599828 141.1888960  29.5752766  93.2446838 141.4546536
  29.8604276  92.1804430 140.4164051  53.1476827  95.7913325 137.8564221
  52.3940535  95.2220724 137.7008226  53.2824368  95.7575990 138.8034856
  38.5375455 100.6626728 133.5318941  38.4021130 101.5078263 133.9603788
  39.0785267 100.8646005 132.7684874  31.9904852  98.1802166 134.1046866
  32.5029373  98.9745416 134.2552430  32.6427565  97.4828456 134.0380467
  33.7999737 101.2967922 136.1869619  33.9766365 102.2185887 135.9990603
  34.5956571 100.9826341 136.6163999  37.9410756  88.1576187 147.7853552
  38.6820469  88.7583340 147.7058015  38.1728678  87.4153824 147.2271595
  42.2625169 101.5653094 145.6900684  42.2443645 102.3861975 145.1980953
  43.1845089 101.4407169 145.9150825  41.8867919  84.1857290 142.0617834
  41.5432188  85.0758931 141.9856945  42.2546881  83.9958947 141.1987419
  29.9553769  96.5090820 134.8806436  30.7928991  96.9187828 134.6640144
  30.1332037  95.5690262 134.8506630  41.8518201  94.1765901 130.5690269
  41.3364825  94.9470505 130.8078657  41.5795510  93.5031037 131.1923331
  39.4365312  89.0215602 135.6275507  38.5806909  88.6322452 135.4481146
  39.8492264  89.1007562 134.7675293  40.9664459  86.5561945 140.0267067
  40.4629254  86.5192080 139.2134873  41.2595066  87.4654687 140.0863724
  37.2107345  86.6400674 139.0333249  38.0760342  86.4443483 138.6739138
  37.2784854  86.4111026 139.9602606  46.8252475  96.9298255 132.5043443
  46.0481918  96.5909415 132.0598605  47.5043956  96.9350879 131.8298408
  41.6404504  92.0492993 132.3950050  41.3354640  92.3639142 133.2460193
  42.5934947  92.1274413 132.4377383  40.0850936  98.2083216 134.0443004
  39.5572298  97.4735976 133.7316242  39.5838439  98.9857892 133.7982973
  45.0643782  96.4032237 139.1610051  44.4067457  97.0931498 139.2490179
  45.8684181  96.7928669 139.5044037  34.8169664  88.8702882 136.4049616
  35.3913416  88.6478064 135.6722809  35.4040646  88.9391577 137.1578217
  43.8749241  94.7576609 137.2113992  44.3881123  95.3906601 137.7135702
  44.5250465  94.1577805 136.8457352  35.1439251  90.9007343 130.4245501
  34.3076563  91.2382030 130.7454776  35.0044021  90.7656323 129.4872638
  37.1192332  85.7444131 135.1324685  36.4656744  85.4293148 134.5081300
  37.0772806  85.1219872 135.8584508  38.2303536  96.0263426 127.0477977
  37.3230598  95.7952680 127.2469126  38.7274568  95.2301046 127.2351959
  41.1371615 104.7360934 129.9674663  40.4633314 105.0392630 130.5759621
  41.5237437 105.5390014 129.6180121  40.3530072  92.2326065 139.4572333
  39.4352633  92.4541012 139.2994021  40.7690216  92.3072375 138.5984040
  41.1365120  93.6317481 134.5875013  41.8836939  94.1438878 134.2782135
  41.4056709  93.3101533 135.4479407  39.4091770  96.1276021 131.5701967
  38.5002989  95.8435054 131.6674437  39.4386854  96.5475100 130.7105274
  44.6411037  99.7382611 135.3393135  44.1873364  98.8973521 135.3958325
  44.0105004 100.3744009 135.6767915  43.5843957  90.6674597 136.5693802
  42.8466714  90.1551983 136.9004045  43.8370730  90.2274978 135.7577079
  43.0843977 101.5759107 136.2742953  43.3766951 102.1364165 135.5555319
  43.5942597 101.8687668 137.0296112  43.6855584  83.4450849 137.1635572
  43.9914461  82.5848212 136.8761487  44.4108189  84.0368469 136.9634566
  29.9779940  93.8481535 135.5517170  29.7804340  93.2550896 134.8268236
  29.4226604  93.5433746 136.2693108  37.9576664  93.7404642 137.6711763
  38.0125274  92.7878478 137.5954239  37.1467866  93.8964081 138.1553061
  39.1067858  97.6684765 128.9090046  38.6687288  96.9520624 128.4495683
  39.8478299  97.8960880 128.3475137  35.8969024  92.3581702 135.4302142
  35.0836889  92.6575872 135.8367334  36.3928018  91.9637390 136.1476624
  38.0477602 102.3539459 137.3636406  38.0053781 102.5800305 136.4344938
  38.9640301 102.1202833 137.5122207  41.4943236  92.8223526 144.2617035
  41.8492623  93.0494999 145.1211501  42.1415367  93.1541903 143.6394291
  47.2240972  95.9441962 134.9666365  47.0858871  96.1343558 134.0387554
  46.8677191  96.7061345 135.4234416  35.3883099  89.9300057 141.0463377
  36.0282478  89.7888816 140.3486340  34.5560629  89.6434571 140.6701979
  47.2510352  98.0118489 139.9777636  47.6846859  97.9193778 140.8260690
  47.9641933  97.9875989 139.3397652  36.1643402  99.2302488 137.1598369
  36.9584001  98.7352808 136.9580944  35.4535095  98.7020351 136.7966075
  40.9838247 101.6120583 141.5110737  41.0375269 102.1811519 142.2788453
  40.1153028 101.7822468 141.1464774  32.4726166  93.3745569 133.2358122
  31.5423754  93.3130025 133.4528084  32.5683638  92.8521522 132.4394763
  32.3911715  89.9000382 135.8236363  32.6518532  90.8145715 135.7145524
  33.2128887  89.4324825 135.9732976  33.8636640  91.3138139 142.9935188
  34.5359694  91.1055501 142.3447837  33.0366427  91.1160225 142.5540420
  48.1125902  98.0542190 142.5110521  48.3061792  98.9588000 142.7569796
  48.0126520  97.5949609 143.3449106  39.7662212  87.9400080 145.0100849
  39.1190127  88.6390030 144.9165325  40.5363228  88.3736224 145.3777097
  43.1741010  98.2048932 148.0851402  43.0226517  97.9759484 147.1681486
  43.1645690  99.1619534 148.0982747  39.9426347  95.7780845 143.0697668
  40.8718407  95.9292005 142.8966636  39.5217377  95.8664866 142.2146315
  38.7414678  99.8031510 140.8396206  38.6025764  99.4350294 141.7122144
  37.9529275 100.3179149 140.6680164  39.3362830 104.9040606 132.1821743
  39.5114586 104.4328649 132.9967365  38.6495618 105.5306372 132.4103003
  40.2919894  99.1813112 138.2285044  39.9569726  99.1413882 139.1242694
  39.7923839  98.5157828 137.7555454  34.2664138  94.5880742 143.7537625
  34.1283936  93.8560981 144.3549164  35.1769061  94.4989642 143.4721813
  43.2279085  96.5269147 128.5022104  42.6108256  95.8015975 128.4055156
  42.7595574  97.2878507 128.1589178  36.8946438  94.3000702 143.2421305
  37.6046057  93.6593894 143.2007923  36.8515746  94.5513596 144.1647485
  44.8833217 101.2368055 146.1627884  44.8245763 100.5527275 145.4958467
  45.2852735 101.9787045 145.7108510  35.6075372  91.2865919 145.0616944
  35.0712729  90.8356658 145.7138541  35.0192081  91.4211828 144.3187409
  35.0177631  90.7454571 127.6243408  34.1407098  90.6243372 127.2605654
  35.4935384  89.9540649 127.3722296  44.8850624  99.2007639 144.3941864
  43.9977403  98.8633561 144.5168262  45.4549175  98.4690670 144.6310629
  26.5379771  95.5331731 137.7184915  27.2250811  95.2193461 137.1305930
  26.3827900  96.4373095 137.4452166  31.3414493  90.4221927 142.1469939
  31.2572682  89.8147597 141.4120349  30.5197200  90.9130945 142.1479435
  38.4151778 103.8609091 141.3603107  38.3421949 104.6664063 141.8722411
  37.9729171 104.0601057 140.5351128  38.2041557 103.0980861 134.8705928
  37.4209079 103.6402541 134.9644153  38.9034302 103.6154841 135.2700170
  41.5138207  88.9075491 137.5140134  42.0106907  88.1545453 137.1941204
  40.7425189  88.9439807 136.9483343  49.3667965  94.6115856 139.1558425
  49.3557841  95.4940572 138.7852358  48.4985344  94.2587407 138.9612962
  40.8750461 103.7595925 143.5161265  41.5878433 104.3943390 143.4437167
  40.3840490 103.8559791 142.7001267  42.5967988  97.6647178 135.0878557
  41.6624267  97.7848640 134.9183261  42.7744657  96.7619645 134.8238567
  38.0973176  91.0492874 137.2411818  37.7270964  90.4963914 137.9292724
  38.5932269  90.4451007 136.6886818  45.9840539  93.5064497 135.6228591
  46.4500992  94.3392489 135.5488894  46.4348040  93.0409479 136.3273850
  44.0516770  99.8508319 132.6214743  44.3276614  99.7364913 133.5308617
  43.1821269  99.4525803 132.5826916  43.9557202  85.8745084 139.6619493
  43.0420282  86.1049311 139.8301700  44.3850304  85.9583528 140.5133525
  43.7263661  94.0634976 142.1619387  43.0735111  94.3110884 141.5071839
  44.1044041  93.2499114 141.8281864  40.6870835 104.0994669 136.2647557
  40.8693229 103.2816325 136.7275309  41.5103821 104.3162362 135.8272447
  41.0213000 103.0262854 133.5262605  41.5500766 102.5155309 132.9132768
  41.2841220 102.7105385 134.3908138  39.7751234  94.8054787 148.6485424
  39.0991871  94.7048917 149.3187799  40.5978868  94.6494001 149.1121421
  34.3768748 104.0777971 136.2860381  33.7079123 104.5624099 135.8024421
  34.2381618 104.3247192 137.2003760  33.4938510  88.4596864 143.4864924
  33.5579836  89.3211695 143.0742322  33.4305630  87.8470866 142.7537283
  29.7456325  92.3396426 133.0656313  30.0409766  91.4307105 133.0123367
  28.8444361  92.3184166 132.7437316  41.6542404 104.0603690 139.8706722
  41.5293543 103.2593430 139.3617667  42.3121495 104.5549884 139.3820692
  33.2750572  90.4152423 139.0483862  32.5537158  91.0288390 138.9091335
  34.0643828  90.9510188 138.9700508  43.7177312 101.8612710 141.4986272
  42.7707648 101.7418061 141.4264599  44.0660085 100.9735208 141.5812533
  36.0776886  87.7506849 145.3224514  36.6011287  87.9969146 146.0850823
  35.8589219  88.5826884 144.9027651  31.4744167  90.0210524 133.1895639
  31.1456873  89.1407903 133.0070745  31.8283537  89.9658192 134.0772028
  40.7223746 101.6565427 137.6990624  40.5748708 100.7282134 137.8798194
  41.5477239 101.6785517 137.2147699  34.5885990  90.3083494 133.5571116
  34.9282062  90.8369415 132.8349725  35.0358110  90.6463900 134.3329683
  44.3257867 102.4793985 138.7855497  45.2504415 102.2736847 138.6479948
  44.1573171 102.2310386 139.6944838  37.2829431  88.6920544 143.0074184
  36.9426251  87.8928357 143.4094864  36.5768437  88.9922255 142.4351018
  37.9345902  85.7769857 141.4601507  38.7571972  85.3030335 141.3380398
  38.1783966  86.5560340 141.9600194  36.5754137  88.8058115 131.7564409
  37.2962499  89.1839368 131.2528126  35.9519441  89.5246992 131.8599387
  40.7185260  89.5103264 132.6922741  40.9348874  90.3927902 132.3911570
  40.2379327  89.1189478 131.9628383  35.4584481  92.4688977 139.2693486
  35.3129062  92.7829280 140.1617768  34.9809685  93.0873878 138.7164385
  37.3180864  89.4591525 139.3174376  37.3042433  88.5632619 138.9806674
  38.0353292  89.4662189 139.9512662  39.1706995  89.8928866 141.3627503
  38.9124773  90.8145936 141.3611833  38.6392035  89.4959300 142.0527967
  44.1153184 102.9979653 134.1417588  44.2890061 102.4326075 133.3891441
  44.6082075 103.7980548 133.9597078  36.7217760  88.3405906 134.5861946
  36.8433671  87.4122552 134.7852833  36.4319802  88.3544592 133.6740261
  39.5908950  86.0260816 137.7228666  39.6130647  86.0900149 136.7680645
  40.0077009  85.1865325 137.9169172  49.9692575  95.7616076 135.7607888
  50.4123721  95.0123401 135.3627011  49.0919085  95.7526212 135.3781620
  45.1028356 102.3146417 131.2414487  45.7979261 102.9353110 131.4601801
  45.4451506 101.4641768 131.5166865  47.0019779  99.7646123 132.7701817
  47.5271103 100.1033395 132.0451137  46.9142132  98.8293138 132.5864952
  38.6860440 105.8318106 137.1297071  38.2465430 105.3394485 137.8229927
  39.4368557 105.2891074 136.8889146  31.1652779 102.0229647 137.1321699
  31.9910799 101.7233419 136.7520342  30.8146831 101.2537269 137.5811487
  36.1334312 101.3756115 139.2019372  35.5114321 100.7126820 138.9021600
  36.8039179 101.4017247 138.5193020  36.2058840  89.8537903 148.7951878
  36.2546995  90.7300026 148.4129648  36.7481354  89.3115296 148.2223522
  46.6913685 100.3979026 148.0753015  45.9009229 100.3803165 147.5357515
  46.4547040 100.9367320 148.8302052  46.8111560  97.2471493 145.3885744
  46.8609565  97.0821500 146.3301267  46.7025484  96.3798752 144.9983625
  35.6947819  99.9260038 132.6777833  35.8435939 100.6095503 132.0244506
  36.5014262  99.9065128 133.1927289  44.1015323  93.2302421 146.7045051
  45.0025185  93.0908886 146.4129048  44.1763297  93.3956875 147.6443228
  38.4358128  90.6069275 145.5498237  37.5661437  90.9002841 145.2780825
  38.6717608  91.1909720 146.2705501  48.3129757  99.6668434 145.6327765
  48.0214565 100.0298415 146.4691226  47.7001888  98.9535442 145.4541098
  49.5125439  97.2321314 138.1530336  50.3472331  97.6711118 138.3167896
  49.6484568  96.7559967 137.3338581  46.5616945  94.7901049 144.1007823
  47.0371067  94.9828695 143.2926675  45.6382511  94.8460235 143.8551207
  33.4500452  95.9525216 133.6838902  33.2046494  95.0487546 133.8819112
  33.6196366  95.9542366 132.7418380  41.1397162  86.8248892 143.0663657
  41.6579106  87.5609919 142.7410146  40.7852295  87.1312886 143.9010416
  32.7196099  91.6853574 131.1825063  32.0265344  91.7597929 130.5265099
  32.4747851  90.9213917 131.7046580  41.3909756  83.2449175 138.5864554
  41.6711510  82.5772364 139.2124980  42.1760363  83.4378270 138.0739218
  39.1943224 102.4208169 130.1489580  38.6217192 103.0398356 129.6960052
  39.7676018 102.9707530 130.6829502  45.2618614  91.6666809 142.3336129
  46.2136037  91.7664907 142.3548353  45.0922065  90.8745077 142.8434213
  43.2832994  88.7522392 142.5195530  42.6882926  89.0327405 141.8242019
  42.9982691  89.2416293 143.2912271  42.4140484 102.7045319 131.2798163
  43.3471157 102.6390881 131.4831038  42.3263697 103.5401586 130.8212695
  45.0428501 102.0211189 128.2402110  44.9642132 101.6871053 129.1337868
  45.8638168 102.5132957 128.2393582  47.7406692  94.8872929 141.4478429
  47.7083012  93.9488929 141.6338113  48.3507316  94.9656965 140.7144254
  39.5790023  93.7568982 127.4905633  40.5249128  93.6275190 127.5594051
  39.2004268  93.0183643 127.9675061  47.8901181  91.6783972 141.4936712
  47.3740229  90.8942429 141.3066641  48.7741129  91.3502689 141.6583231
  45.5511908  85.4224988 137.4532525  45.3536729  85.1140076 138.3375857
  46.1611613  86.1486626 137.5830454  53.5583242  95.9488935 140.5884465
  54.2886630  95.6874224 141.1492169  52.9490187  95.2117657 140.6286533
  51.6398539  94.0896798 141.1858917  50.9131703  93.9552763 140.5775408
  51.2245826  94.3973627 141.9915635  37.7632940  91.6818958 127.4260518
  36.8564396  91.3852071 127.5023232  38.0408921  91.3848776 126.5594804
  28.6810881  93.0025321 137.8759564  28.3613665  92.1490630 137.5833938
  28.1344309  93.2173899 138.6317532  32.4590788  95.7187762 141.5929071
  32.6776798  96.6504870 141.6117105  32.8716562  95.3595737 142.3783875
  39.3795006  86.2255848 133.5804759  38.5695734  85.8802933 133.9560005
  40.0679423  85.9163391 134.1692371  41.3085554  85.3033894 135.2029056
  41.8616593  85.7229348 135.8619079  41.5455641  84.3769643 135.2452012
  36.5331725  88.5405893 127.5672497  37.3950889  88.8660791 127.8268315
  36.7182069  87.7537389 127.0545563  44.6864361  87.4134420 134.7107720
  44.1063030  88.0719224 134.3285773  44.4200294  86.5911764 134.2995138
  43.1367928  86.8139477 136.9129040  43.6367706  86.9256012 136.1043359
  43.7803536  86.5100530 137.5529849  30.4635883  96.5546487 137.7218701
  30.4406571  96.6534174 136.7700584  30.7736520  97.4011637 138.0435867
  43.4689239  89.5734510 133.7664068  42.5815094  89.8584161 133.5484263
  43.8843228  89.4128273 132.9191345  46.8203775  89.5981031 137.4818408
  47.5964166  90.0877483 137.7543024  46.0951910  90.0239085 137.9390277
  49.2576334  90.3108650 138.5392348  49.8520825  90.0704386 137.8285657
  49.3302918  89.5915781 139.1665885  42.6132453  99.3379185 127.8612088
  43.3168303  99.5429187 128.4769744  41.8895101  99.9055947 128.1261172
  43.4430263  95.0889046 133.9814359  43.3865464  95.5457597 133.1421991
  43.9958605  94.3279731 133.8037201  47.2535069  90.8778778 134.8064478
  46.9972003  90.4775413 135.6372686  46.6287937  91.5922572 134.6814617
  51.5647407  93.6174851 137.3135769  51.0046965  93.6868040 138.0867332
  50.9590910  93.4415836 136.5935266  44.5219150  99.7761714 129.9110548
  45.3564754  99.3442912 129.7288023  44.3603493  99.6043728 130.8387443
  44.1765042  96.2793827 131.2766888  44.1213846  96.1138099 130.3355332
  43.5511098  96.9869860 131.4329077  37.4861168  85.7801936 130.8552206
  37.4739838  86.7243776 131.0120477  38.3784590  85.5972082 130.5611667
  37.4150732 104.4570827 138.9419963  36.4646363 104.4572688 138.8284335
  37.7183218 103.7103561 138.4255997  41.3013287  82.3744713 135.1098143
  40.5345683  81.8203200 135.2554825  41.7123992  82.4466582 135.9712295
  53.1503425 110.2931365 140.0065725  53.7881835 110.1738112 139.3029065
  53.0324268 111.2412209 140.0653677  49.9593132 110.2458793 139.9427250
  49.6211643 110.1299858 139.0547785  50.8282900 109.8449958 139.9228256
  45.8179947 112.0994269 135.9324141  45.2544812 112.0084206 135.1640429
  45.7032342 111.2794174 136.4126633  43.3644379 113.5945461 138.7708361
  44.1565671 113.2536286 138.3554661  43.6041029 113.7040436 139.6910515
  51.3979506 115.7665237 131.2438606  50.7467486 116.3519318 130.8572620
  52.1923869 116.2971432 131.3033643  45.3235133 112.8554374 131.6425740
  46.0966009 112.3083361 131.5038616  45.6760532 113.7198624 131.8540201
  48.0876382 111.5607605 141.4393999  48.6839955 111.3363628 140.7250962
  48.1451354 110.8192351 142.0419447  47.6601411 109.0147040 129.2744190
  47.9126932 108.4928562 128.5127653  46.7225970 108.8513186 129.3770874
  52.7044694 108.0182819 137.0818933  53.4907783 107.6002242 136.7309350
  52.9683398 108.9228911 137.2500582  52.8754771 113.4555669 131.7807590
  52.2400604 113.5290296 132.4928495  52.5452177 114.0449268 131.1026669
  58.1053121 107.9558052 137.9851912  58.8378293 107.3857269 138.2189741
  57.3492477 107.5679652 138.4258417  47.3797700 110.9175146 131.4768565
  47.2633958 110.2420050 132.1449649  47.4899960 110.4307520 130.6600718
  49.7229241 110.3785294 135.1815254  49.3587448 109.8515914 135.8928176
  50.5796356 109.9883763 135.0081740  55.6278541 101.6679626 142.4446520
  55.2961866 102.5375037 142.2207735  55.0324155 101.3515910 143.1240551
  49.3634728 105.4075193 130.1776603  49.5309130 106.2755430 130.5447074
  49.1731897 105.5702475 129.2537892  52.1210061 113.8692172 141.8442433
  51.8210784 114.7717211 141.7358240  51.7761120 113.6024355 142.6963586
  45.5722542 110.3205969 137.8779138  44.6473039 110.1882183 138.0856829
  45.8206955 111.1000188 138.3749080  55.5207205 106.3874712 139.5239870
  54.6124082 106.3190121 139.2298631  55.4694800 106.8646657 140.3521696
  49.3423948 107.8632851 131.1623270  49.2223574 108.3089901 132.0008750
  48.6476537 108.2118168 130.6036808  42.9331353 109.9639242 138.7122927
  43.0623734 110.2173721 139.6262338  42.2528805 110.5566951 138.3927582
  47.1030841 120.6336492 134.8113401  47.0254870 121.5844318 134.8901881
  46.4992484 120.2882365 135.4688327  57.3868851 104.5891151 141.3017744
  56.7443231 104.8823684 140.6557539  56.8823779 104.4744071 142.1070941
  55.0409015 108.3354324 131.9903604  55.9526871 108.5681711 131.8151301
  54.5318662 108.9191368 131.4278682  49.6780852 107.6951558 142.9998453
  50.5242047 108.1190972 143.1433102  49.6179490 107.0385183 143.6937016
  53.6478597 113.3180142 139.3817185  53.0187459 113.4825856 138.6793253
  53.2604259 113.7321752 140.1528149  57.5267829 114.2534580 136.7361549
  56.8418867 114.6333482 136.1858582  57.6111678 114.8629907 137.4693497
  52.8280298 105.3555927 144.6579627  52.5841229 106.1097987 144.1213902
  53.1040228 105.7341274 145.4926874  54.7818760 111.8994539 143.3356892
  54.9935656 112.5426299 142.6591273  54.7348509 111.0656856 142.8678822
  52.3844989 104.5112360 140.2393464  51.5229468 104.8093613 140.5310202
  52.4107424 104.7282759 139.3074497  49.2006559 113.0554550 136.6467270
  49.6644904 113.3342253 135.8571893  48.9363357 112.1537995 136.4640361
  46.0930640 112.6026032 139.5847033  46.6631997 113.0313300 138.9464518
  46.6838752 112.3208617 140.2831219  48.1375445 109.1777703 133.4556835
  48.8399488 109.6298746 133.9230762  47.8056073 108.5361522 134.0836728
  41.8800779 107.4361255 138.7573969  41.0899833 107.6918784 138.2814079
  42.3712026 108.2509593 138.8626009  43.8315524 107.8005835 135.7157446
  43.0346687 107.9124529 136.2340941  43.6041116 108.1392487 134.8498336
  40.1638482 107.6891746 141.1888960  40.4146520 108.5738756 141.4546536
  40.6998030 107.5096347 140.4164051  63.9870581 111.1205243 137.8564221
  63.2334290 110.5512641 137.7008226  64.1218123 111.0867908 138.8034856
  49.3769209 115.9918645 133.5318941  49.2414884 116.8370181 133.9603788
  49.9179022 116.1937923 132.7684874  42.8298607 113.5094083 134.1046866
  43.3423127 114.3037334 134.2552430  43.4821320 112.8120374 134.0380467
  44.6393492 116.6259840 136.1869619  44.8160120 117.5477804 135.9990603
  45.4350325 116.3118259 136.6163999  48.7804510 103.4868104 147.7853552
  49.5214223 104.0875257 147.7058015  49.0122433 102.7445742 147.2271595
  52.7261673  99.5149207 142.0617834  52.3825942 100.4050849 141.9856945
  53.0940636  99.3250865 141.1987419  40.7947524 111.8382738 134.8806436
  41.6322746 112.2479746 134.6640144  40.9725791 110.8982180 134.8506630
  52.6911956 109.5057818 130.5690269  52.1758579 110.2762423 130.8078657
  52.4189264 108.8322955 131.1923331  50.2759067 104.3507519 135.6275507
  49.4200663 103.9614370 135.4481146  50.6886019 104.4299480 134.7675293
  51.8058213 101.8853862 140.0267067  51.3023009 101.8483998 139.2134873
  52.0988820 102.7946605 140.0863724  48.0501099 101.9692592 139.0333249
  48.9154096 101.7735401 138.6739138  48.1178608 101.7402944 139.9602606
  57.6646230 112.2590173 132.5043443  56.8875673 111.9201333 132.0598605
  58.3437711 112.2642796 131.8298408  52.4798259 107.3784911 132.3950050
  52.1748394 107.6931060 133.2460193  53.4328701 107.4566330 132.4377383
  50.9244691 113.5375134 134.0443004  50.3966052 112.8027893 133.7316242
  50.4232193 114.3149810 133.7982973  55.9037537 111.7324154 139.1610051
  55.2461211 112.4223416 139.2490179  56.7077936 112.1220586 139.5044037
  45.6563418 104.1994800 136.4049616  46.2307170 103.9769982 135.6722809
  46.2434401 104.2683495 137.1578217  54.7142996 110.0868527 137.2113992
  55.2274877 110.7198519 137.7135702  55.3644219 109.4869723 136.8457352
  45.9833005 106.2299261 130.4245501  45.1470318 106.5673948 130.7454776
  45.8437775 106.0948241 129.4872638  47.9586086 101.0736049 135.1324685
  47.3050498 100.7585066 134.5081300  47.9166560 100.4511789 135.8584508
  49.0697291 111.3555344 127.0477977  48.1624353 111.1244598 127.2469126
  49.5668323 110.5592963 127.2351959  51.9765370 120.0652851 129.9674663
  51.3027069 120.3684548 130.5759621  52.3631192 120.8681932 129.6180121
  51.1923826 107.5617983 139.4572333  50.2746388 107.7832930 139.2994021
  51.6083970 107.6364293 138.5984040  51.9758874 108.9609398 134.5875013
  52.7230693 109.4730795 134.2782135  52.2450464 108.6393451 135.4479407
  50.2485524 111.4567939 131.5701967  49.3396744 111.1726972 131.6674437
  50.2780608 111.8767018 130.7105274  55.4804792 115.0674528 135.3393135
  55.0267119 114.2265438 135.3958325  54.8498758 115.7035927 135.6767915
  54.4237711 105.9966514 136.5693802  53.6860468 105.4843901 136.9004045
  54.6764485 105.5566896 135.7577079  53.9237731 116.9051025 136.2742953
  54.2160705 117.4656082 135.5555319  54.4336352 117.1979586 137.0296112
  54.5249339  98.7742766 137.1635572  54.8308215  97.9140130 136.8761487
  55.2501943  99.3660387 136.9634566  40.8173695 109.1773453 135.5517170
  40.6198095 108.5842814 134.8268236  40.2620359 108.8725663 136.2693108
  48.7970418 109.0696560 137.6711763  48.8519028 108.1170396 137.5954239
  47.9861620 109.2255999 138.1553061  49.9461612 112.9976683 128.9090046
  49.5081042 112.2812542 128.4495683  50.6872053 113.2252797 128.3475137
  46.7362778 107.6873619 135.4302142  45.9230644 107.9867790 135.8367334
  47.2321773 107.2929308 136.1476624  48.8871356 117.6831376 137.3636406
  48.8447535 117.9092223 136.4344938  49.8034055 117.4494751 137.5122207
  52.3336990 108.1515444 144.2617035  52.6886378 108.3786917 145.1211501
  52.9809121 108.4833821 143.6394291  58.0634727 111.2733880 134.9666365
  57.9252626 111.4635476 134.0387554  57.7070946 112.0353262 135.4234416
  46.2276853 105.2591975 141.0463377  46.8676232 105.1180734 140.3486340
  45.3954384 104.9726488 140.6701979  58.0904107 113.3410407 139.9777636
  58.5240613 113.2485696 140.8260690  58.8035687 113.3167907 139.3397652
  47.0037157 114.5594405 137.1598369  47.7977755 114.0644725 136.9580944
  46.2928849 114.0312268 136.7966075  43.3119920 108.7037487 133.2358122
  42.3817509 108.6421942 133.4528084  43.4077392 108.1813440 132.4394763
  43.2305470 105.2292300 135.8236363  43.4912287 106.1437633 135.7145524
  44.0522642 104.7616742 135.9732976  44.7030395 106.6430057 142.9935188
  45.3753448 106.4347419 142.3447837  43.8760181 106.4452143 142.5540420
  50.6055967 103.2691998 145.0100849  49.9583882 103.9681948 144.9165325
  51.3756982 103.7028142 145.3777097  50.7820101 111.1072763 143.0697668
  51.7112161 111.2583922 142.8966636  50.3611131 111.1956784 142.2146315
  49.5808433 115.1323427 140.8396206  49.4419519 114.7642212 141.7122144
  48.7923029 115.6471067 140.6680164  50.1756585 120.2332524 132.1821743
  50.3508341 119.7620567 132.9967365  49.4889373 120.8598290 132.4103003
  51.1313648 114.5105030 138.2285044  50.7963481 114.4705800 139.1242694
  50.6317594 113.8449746 137.7555454  45.1057892 109.9172660 143.7537625
  44.9677690 109.1852899 144.3549164  46.0162816 109.8281560 143.4721813
  54.0672840 111.8561064 128.5022104  53.4502010 111.1307892 128.4055156
  53.5989328 112.6170425 128.1589178  47.7340193 109.6292619 143.2421305
  48.4439811 108.9885811 143.2007923  47.6909501 109.8805514 144.1647485
  46.4469127 106.6157837 145.0616944  45.9106484 106.1648576 145.7138541
  45.8585835 106.7503746 144.3187409  45.8571386 106.0746489 127.6243408
  44.9800852 105.9535289 127.2605654  46.3329139 105.2832567 127.3722296
  37.3773526 110.8623648 137.7184915  38.0644566 110.5485378 137.1305930
  37.2221655 111.7665013 137.4452166  42.1808248 105.7513845 142.1469939
  42.0966437 105.1439514 141.4120349  41.3590954 106.2422863 142.1479435
  49.0435312 118.4272779 134.8705928  48.2602834 118.9694459 134.9644153
  49.7428057 118.9446759 135.2700170  52.3531962 104.2367408 137.5140134
  52.8500661 103.4837371 137.1941204  51.5818943 104.2731725 136.9483343
  60.2061719 109.9407774 139.1558425  60.1951595 110.8232489 138.7852358
  59.3379099 109.5879325 138.9612962  53.4361743 112.9939096 135.0878557
  52.5018021 113.1140558 134.9183261  53.6138411 112.0911562 134.8238567
  48.9366931 106.3784791 137.2411818  48.5664718 105.8255832 137.9292724
  49.4326023 105.7742925 136.6886818  56.8234294 108.8356415 135.6228591
  57.2894746 109.6684406 135.5488894  57.2741794 108.3701396 136.3273850
  54.8910525 115.1800236 132.6214743  55.1670369 115.0656831 133.5308617
  54.0215024 114.7817721 132.5826916  54.7950957 101.2037002 139.6619493
  53.8814036 101.4341229 139.8301700  55.2244058 101.2875446 140.5133525
  54.5657415 109.3926894 142.1619387  53.9128865 109.6402801 141.5071839
  54.9437795 108.5791032 141.8281864  51.5264589 119.4286587 136.2647557
  51.7086984 118.6108243 136.7275309  52.3497575 119.6454279 135.8272447
  51.8606755 118.3554772 133.5262605  52.3894521 117.8447227 132.9132768
  52.1234974 118.0397302 134.3908138  45.2162502 119.4069889 136.2860381
  44.5472878 119.8916016 135.8024421  45.0775372 119.6539109 137.2003760
  44.3332264 103.7888782 143.4864924  44.3973591 104.6503613 143.0742322
  44.2699384 103.1762784 142.7537283  40.5850080 107.6688344 133.0656313
  40.8803521 106.7599022 133.0123367  39.6838115 107.6476083 132.7437316
  52.4936158 119.3895608 139.8706722  52.3687298 118.5885348 139.3617667
  53.1515249 119.8841801 139.3820692  44.1144327 105.7444340 139.0483862
  43.3930912 106.3580308 138.9091335  44.9037582 106.2802105 138.9700508
  46.9170640 103.0798767 145.3224514  47.4405042 103.3261063 146.0850823
  46.6982973 103.9118802 144.9027651  42.3137921 105.3502441 133.1895639
  41.9850627 104.4699820 133.0070745  42.6677292 105.2950110 134.0772028
  51.5617500 116.9857344 137.6990624  51.4142462 116.0574052 137.8798194
  52.3870993 117.0077435 137.2147699  45.4279744 105.6375411 133.5571116
  45.7675817 106.1661333 132.8349725  45.8751865 105.9755817 134.3329683
  55.1651622 117.8085903 138.7855497  56.0898169 117.6028764 138.6479948
  54.9966925 117.5602304 139.6944838  48.1223185 104.0212462 143.0074184
  47.7820005 103.2220275 143.4094864  47.4162191 104.3214173 142.4351018
  48.7739657 101.1061774 141.4601507  49.5965726 100.6322253 141.3380398
  49.0177720 101.8852258 141.9600194  47.4147891 104.1350033 131.7564409
  48.1356254 104.5131286 131.2528126  46.7913196 104.8538910 131.8599387
  51.5579014 104.8395182 132.6922741  51.7742629 105.7219820 132.3911570
  51.0773081 104.4481395 131.9628383  46.2978236 107.7980895 139.2693486
  46.1522816 108.1121198 140.1617768  45.8203439 108.4165795 138.7164385
  48.1574619 104.7883443 139.3174376  48.1436187 103.8924536 138.9806674
  48.8747047 104.7954107 139.9512662  50.0100749 105.2220783 141.3627503
  49.7518527 106.1437854 141.3611833  49.4785790 104.8251218 142.0527967
  54.9546938 118.3271570 134.1417588  55.1283816 117.7617993 133.3891441
  55.4475829 119.1272465 133.9597078  47.5611514 103.6697823 134.5861946
  47.6827426 102.7414469 134.7852833  47.2713557 103.6836509 133.6740261
  50.4302705 101.3552734 137.7228666  50.4524402 101.4192067 136.7680645
  50.8470764 100.5157242 137.9169172  60.8086329 111.0907993 135.7607888
  61.2517475 110.3415319 135.3627011  59.9312839 111.0818130 135.3781620
  55.9422111 117.6438335 131.2414487  56.6373015 118.2645027 131.4601801
  56.2845261 116.7933686 131.5166865  57.8413534 115.0938040 132.7701817
  58.3664858 115.4325313 132.0451137  57.7535886 114.1585056 132.5864952
  49.5254194 121.1610024 137.1297071  49.0859185 120.6686402 137.8229927
  50.2762311 120.6182991 136.8889146  42.0046533 117.3521564 137.1321699
  42.8304553 117.0525336 136.7520342  41.6540585 116.5829187 137.5811487
  46.9728067 116.7048033 139.2019372  46.3508076 116.0418738 138.9021600
  47.6432933 116.7309165 138.5193020  47.0452594 105.1829821 148.7951878
  47.0940750 106.0591943 148.4129648  47.5875108 104.6407214 148.2223522
  46.5341573 115.2551956 132.6777833  46.6829694 115.9387420 132.0244506
  47.3408017 115.2357046 133.1927289  49.2751882 105.9361193 145.5498237
  48.4055192 106.2294759 145.2780825  49.5111363 106.5201638 146.2705501
  60.3519194 112.5613232 138.1530336  61.1866085 113.0003036 138.3167896
  60.4878323 112.0851885 137.3338581  44.2894206 111.2817134 133.6838902
  44.0440248 110.3779464 133.8819112  44.4590121 111.2834284 132.7418380
  51.9790916 102.1540810 143.0663657  52.4972860 102.8901837 142.7410146
  51.6246049 102.4604803 143.9010416  43.5589854 107.0145491 131.1825063
  42.8659099 107.0889846 130.5265099  43.3141606 106.2505835 131.7046580
  52.2303510  98.5741093 138.5864554  52.5105264  97.9064282 139.2124980
  53.0154117  98.7670188 138.0739218  50.0336979 117.7500086 130.1489580
  49.4610946 118.3690274 129.6960052  50.6069773 118.2999448 130.6829502
  56.1012369 106.9958727 142.3336129  57.0529792 107.0956824 142.3548353
  55.9315819 106.2036995 142.8434213  54.1226748 104.0814310 142.5195530
  53.5276680 104.3619322 141.8242019  53.8376445 104.5708211 143.2912271
  53.2534239 118.0337237 131.2798163  54.1864912 117.9682798 131.4831038
  53.1657452 118.8693503 130.8212695  55.8822255 117.3503107 128.2402110
  55.8035887 117.0162971 129.1337868  56.7031922 117.8424875 128.2393582
  58.5800447 110.2164846 141.4478429  58.5476767 109.2780847 141.6338113
  59.1901070 110.2948883 140.7144254  50.4183777 109.0860899 127.4905633
  51.3642882 108.9567107 127.5594051  50.0398022 108.3475561 127.9675061
  58.7294935 107.0075890 141.4936712  58.2133984 106.2234346 141.3066641
  59.6134884 106.6794606 141.6583231  56.3905662 100.7516905 137.4532525
  56.1930483 100.4431993 138.3375857  57.0005368 101.4778544 137.5830454
  62.4792294 109.4188716 141.1858917  61.7525457 109.2844681 140.5775408
  62.0639580 109.7265544 141.9915635  48.6026695 107.0110876 127.4260518
  47.6958150 106.7143988 127.5023232  48.8802676 106.7140694 126.5594804
  39.5204635 108.3317239 137.8759564  39.2007419 107.4782547 137.5833938
  38.9738063 108.5465817 138.6317532  43.2984543 111.0479680 141.5929071
  43.5170552 111.9796788 141.6117105  43.7110316 110.6887654 142.3783875
  50.2188760 101.5547765 133.5804759  49.4089489 101.2094850 133.9560005
  50.9073177 101.2455309 134.1692371  52.1479309 100.6325812 135.2029056
  52.7010347 101.0521266 135.8619079  52.3849395  99.7061560 135.2452012
  47.3725479 103.8697811 127.5672497  48.2344643 104.1952709 127.8268315
  47.5575823 103.0829307 127.0545563  55.5258116 102.7426337 134.7107720
  54.9456785 103.4011141 134.3285773  55.2594048 101.9203682 134.2995138
  53.9761682 102.1431395 136.9129040  54.4761460 102.2547930 136.1043359
  54.6197290 101.8392448 137.5529849  41.3029638 111.8838404 137.7218701
  41.2800326 111.9826092 136.7700584  41.6130274 112.7303555 138.0435867
  54.3082994 104.9026428 133.7664068  53.4208849 105.1876078 133.5484263
  54.7236983 104.7420191 132.9191345  57.6597530 104.9272949 137.4818408
  58.4357920 105.4169401 137.7543024  56.9345664 105.3531003 137.9390277
  60.0970089 105.6400568 138.5392348  60.6914579 105.3996304 137.8285657
  60.1696672 104.9207698 139.1665885  53.4526207 114.6671102 127.8612088
  54.1562057 114.8721105 128.4769744  52.7288856 115.2347864 128.1261172
  54.2824017 110.4180964 133.9814359  54.2259219 110.8749515 133.1421991
  54.8352360 109.6571648 133.8037201  58.0928823 106.2070695 134.8064478
  57.8365758 105.8067331 135.6372686  57.4681691 106.9214489 134.6814617
  62.4041161 108.9466769 137.3135769  61.8440719 109.0159958 138.0867332
  61.7984665 108.7707753 136.5935266  55.3612905 115.1053632 129.9110548
  56.1958509 114.6734830 129.7288023  55.1997248 114.9335645 130.8387443
  55.0158797 111.6085745 131.2766888  54.9607601 111.4430016 130.3355332
  54.3904852 112.3161778 131.4329077  48.3254922 101.1093854 130.8552206
  48.3133592 102.0535694 131.0120477  49.2178344 100.9263999 130.5611667
  48.2544486 119.7862744 138.9419963  47.3040117 119.7864606 138.8284335
  48.5576972 119.0395479 138.4255997  52.1407042  97.7036630 135.1098143
  51.3739438  97.1495117 135.2554825  52.5517747  97.7758499 135.9712295
  56.1628888 128.1846292 131.6425740  56.9359764 127.6375279 131.5038616
  56.5154286 129.0490541 131.8540201  58.4995165 124.3438958 129.2744190
  58.7520686 123.8220479 128.5127653  57.5619724 124.1805104 129.3770874
  58.2191454 126.2467064 131.4768565  58.1027712 125.5711967 132.1449649
  58.3293714 125.7599438 130.6600718  60.2028482 120.7367111 130.1776603
  60.3702884 121.6047347 130.5447074  60.0125651 120.8994393 129.2537892
  60.1817703 123.1924768 131.1623270  60.0617328 123.6381819 132.0008750
  59.4870291 123.5410086 130.6036808  65.8802769 123.6646242 131.9903604
  66.7920625 123.8973628 131.8151301  65.3712416 124.2483286 131.4278682
  58.9769199 124.5069620 133.4556835  59.6793243 124.9590664 133.9230762
  58.6449828 123.8653439 134.0836728  54.6709279 123.1297752 135.7157446
  53.8740442 123.2416447 136.2340941  54.4434871 123.4684405 134.8498336
  51.6341278 127.1674655 134.8806436  52.4716500 127.5771664 134.6640144
  51.8119546 126.2274098 134.8506630  63.5305710 124.8349736 130.5690269
  63.0152334 125.6054341 130.8078657  63.2583019 124.1614872 131.1923331
  61.1152821 119.6799437 135.6275507  60.2594418 119.2906287 135.4481146
  61.5279773 119.7591398 134.7675293  63.3192013 122.7076828 132.3950050
  63.0142149 123.0222977 133.2460193  64.2722456 122.7858248 132.4377383
  56.4957173 119.5286718 136.4049616  57.0700925 119.3061899 135.6722809
  57.0828155 119.5975412 137.1578217  56.8226760 121.5591179 130.4245501
  55.9864072 121.8965865 130.7454776  56.6831530 121.4240159 129.4872638
  58.7979841 116.4027967 135.1324685  58.1444253 116.0876984 134.5081300
  58.7560315 115.7803707 135.8584508  59.9091045 126.6847262 127.0477977
  59.0018107 126.4536515 127.2469126  60.4062077 125.8884881 127.2351959
  61.0879279 126.7859857 131.5701967  60.1790498 126.5018889 131.6674437
  61.1174363 127.2058935 130.7105274  65.3643093 114.1034684 137.1635572
  65.6701970 113.2432048 136.8761487  66.0895698 114.6952304 136.9634566
  51.6567449 124.5065371 135.5517170  51.4591849 123.9134731 134.8268236
  51.1014113 124.2017581 136.2693108  60.7855367 128.3268600 128.9090046
  60.3474797 127.6104459 128.4495683  61.5265808 128.5544715 128.3475137
  57.5756533 123.0165537 135.4302142  56.7624398 123.3159708 135.8367334
  58.0715527 122.6221226 136.1476624  54.1513675 124.0329405 133.2358122
  53.2211263 123.9713860 133.4528084  54.2471147 123.5105357 132.4394763
  54.0699224 120.5584217 135.8236363  54.3306041 121.4729551 135.7145524
  54.8916396 120.0908660 135.9732976  64.9066594 127.1852982 128.5022104
  64.2895765 126.4599810 128.4055156  64.4383083 127.9462342 128.1589178
  56.6965140 121.4038406 127.6243408  55.8194607 121.2827207 127.2605654
  57.1722893 120.6124485 127.3722296  48.2167280 126.1915566 137.7184915
  48.9038320 125.8777296 137.1305930  48.0615409 127.0956931 137.4452166
  51.4243834 122.9980261 133.0656313  51.7197275 122.0890940 133.0123367
  50.5231870 122.9768001 132.7437316  53.1531676 120.6794359 133.1895639
  52.8244382 119.7991738 133.0070745  53.5071046 120.6242028 134.0772028
  56.2673499 120.9667329 133.5571116  56.6069571 121.4953250 132.8349725
  56.7145619 121.3047735 134.3329683  58.2541646 119.4641951 131.7564409
  58.9750008 119.8423203 131.2528126  57.6306950 120.1830827 131.8599387
  62.3972769 120.1687100 132.6922741  62.6136383 121.0511737 132.3911570
  61.9166836 119.7773313 131.9628383  58.4005269 118.9989741 134.5861946
  58.5221180 118.0706387 134.7852833  58.1107311 119.0128427 133.6740261
  61.2696459 116.6844651 137.7228666  61.2918156 116.7483985 136.7680645
  61.6864518 115.8449160 137.9169172  55.1287961 126.6109051 133.6838902
  54.8834003 125.7071381 133.8819112  55.2983875 126.6126202 132.7418380
  54.3983608 122.3437409 131.1825063  53.7052853 122.4181764 130.5265099
  54.1535360 121.5797753 131.7046580  63.0697265 113.9033010 138.5864554
  63.3499019 113.2356199 139.2124980  63.8547872 114.0962106 138.0739218
  61.2577532 124.4152817 127.4905633  62.2036637 124.2859025 127.5594051
  60.8791777 123.6767479 127.9675061  59.4420449 122.3402793 127.4260518
  58.5351905 122.0435906 127.5023232  59.7196430 122.0432611 126.5594804
  50.3598390 123.6609157 137.8759564  50.0401174 122.8074465 137.5833938
  49.8131818 123.8757735 138.6317532  61.0582515 116.8839683 133.5804759
  60.2483243 116.5386768 133.9560005  61.7466932 116.5747227 134.1692371
  62.9873063 115.9617730 135.2029056  63.5404102 116.3813183 135.8619079
  63.2243149 115.0353478 135.2452012  58.2119234 119.1989728 127.5672497
  59.0738398 119.5244627 127.8268315  58.3969578 118.4121224 127.0545563
  66.3651870 118.0718255 134.7107720  65.7850539 118.7303059 134.3285773
  66.0987803 117.2495600 134.2995138  65.1476748 120.2318345 133.7664068
  64.2602603 120.5167996 133.5484263  65.5630737 120.0712109 132.9191345
  64.2919962 129.9963020 127.8612088  64.9955812 130.2013023 128.4769744
  63.5682610 130.5639782 128.1261172  59.1648677 116.4385772 130.8552206
  59.1527347 117.3827611 131.0120477  60.0572099 116.2555917 130.5611667
  62.9800796 113.0328548 135.1098143  62.2133192 112.4787035 135.2554825
  63.3911501 113.1050417 135.9712295  18.8798244  46.7851607 117.9683912
  18.2286223  47.3705687 117.5817926  19.6742607  47.3157802 118.0278950
  12.8053871  43.8740744 118.3671047  13.5784747  43.3269731 118.2283923
  13.1579270  44.7384993 118.5785508  15.1420149  40.0333410 115.9989497
  15.3945669  39.5114931 115.2372960  14.2044708  39.8699555 116.1016180
  20.3573509  44.4742039 118.5052897  19.7219342  44.5476665 119.2173801
  20.0270915  45.0635638 117.8271976  14.5849578  51.6522862 121.5358707
  14.5073608  52.6030687 121.6147188  13.9811222  51.3068735 122.1933634
  22.5227752  39.3540693 118.7148910  23.4345608  39.5868080 118.5396608
  22.0137399  39.9377738 118.1523989  25.0086567  45.2720950 123.4606855
  24.3237605  45.6519851 122.9103889  25.0930416  45.8816276 124.1938803
  31.4689319  42.1391613 124.5809528  30.7153028  41.5699011 124.4253532
  31.6036860  42.1054277 125.5280162  16.8587947  47.0105015 120.2564247
  16.7233622  47.8556551 120.6849095  17.3997760  47.2124293 119.4930181
  20.1730694  40.5244188 117.2935576  19.6577317  41.2948793 117.5323963
  19.9008002  39.8509324 117.9168637  25.1464968  43.2776543 119.2288749
  24.3694410  42.9387702 118.7843911  25.8256449  43.2829166 118.5543714
  18.4063429  44.5561503 120.7688311  17.8784790  43.8214263 120.4561548
  17.9050931  45.3336180 120.5228279  16.5516029  42.3741714 113.7723284
  15.6443090  42.1430967 113.9714433  17.0487061  41.5779333 113.9597265
  19.4584108  51.0839221 116.6919970  18.7845806  51.3870918 117.3004928
  19.8449930  51.8868301 116.3425427  17.7304262  42.4754309 118.2947274
  16.8215481  42.1913341 118.3919744  17.7599346  42.8953387 117.4350581
  22.9623530  46.0860898 122.0638442  22.5085857  45.2451808 122.1203632
  22.3317496  46.7222296 122.4013222  21.4056469  47.9237395 122.9988260
  21.6979443  48.4842452 122.2800625  21.9155089  48.2165956 123.7541419
  17.4280350  44.0163052 115.6335353  16.9899780  43.2998911 115.1740990
  18.1690791  44.2439167 115.0720444  25.5453465  42.2920249 121.6911671
  25.4071363  42.4821845 120.7632860  25.1889684  43.0539632 122.1479722
  17.6575323  51.2518893 118.9067049  17.8327078  50.7806936 119.7212672
  16.9708111  51.8784659 119.1348310  21.5491578  42.8747434 115.2267410
  20.9320748  42.1494262 115.1300463  21.0808066  43.6356794 114.8834484
  13.3390123  37.0932858 114.3488714  12.4619590  36.9721659 113.9850961
  13.8147877  36.3018936 114.0967603  16.5254050  49.4459148 121.5951235
  15.7421571  49.9880829 121.6889459  17.2246795  49.9633128 121.9945476
  20.9180480  44.0125465 121.8123864  19.9836759  44.1326928 121.6428568
  21.0957149  43.1097932 121.5483874  22.3729263  46.1986606 119.3460050
  22.6489107  46.0843200 120.2553924  21.5033762  45.8004091 119.3072223
  19.0083327  50.4472957 122.9892864  19.1905721  49.6294613 123.4520616
  19.8316313  50.6640649 122.5517754  19.3425492  49.3741142 120.2507912
  19.8713259  48.8633596 119.6378074  19.6053712  49.0583672 121.1153445
  22.4365676  49.3457940 120.8662895  22.6102553  48.7804362 120.1136747
  22.9294567  50.1458835 120.6842385  28.2905067  42.1094363 122.4853195
  28.7336213  41.3601688 122.0872318  27.4131577  42.1004499 122.1026927
  23.4240848  48.6624704 117.9659793  24.1191753  49.2831397 118.1847108
  23.7663998  47.8120056 118.2412171  25.3232271  46.1124410 119.4947124
  25.8483596  46.4511683 118.7696444  25.2354624  45.1771425 119.3110259
  17.0072932  52.1796393 123.8542377  16.5677922  51.6872772 124.5475234
  17.7581049  51.6369361 123.6134452  14.0160311  46.2738326 119.4023139
  14.1648432  46.9573790 118.7489812  14.8226755  46.2543416 119.9172595
  27.8337932  43.5799601 124.8775642  28.6684823  44.0189405 125.0413203
  27.9697060  43.1038254 124.0583888  17.5155717  48.7686456 116.8734887
  16.9429684  49.3876643 116.4205359  18.0888510  49.3185818 117.4074809
  20.7352977  49.0523606 118.0043469  21.6683650  48.9869168 118.2076345
  20.6476189  49.8879873 117.5458002  23.3640993  48.3689476 114.9647417
  23.2854625  48.0349340 115.8583175  24.1850660  48.8611244 114.9638889
  17.9002515  40.1047269 114.2150939  18.8461620  39.9753477 114.2839357
  17.5216760  39.3661931 114.6920368  16.0845432  38.0297245 114.1505825
  15.1776888  37.7330358 114.2268538  16.3621413  37.7327063 113.2840111
  14.8544217  34.8884180 114.2917804  15.7163381  35.2139079 114.5513621
  15.0394561  34.1015676 113.7790870  20.9344945  45.6857472 114.5857395
  21.6380795  45.8907474 115.2015051  20.2107594  46.2534234 114.8506479
  21.7642755  41.4367333 120.7059665  21.7077957  41.8935885 119.8667298
  22.3171098  40.6758018 120.5282508  22.8431642  46.1240001 116.6355855
  23.6777246  45.6921200 116.4533330  22.6815985  45.9522015 117.5632750
  22.4977535  42.6272114 118.0012194  22.4426338  42.4616386 117.0600639
  21.8723590  43.3348147 118.1574384  31.4715917  56.6409652 126.7311032
  32.1094327  56.5216400 126.0274372  31.3536760  57.5890496 126.7898984
  28.2805624  56.5937080 126.6672557  27.9424135  56.4778145 125.7793091
  29.1495392  56.1928245 126.6473563  24.1392439  58.4472557 122.6569447
  23.5757305  58.3562494 121.8885735  24.0244835  57.6272461 123.1371940
  28.7625407  57.7471932 132.6258762  28.7514048  57.3524730 131.7539266
  28.9246046  57.0138005 133.2192534  21.6856871  59.9423748 125.4953668
  22.4778163  59.6014573 125.0799967  21.9253522  60.0518723 126.4155821
  29.7191998  62.1143524 117.9683912  29.0679978  62.6997605 117.5817926
  30.5136361  62.6449719 118.0278950  23.6447625  59.2032662 118.3671047
  24.4178501  58.6561649 118.2283923  23.9973024  60.0676911 118.5785508
  25.4832668  60.5309044 131.5737946  25.1922534  61.4354675 131.4584612
  26.1189652  60.5725571 132.2882016  26.4088875  57.9085892 128.1639306
  27.0052447  57.6841915 127.4496269  26.4663846  57.1670638 128.7664754
  25.9813903  55.3625328 115.9989497  26.2339424  54.8406849 115.2372960
  25.0438462  55.1991473 116.1016180  31.0257186  54.3661106 123.8064240
  31.8120275  53.9480529 123.4554657  31.2895890  55.2707198 123.9745888
  31.1967263  59.8033956 118.5052897  30.5613096  59.8768583 119.2173801
  30.8664670  60.3927555 117.8271976  36.4265613  54.3036339 124.7097218
  37.1590785  53.7335556 124.9435048  35.6704969  53.9157940 125.1503724
  25.7010192  57.2653434 118.2013872  25.5846450  56.5898337 118.8694956
  25.8112452  56.7785808 117.3846025  28.0441733  56.7263581 121.9060561
  27.6799940  56.1994202 122.6173482  28.9008849  56.3362050 121.7327046
  33.9491033  48.0157913 129.1691827  33.6174358  48.8853324 128.9453042
  33.3536647  47.6994197 129.8485857  27.6847220  51.7553480 116.9021909
  27.8521622  52.6233717 117.2692380  27.4944389  51.9180762 115.9783199
  30.4422553  60.2170459 128.5687740  30.1423276  61.1195498 128.4603547
  30.0973613  59.9502643 129.4208893  23.8935034  56.6684256 124.6024444
  22.9685531  56.5360470 124.8102136  24.1419448  57.4478475 125.0994387
  33.8419697  52.7353000 126.2485177  32.9336574  52.6668408 125.9543938
  33.7907293  53.2124944 127.0767003  27.6636441  54.2111138 117.8868576
  27.5436066  54.6568189 118.7254056  26.9689029  54.5596456 117.3282114
  21.2543846  56.3117530 125.4368233  21.3836227  56.5652009 126.3507645
  20.5741297  56.9045238 125.1172888  25.4243333  66.9814780 121.5358707
  25.3467362  67.9322605 121.6147188  24.8204976  66.6360652 122.1933634
  35.7081343  50.9369438 128.0263051  35.0655723  51.2301971 127.3802846
  35.2036272  50.8222358 128.8316248  33.3621507  54.6832611 118.7148910
  34.2739363  54.9159998 118.5396608  32.8531154  55.2669655 118.1523989
  31.6462275  59.1057239 132.3510203  32.0545631  58.6639649 131.6064835
  30.9239536  58.5309866 132.6044396  27.9993345  54.0429846 129.7243760
  28.8454540  54.4669259 129.8678409  27.9391982  53.3863470 130.4182323
  31.9691089  59.6658430 126.1062492  31.3399952  59.8304144 125.4038560
  31.5816751  60.0800039 126.8773456  35.8480321  60.6012867 123.4606855
  35.1631359  60.9811769 122.9103889  35.9324170  61.2108194 124.1938803
  33.1031253  58.2472826 130.0602199  33.3148148  58.8904586 129.3836580
  33.0561001  57.4135143 129.5924129  30.7057482  50.8590647 126.9638771
  29.8441961  51.1571901 127.2555509  30.7319916  51.0761046 126.0319804
  27.5219051  59.4032838 123.3712577  27.9857397  59.6820541 122.5817199
  27.2575849  58.5016282 123.1885667  24.4143132  58.9504319 126.3092340
  24.9844489  59.3791588 125.6709825  25.0051244  58.6686904 127.0076526
  26.4587937  55.5255990 120.1802142  27.1611980  55.9777034 120.6476068
  26.1268566  54.8839809 120.8082035  20.2013271  53.7839543 125.4819276
  19.4112325  54.0397071 125.0059386  20.6924518  54.5987881 125.5871316
  34.2177081  61.1244782 128.2324556  35.0394524  60.7224969 127.9507238
  34.2139483  61.0213016 129.1840672  22.1528016  54.1484122 122.4402752
  21.3559180  54.2602816 122.9586248  21.9253609  54.4870774 121.5743643
  27.9833684  60.6728825 130.3885267  28.0478117  61.1349232 131.2243439
  27.2744608  60.0426190 130.5167577  42.3083074  57.4683530 124.5809528
  41.5546782  56.8990928 124.4253532  42.4430615  57.4346195 125.5280162
  27.6981702  62.3396933 120.2564247  27.5627376  63.1848468 120.6849095
  28.2391514  62.5416210 119.4930181  21.1511099  59.8572371 120.8292172
  21.6635620  60.6515621 120.9797737  21.8033812  59.1598661 120.7625774
  22.9605984  62.9738127 122.9114925  23.1372612  63.8956092 122.7235909
  23.7562817  62.6596546 123.3409305  29.3250178  62.9620499 134.3864589
  28.8814032  62.1756878 134.0685494  29.9867392  63.1499650 133.7208480
  24.0837299  64.4916301 128.9125268  24.6344724  64.3633364 128.1402262
  23.2448775  64.7911190 128.5620161  31.4231416  63.2423299 132.4145991
  31.4049892  64.0632180 131.9226260  32.3451336  63.1177374 132.6396132
  27.8804470  60.7567429 133.2569499  28.4132807  59.9955717 133.0268807
  27.3518551  60.4641080 133.9993653  19.1160016  58.1861025 121.6051743
  19.9535238  58.5958033 121.3885450  19.2938284  57.2460467 121.5751937
  31.0124448  55.8536106 117.2935576  30.4971071  56.6240710 117.5323963
  30.7401756  55.1801242 117.9168637  28.5971559  50.6985806 122.3520814
  27.7413155  50.3092657 122.1726453  29.0098511  50.7777767 121.4920600
  30.1270706  48.2332150 126.7512374  29.6235501  48.1962285 125.9380179
  30.4201313  49.1424892 126.8109031  26.3713592  48.3170879 125.7578556
  27.2366588  48.1213688 125.3984445  26.4391100  48.0881231 126.6847912
  35.9858722  58.6068460 119.2288749  35.2088165  58.2679620 118.7843911
  36.6650203  58.6121083 118.5543714  30.8010751  53.7263198 119.1195357
  30.4960887  54.0409347 119.9705500  31.7541193  53.8044618 119.1622690
  29.2457183  59.8853421 120.7688311  28.7178545  59.1506181 120.4561548
  28.7444686  60.6628097 120.5228279  34.2250029  58.0802442 125.8855357
  33.5673703  58.7701703 125.9735486  35.0290428  58.4698873 126.2289344
  23.9775911  50.5473087 123.1294922  24.5519663  50.3248269 122.3968115
  24.5646893  50.6161782 123.8823524  33.0355488  56.4346814 123.9359299
  33.5487370  57.0676806 124.4381009  33.6856712  55.8348010 123.5702659
  24.3045498  52.5777548 117.1490808  23.4682810  52.9152235 117.4700082
  24.1650267  52.4426528 116.2117945  26.2798578  47.4214336 121.8569992
  25.6262991  47.1063353 121.2326607  26.2379052  46.7990077 122.5829815
  27.3909783  57.7033631 113.7723284  26.4836845  57.4722885 113.9714433
  27.8880815  56.9071251 113.9597265  30.2977862  66.4131139 116.6919970
  29.6239561  66.7162835 117.3004928  30.6843684  67.2160219 116.3425427
  29.5136319  53.9096270 126.1817639  28.5958880  54.1311217 126.0239328
  29.9296462  53.9842580 125.3229347  30.2971366  55.3087685 121.3120320
  31.0443185  55.8209083 121.0027442  30.5662956  54.9871738 122.1724713
  28.5698017  57.8046226 118.2947274  27.6609236  57.5205259 118.3919744
  28.5993100  58.2245305 117.4350581  33.8017284  61.4152816 122.0638442
  33.3479611  60.5743726 122.1203632  33.1711251  62.0514214 122.4013222
  32.7450204  52.3444802 123.2939109  32.0072960  51.8322188 123.6249352
  32.9976977  51.9045183 122.4822386  32.2450223  63.2529312 122.9988260
  32.5373198  63.8134369 122.2800625  32.7548844  63.5457873 123.7541419
  32.8461831  45.1221054 123.8880878  33.1520708  44.2618417 123.6006793
  33.5714436  45.7138674 123.6879872  19.1386187  55.5251740 122.2762476
  18.9410587  54.9321101 121.5513543  18.5832851  55.2203951 122.9938415
  27.1182911  55.4174847 124.3957069  27.1731520  54.4648683 124.3199546
  26.3074113  55.5734286 124.8798368  28.2674104  59.3454970 115.6335353
  27.8293534  58.6290829 115.1740990  29.0084545  59.5731085 115.0720444
  25.0575271  54.0351907 122.1547448  24.2443136  54.3346077 122.5612640
  25.5534265  53.6407595 122.8721930  27.2083848  64.0309663 124.0881713
  27.1660027  64.2570510 123.1590245  28.1246547  63.7973038 124.2367514
  30.6549482  54.4993731 130.9862342  31.0098870  54.7265204 131.8456808
  31.3021614  54.8312108 130.3639597  36.3847219  57.6212167 121.6911671
  36.2465118  57.8113763 120.7632860  36.0283438  58.3831550 122.1479722
  24.5489345  51.6070262 127.7708683  25.1888725  51.4659021 127.0731647
  23.7166876  51.3204775 127.3947285  36.4116599  59.6888694 126.7022943
  36.8453105  59.5963983 127.5505997  37.1248180  59.6646194 126.0642959
  25.3249649  60.9072692 123.8843676  26.1190248  60.4123013 123.6826251
  24.6141342  60.3790556 123.5211381  30.1444494  63.2890788 128.2356043
  30.1981516  63.8581724 129.0033759  29.2759275  63.4592673 127.8710080
  21.6332413  55.0515774 119.9603428  20.7030001  54.9900230 120.1773390
  21.7289885  54.5291727 119.1640070  21.5517962  51.5770587 122.5481670
  21.8124779  52.4915920 122.4390830  22.3735134  51.1095030 122.6978283
  37.2732148  59.7312395 129.2355828  37.4668038  60.6358205 129.4815103
  37.1732767  59.2719814 130.0694413  32.3347257  59.8819137 134.8096709
  32.1832763  59.6529689 133.8926792  32.3251937  60.8389739 134.8228054
  29.1032593  57.4551050 129.7942975  30.0324653  57.6062210 129.6211942
  28.6823623  57.5435071 128.9391622  27.9020925  61.4801714 127.5641513
  27.7632011  61.1120499 128.4367451  27.1135521  61.9949354 127.3925471
  28.4969077  66.5810811 118.9067049  28.6720833  66.1098854 119.7212672
  27.8101865  67.2076577 119.1348310  29.4526140  60.8583317 124.9530351
  29.1175973  60.8184087 125.8488000  28.9530086  60.1928033 124.4800761
  32.3885332  58.2039352 115.2267410  31.7714503  57.4786180 115.1300463
  31.9201821  58.9648712 114.8834484  26.0552685  55.9770907 129.9666611
  26.7652304  55.3364099 129.9253230  26.0121993  56.2283801 130.8892792
  34.0439464  62.9138260 132.8873191  33.9852010  62.2297480 132.2203774
  34.4458982  63.6557250 132.4353817  23.0630163  69.7300174 125.6806909
  23.3026761  70.3618698 126.3585928  22.2199359  69.3788214 125.9672269
  24.1783878  52.4224776 114.3488714  23.3013344  52.3013577 113.9850961
  24.6541631  51.6310854 114.0967603  34.0456871  60.8777844 131.1187170
  33.1583650  60.5403766 131.2413569  34.6155422  60.1460875 131.3555936
  15.6986018  57.2101936 124.4430222  16.3857058  56.8963666 123.8551237
  15.5434147  58.1143300 124.1697473  27.5758024  65.5379296 128.0848413
  27.5028196  66.3434268 128.5967718  27.1335417  65.7371262 127.2596435
  27.3647804  64.7751066 121.5951235  26.5815326  65.3172746 121.6889459
  28.0640549  65.2925046 121.9945476  30.6744454  50.5845696 124.2385440
  31.1713154  49.8315658 123.9186511  29.9031436  50.6210012 123.6728650
  38.5274212  56.2886061 125.8803732  38.5164088  57.1710777 125.5097665
  37.6591591  55.9357612 125.6858269  30.0356708  65.4366130 130.2406572
  30.7484680  66.0713595 130.1682474  29.5446737  65.5329996 129.4246574
  31.7574235  59.3417383 121.8123864  30.8230514  59.4618845 121.6428568
  31.9350903  58.4389850 121.5483874  27.2579423  52.7263079 123.9657125
  26.8877210  52.1734119 124.6538031  27.7538515  52.1221212 123.4132125
  35.1446786  55.1834702 122.3473898  35.6107238  56.0162694 122.2734201
  35.5954287  54.7179684 123.0519156  25.0868621  63.1860574 131.0612143
  25.7878081  63.8197057 131.2141537  24.6163736  63.5275305 130.3007782
  33.2123017  61.5278523 119.3460050  33.4882861  61.4135118 120.2553924
  32.3427516  61.1296008 119.3072223  33.1163449  47.5515289 126.3864799
  32.2026529  47.7819516 126.5547006  33.5456550  47.6353733 127.2378832
  32.8869907  55.7405181 128.8864693  32.2341358  55.9881089 128.2317146
  33.2650287  54.9269319 128.5527171  29.8477081  65.7764874 122.9892864
  30.0299476  64.9586530 123.4520616  30.6710067  65.9932567 122.5517754
  30.1819247  64.7033059 120.2507912  30.7107013  64.1925514 119.6378074
  30.4447466  64.3875590 121.1153445  20.6836339  62.7196929 127.9943246
  21.2689776  61.9740617 128.1271150  20.4861178  63.0300885 128.8779909
  23.5374995  65.7548176 123.0105688  22.8685370  66.2394304 122.5269728
  23.3987864  66.0017397 123.9249067  27.6780263  67.7891920 129.6088346
  28.2298571  67.9523541 130.3737432  28.0186457  68.3796357 128.9368371
  32.5291138  62.6153177 135.4637001  33.0731042  63.2283135 134.9691956
  31.9477982  63.1732756 135.9804014  18.9062572  54.0166631 119.7901620
  19.2016013  53.1077309 119.7368674  18.0050608  53.9954370 119.4682622
  30.8148651  65.7373895 126.5952029  30.6899790  64.9363635 126.0862974
  31.4727742  66.2320088 126.1065998  22.4356819  52.0922628 125.7729169
  21.7143405  52.7058595 125.6336642  23.2250075  52.6280392 125.6945815
  32.8783559  63.5382915 128.2231579  31.9313894  63.4188266 128.1509905
  33.2266332  62.6505413 128.3057840  20.6350413  51.6980729 119.9140945
  20.3063120  50.8178108 119.7316051  20.9889784  51.6428397 120.8017335
  29.8829992  63.3335631 124.4235931  29.7354955  62.4052339 124.6043501
  30.7083486  63.3555722 123.9393006  23.7492237  51.9853699 120.2816423
  24.0888309  52.5139620 119.5595031  24.1964357  52.3234105 121.0574990
  33.4864114  64.1564190 125.5100804  34.4110662  63.9507051 125.3725255
  33.3179417  63.9080591 126.4190145  25.7360384  50.4828320 118.4809716
  26.4568746  50.8609573 117.9773433  25.1125688  51.2017197 118.5844694
  29.8791507  51.1873469 119.4168048  30.0955121  52.0698107 119.1156876
  29.3985574  50.7959682 118.6873690  24.6190728  54.1459182 125.9938793
  24.4735309  54.4599485 126.8863074  24.1415932  54.7644083 125.4409691
  26.4787111  51.1361730 126.0419682  26.4648680  50.2402824 125.7051980
  27.1959539  51.1432394 126.6757968  28.3313242  51.5699070 128.0872810
  28.0731019  52.4916141 128.0857140  27.7998282  51.1729505 128.7773274
  33.2759430  64.6749858 120.8662895  33.4496308  64.1096280 120.1136747
  33.7688322  65.4750752 120.6842385  19.0936390  56.6864527 128.9326454
  18.5489858  57.4624335 129.0646728  19.9715740  57.0335331 128.7745575
  25.8824007  50.0176111 121.3107252  26.0039918  49.0892757 121.5098140
  25.5926049  50.0314797 120.3985568  28.7515197  47.7031021 124.4473972
  28.7736894  47.7670354 123.4925952  29.1683256  46.8635530 124.6414478
  39.1298821  57.4386281 122.4853195  39.5729968  56.6893606 122.0872318
  38.2525332  57.4296417 122.1026927  34.2634603  63.9916622 117.9659793
  34.9585507  64.6123315 118.1847108  34.6057753  63.1411973 118.2412171
  36.1626026  61.4416328 119.4947124  36.6877350  61.7803600 118.7696444
  36.0748378  60.5063343 119.3110259  27.8246075  65.3550401 131.6237001
  28.1333201  65.1099548 132.4959700  28.6221557  65.5597040 131.1355871
  27.8466687  67.5088311 123.8542377  27.4071677  67.0164690 124.5475234
  28.5974804  66.9661278 123.6134452  20.3259026  63.6999852 123.8567005
  21.1517046  63.4003624 123.4765649  19.9753078  62.9307474 124.3056794
  25.2940559  63.0526320 125.9264679  24.6720568  62.3897025 125.6266907
  25.9645426  63.0787452 125.2438327  18.5267631  61.6186178 124.8155939
  17.6899539  61.1908352 124.6339940  18.4991276  61.8118621 125.7526730
  35.8519932  62.0749231 134.7998322  35.0615476  62.0573370 134.2602821
  35.6153287  62.6137525 135.5547359  35.9717807  58.9241698 132.1131051
  36.0215812  58.7591705 133.0546573  35.8631730  58.0568957 131.7228931
  24.8554066  61.6030243 119.4023139  25.0042186  62.2865708 118.7489812
  25.6620509  61.5835333 119.9172595  37.4736004  61.3438639 132.3573072
  37.1820812  61.7068620 133.1936533  36.8608135  60.6305647 132.1786404
  38.6731686  58.9091519 124.8775642  39.5078578  59.3481323 125.0413203
  38.8090815  58.4330172 124.0583888  35.7223192  56.4671254 130.8253130
  36.1977314  56.6598900 130.0171981  34.7988757  56.5230440 130.5796514
  22.6106699  57.6295421 120.4084208  22.3652741  56.7257751 120.6064419
  22.7802613  57.6312571 119.4663686  21.8802346  53.3623778 117.9070370
  21.1871591  53.4368133 117.2510406  21.6354098  52.5984122 118.4291887
  30.5516003  44.9219380 125.3109861  30.8317757  44.2542569 125.9370287
  31.3366610  45.1148475 124.7984524  28.3549471  64.0978374 116.8734887
  27.7823438  64.7168561 116.4205359  28.9282265  64.6477735 117.4074809
  34.4224861  53.3437014 129.0581436  35.3742284  53.4435111 129.0793660
  34.2528312  52.5515282 129.5679520  32.4439241  50.4292597 129.2440837
  31.8489173  50.7097610 128.5487325  32.1588937  50.9186498 130.0157578
  31.5746731  64.3815524 118.0043469  32.5077404  64.3161086 118.2076345
  31.4869944  65.2171791 117.5458002  34.2034748  63.6981394 114.9647417
  34.1248379  63.3641258 115.8583175  35.0244415  64.1903162 114.9638889
  36.9012939  56.5643133 128.1723735  36.8689259  55.6259134 128.3583419
  37.5113563  56.6427170 127.4389560  28.7396270  55.4339186 114.2150939
  29.6855374  55.3045395 114.2839357  28.3610515  54.6953848 114.6920368
  37.0507427  53.3554177 128.2182019  36.5346476  52.5712634 128.0311947
  37.9347376  53.0272894 128.3828538  34.7118154  47.0995192 124.1777831
  34.5142975  46.7910281 125.0621163  35.3217860  47.8256831 124.3075761
  42.7189489  57.6259140 127.3129772  43.4492877  57.3644428 127.8737475
  42.1096434  56.8887862 127.3531840  40.8004786  55.7667003 127.9104223
  40.0737949  55.6322968 127.3020715  40.3852073  56.0743832 128.7160941
  26.9239187  53.3589163 114.1505825  26.0170642  53.0622276 114.2268538
  27.2015168  53.0618981 113.2840111  17.8417127  54.6795526 124.6004871
  17.5219912  53.8260834 124.3079245  17.2950555  54.8944104 125.3562838
  21.6197035  57.3957967 128.3174378  21.8383045  58.3275075 128.3362411
  22.0322809  57.0365942 129.1029181  28.5401253  47.9026053 120.3050066
  27.7301981  47.5573138 120.6805312  29.2285670  47.5933596 120.8937677
  30.4691801  46.9804099 121.9274363  31.0222840  47.3999553 122.5864386
  30.7061887  46.0539847 121.9697319  25.6937972  50.2176098 114.2917804
  26.5557136  50.5430996 114.5513621  25.8788316  49.4307594 113.7790870
  17.7105387  58.2998438 126.5697993  17.0168859  57.8852391 126.0567947
  18.4578378  58.3418974 125.9731411  33.8470608  49.0904625 121.4353027
  33.2669277  49.7489429 121.0531079  33.5806541  48.2681969 121.0240444
  32.2974174  48.4909682 123.6374347  32.7973953  48.6026217 122.8288666
  32.9409782  48.1870735 124.2775156  19.6242130  58.2316692 124.4464007
  19.6012818  58.3304379 123.4945891  19.9342766  59.0781842 124.7681174
  22.2829508  60.2892847 128.5610622  23.2372761  60.2576789 128.4940553
  22.0842031  59.8283470 129.3760848  22.8728890  58.8593963 131.1281420
  23.6921779  59.3538041 131.1516257  23.1465698  57.9425931 131.0998987
  32.6295486  51.2504715 120.4909375  31.7421341  51.5354366 120.2729570
  33.0449475  51.0898478 119.6436652  35.9810022  51.2751236 124.2063714
  36.7570412  51.7647688 124.4788331  35.2558156  51.7009290 124.6635584
  38.4182581  51.9878855 125.2637655  39.0127072  51.7474591 124.5530963
  38.4909164  51.2685986 125.8911191  20.6379736  65.8312466 125.5780820
  20.5034204  65.0712867 125.0118818  20.2211799  66.5553366 125.1109609
  31.7738699  61.0149390 114.5857395  32.4774550  61.2199392 115.2015051
  31.0501348  61.5826151 114.8506479  32.6036510  56.7659251 120.7059665
  32.5471711  57.2227802 119.8667298  33.1564852  56.0049935 120.5282508
  36.4141316  52.5548983 121.5309785  36.1578250  52.1545618 122.3617992
  35.7894184  53.2692777 121.4059924  40.7253654  55.2945056 124.0381076
  40.1653212  55.3638245 124.8112638  40.1197157  55.1186041 123.3180572
  23.7948862  66.7281783 125.7899262  23.6781247  67.6727216 125.6877953
  22.9741309  66.4255345 126.1785062  33.6825397  61.4531919 116.6355855
  34.5171001  61.0213117 116.4533330  33.5209740  61.2813932 117.5632750
  33.3371289  57.9564032 118.0012194  33.2820093  57.7908304 117.0600639
  32.7117344  58.6640065 118.1574384  26.6467415  47.4572141 117.5797513
  26.6346084  48.4013981 117.7365784  27.5390836  47.2742286 117.2856974
  24.8203376  67.3810045 129.0055191  25.7230623  67.4133655 129.3221686
  24.5940747  66.4510496 129.0201527  26.5756979  66.1341031 125.6665269
  25.6252610  66.1342893 125.5529642  26.8789465  65.3873766 125.1501304
  30.4619534  44.0514918 121.8343450  29.6951930  43.4973404 121.9800132
  30.8730239  44.1236786 122.6957601  42.3109672  71.9701570 126.7311032
  42.9488082  71.8508317 126.0274372  42.1930515  72.9182414 126.7898984
  39.1199378  71.9228998 126.6672557  38.7817890  71.8070063 125.7793091
  39.9889146  71.5220163 126.6473563  34.9786194  73.7764474 122.6569447
  34.4151059  73.6854411 121.8885735  34.8638589  72.9564379 123.1371940
  39.6019161  73.0763850 132.6258762  39.5907802  72.6816648 131.7539266
  39.7639801  72.3429922 133.2192534  32.5250626  75.2715666 125.4953668
  33.3171918  74.9306491 125.0799967  32.7647276  75.3810641 126.4155821
  40.5585753  77.4435442 117.9683912  39.9073732  78.0289523 117.5817926
  41.3530115  77.9741637 118.0278950  34.4841380  74.5324579 118.3671047
  35.2572256  73.9853566 118.2283923  34.8366779  75.3968829 118.5785508
  36.3226422  75.8600962 131.5737946  36.0316288  76.7646592 131.4584612
  36.9583407  75.9017489 132.2882016  37.2482629  73.2377810 128.1639306
  37.8446202  73.0133832 127.4496269  37.3057601  72.4962556 128.7664754
  36.8207658  70.6917245 115.9989497  37.0733178  70.1698767 115.2372960
  35.8832217  70.5283391 116.1016180  41.8650940  69.6953024 123.8064240
  42.6514030  69.2772447 123.4554657  42.1289645  70.5999116 123.9745888
  42.0361018  75.1325874 118.5052897  41.4006851  75.2060501 119.2173801
  41.7058424  75.7219473 117.8271976  47.2659368  69.6328257 124.7097218
  47.9984540  69.0627474 124.9435048  46.5098723  69.2449857 125.1503724
  36.5403946  72.5945351 118.2013872  36.4240204  71.9190255 118.8694956
  36.6506206  72.1077725 117.3846025  38.8835487  72.0555498 121.9060561
  38.5193695  71.5286119 122.6173482  39.7402603  71.6653967 121.7327046
  44.7884788  63.3449831 129.1691827  44.4568113  64.2145242 128.9453042
  44.1930401  63.0286115 129.8485857  38.5240974  67.0845398 116.9021909
  38.6915377  67.9525635 117.2692380  38.3338143  67.2472680 115.9783199
  41.2816307  75.5462377 128.5687740  40.9817031  76.4487416 128.4603547
  40.9367367  75.2794560 129.4208893  34.7328789  71.9976174 124.6024444
  33.8079285  71.8652388 124.8102136  34.9813202  72.7770393 125.0994387
  44.6813451  68.0644917 126.2485177  43.7730329  67.9960326 125.9543938
  44.6301047  68.5416862 127.0767003  38.5030195  69.5403056 117.8868576
  38.3829820  69.9860106 118.7254056  37.8082784  69.8888373 117.3282114
  32.0937600  71.6409447 125.4368233  32.2229981  71.8943926 126.3507645
  31.4135051  72.2337155 125.1172888  36.2637087  82.3106697 121.5358707
  36.1861117  83.2614522 121.6147188  35.6598731  81.9652570 122.1933634
  38.7554317  69.4834563 134.1920074  37.9787651  70.0428483 134.1822939
  39.3944880  69.9691346 134.7134944  46.5475098  66.2661356 128.0263051
  45.9049478  66.5593889 127.3802846  46.0430026  66.1514276 128.8316248
  44.2015261  70.0124529 118.7148910  45.1133117  70.2451916 118.5396608
  43.6924908  70.5961573 118.1523989  37.0100689  72.2920016 133.7538041
  37.7515374  72.8305060 133.4772865  36.3037675  72.9186305 133.9109593
  42.4856029  74.4349157 132.3510203  42.8939385  73.9931567 131.6064835
  41.7633291  73.8601784 132.6044396  38.8387099  69.3721763 129.7243760
  39.6848294  69.7961177 129.8678409  38.7785737  68.7155388 130.4182323
  42.8084844  74.9950347 126.1062492  42.1793706  75.1596061 125.4038560
  42.4210506  75.4091957 126.8773456  46.6874076  75.9304785 123.4606855
  46.0025114  76.3103686 122.9103889  46.7717925  76.5400112 124.1938803
  41.9886544  67.0326132 131.3824933  41.7447476  67.7868192 130.8459209
  42.2646475  67.4111479 132.2172180  43.9425007  73.5764744 130.0602199
  44.1541902  74.2196504 129.3836580  43.8954755  72.7427061 129.5924129
  41.5451236  66.1882565 126.9638771  40.6835715  66.4863818 127.2555509
  41.5713671  66.4052964 126.0319804  38.3612806  74.7324755 123.3712577
  38.8251151  75.0112458 122.5817199  38.0969604  73.8308200 123.1885667
  35.2536887  74.2796237 126.3092340  35.8238244  74.7083505 125.6709825
  35.8444998  73.9978822 127.0076526  37.2981692  70.8547908 120.1802142
  38.0005735  71.3068951 120.6476068  36.9662320  70.2131727 120.8082035
  35.7462053  69.4459664 134.5553351  35.1160714  70.1275945 134.7888748
  35.6398141  69.3342746 133.6106490  31.0407026  69.1131460 125.4819276
  30.2506080  69.3688989 125.0059386  31.5318273  69.9279798 125.5871316
  45.0570835  76.4536700 128.2324556  45.8788279  76.0516887 127.9507238
  45.0533238  76.3504934 129.1840672  32.9921771  69.4776040 122.4402752
  32.1952934  69.5894734 122.9586248  32.7647363  69.8162692 121.5743643
  38.8227439  76.0020743 130.3885267  38.8871871  76.4641150 131.2243439
  38.1138362  75.3718108 130.5167577  29.3244729  69.3661951 127.9134266
  29.5752767  70.2508961 128.1791842  29.8604277  69.1866552 127.1409358
  53.1476828  72.7975448 124.5809528  52.3940537  72.2282846 124.4253532
  53.2824369  72.7638113 125.5280162  38.5375456  77.6688850 120.2564247
  38.4021131  78.5140386 120.6849095  39.0785269  77.8708128 119.4930181
  35.0242796  63.7480430 136.9178602  34.6309741  63.1946629 137.5926247
  35.8408936  64.0591009 137.3085120  31.9904854  75.1864288 120.8292172
  32.5029374  75.9807539 120.9797737  32.6427566  74.4890579 120.7625774
  33.7999738  78.3030045 122.9114925  33.9766367  79.2248009 122.7235909
  34.5956572  77.9888464 123.3409305  37.9410757  65.1638309 134.5098859
  38.6820470  65.7645462 134.4303321  38.1728680  64.4215947 133.9516902
  33.0852095  70.3494677 132.7877089  32.9705610  69.4479934 133.0884188
  32.2296613  70.5958373 132.4361905  40.1643933  78.2912417 134.3864589
  39.7207787  77.5048795 134.0685494  40.8261146  78.4791567 133.7208480
  34.9231054  79.8208218 128.9125268  35.4738479  79.6925282 128.1402262
  34.0842530  80.1203107 128.5620161  42.2625171  78.5715217 132.4145991
  42.2443646  79.3924098 131.9226260  43.1845091  78.4469292 132.6396132
  38.7198225  76.0859346 133.2569499  39.2526562  75.3247634 133.0268807
  38.1912306  75.7932998 133.9993653  41.8867920  61.1919412 128.7863141
  41.5432189  62.0821054 128.7102251  42.2546882  61.0021070 127.9232726
  29.9553770  73.5152943 121.6051743  30.7928992  73.9249951 121.3885450
  30.1332038  72.5752385 121.5751937  41.8518202  71.1828023 117.2935576
  41.3364826  71.9532628 117.5323963  41.5795511  70.5093159 117.9168637
  39.4365314  66.0277724 122.3520814  38.5806910  65.6384574 122.1726453
  39.8492265  66.1069685 121.4920600  40.9664460  63.5624067 126.7512374
  40.4629256  63.5254203 125.9380179  41.2595067  64.4716810 126.8109031
  37.2107346  63.6462797 125.7578556  38.0760343  63.4505606 125.3984445
  37.2784855  63.4173149 126.6847912  46.8252477  73.9360378 119.2288749
  46.0481919  73.5971537 118.7843911  47.5043958  73.9413001 118.5543714
  41.6404506  69.0555115 119.1195357  41.3354641  69.3701265 119.9705500
  42.5934948  69.1336535 119.1622690  40.0850938  75.2145339 120.7688311
  39.5572299  74.4798098 120.4561548  39.5838440  75.9920015 120.5228279
  45.0643784  73.4094359 125.8855357  44.4067458  74.0993621 125.9735486
  45.8684183  73.7990791 126.2289344  34.8169665  65.8765005 123.1294922
  35.3913417  65.6540187 122.3968115  35.4040648  65.9453700 123.8823524
  43.8749242  71.7638732 123.9359299  44.3881124  72.3968724 124.4381009
  44.5250466  71.1639927 123.5702659  35.1439252  67.9069466 117.1490808
  34.3076564  68.2444153 117.4700082  35.0044022  67.7718446 116.2117945
  37.1192333  62.7506254 121.8569992  36.4656745  62.4355271 121.2326607
  37.0772807  62.1281994 122.5829815  38.2303538  73.0325549 113.7723284
  37.3230599  72.8014802 113.9714433  38.7274570  72.2363168 113.9597265
  41.1371617  81.7423056 116.6919970  40.4633315  82.0454753 117.3004928
  41.5237439  82.5452137 116.3425427  40.3530073  69.2388187 126.1817639
  39.4352635  69.4603134 126.0239328  40.7690217  69.3134498 125.3229347
  41.1365121  70.6379603 121.3120320  41.8836940  71.1501000 121.0027442
  41.4056711  70.3163656 122.1724713  39.4091771  73.1338144 118.2947274
  38.5002990  72.8497177 118.3919744  39.4386855  73.5537222 117.4350581
  44.6411039  76.7444733 122.0638442  44.1873366  75.9035643 122.1203632
  44.0105005  77.3806132 122.4013222  43.5843958  67.6736719 123.2939109
  42.8466715  67.1614106 123.6249352  43.8370732  67.2337101 122.4822386
  43.0843978  78.5821230 122.9988260  43.3766952  79.1426287 122.2800625
  43.5942598  78.8749791 123.7541419  43.6855585  60.4512971 123.8880878
  43.9914462  59.5910335 123.6006793  44.4108190  61.0430592 123.6879872
  29.9779942  70.8543658 122.2762476  29.7804341  70.2613019 121.5513543
  29.4226606  70.5495868 122.9938415  37.9576665  70.7466764 124.3957069
  38.0125275  69.7940601 124.3199546  37.1467867  70.9026204 124.8798368
  39.1067859  74.6746888 115.6335353  38.6687289  73.9582746 115.1740990
  39.8478300  74.9023002 115.0720444  35.8969025  69.3643824 122.1547448
  35.0836891  69.6637995 122.5612640  36.3928019  68.9699513 122.8721930
  38.0477603  79.3601581 124.0881713  38.0053782  79.5862427 123.1590245
  38.9640302  79.1264956 124.2367514  41.4943237  69.8285649 130.9862342
  41.8492624  70.0557122 131.8456808  42.1415368  70.1604025 130.3639597
  47.2240974  72.9504085 121.6911671  47.0858872  73.1405681 120.7632860
  46.8677193  73.7123467 122.1479722  35.3883100  66.9362180 127.7708683
  36.0282479  66.7950939 127.0731647  34.5560630  66.6496693 127.3947285
  47.2510353  75.0180612 126.7022943  47.6846860  74.9255901 127.5505997
  47.9641934  74.9938112 126.0642959  36.1643404  76.2364610 123.8843676
  36.9584002  75.7414930 123.6826251  35.4535096  75.7082473 123.5211381
  40.9838248  78.6182706 128.2356043  41.0375271  79.1873642 129.0033759
  40.1153030  78.7884591 127.8710080  32.4726167  70.3807692 119.9603428
  31.5423755  70.3192147 120.1773390  32.5683639  69.8583645 119.1640070
  32.3911716  66.9062505 122.5481670  32.6518534  67.8207838 122.4390830
  33.2128889  66.4386947 122.6978283  33.8636642  68.3200262 129.7180495
  34.5359695  68.1117624 129.0693143  33.0366428  68.1222348 129.2785727
  48.1125903  75.0604312 129.2355828  48.3061793  75.9650123 129.4815103
  48.0126521  74.6011731 130.0694413  39.7662214  64.9462203 131.7346155
  39.1190129  65.6452152 131.6410632  40.5363229  65.3798347 132.1022404
  43.1741012  75.2111055 134.8096709  43.0226518  74.9821607 133.8926792
  43.1645691  76.1681656 134.8228054  39.9426348  72.7842968 129.7942975
  40.8718408  72.9354127 129.6211942  39.5217378  72.8726989 128.9391622
  38.7414680  76.8093632 127.5641513  38.6025765  76.4412417 128.4367451
  37.9529276  77.3241272 127.3925471  39.3362832  81.9102729 118.9067049
  39.5114587  81.4390772 119.7212672  38.6495620  82.5368495 119.1348310
  40.2919895  76.1875235 124.9530351  39.9569728  76.1476005 125.8488000
  39.7923841  75.5219951 124.4800761  34.2664139  71.5942865 130.4782932
  34.1283937  70.8623104 131.0794471  35.1769062  71.5051765 130.1967119
  43.2279087  73.5331269 115.2267410  42.6108257  72.8078097 115.1300463
  42.7595575  74.2940629 114.8834484  36.8946440  71.3062824 129.9666611
  37.6046058  70.6656016 129.9253230  36.8515748  71.5575719 130.8892792
  44.8833218  78.2430178 132.8873191  44.8245764  77.5589398 132.2203774
  45.2852737  78.9849168 132.4353817  35.6075374  68.2928042 131.7862251
  35.0712731  67.8418781 132.4383847  35.0192082  68.4273951 131.0432715
  33.9023917  85.0592091 125.6806909  34.1420515  85.6910616 126.3585928
  33.0593113  84.7080131 125.9672269  35.0177632  67.7516693 114.3488714
  34.1407099  67.6305494 113.9850961  35.4935386  66.9602772 114.0967603
  44.8850625  76.2069761 131.1187170  43.9977404  75.8695683 131.2413569
  45.4549177  75.4752793 131.3555936  26.5379773  72.5393853 124.4430222
  27.2250812  72.2255583 123.8551237  26.3827901  73.4435218 124.1697473
  31.3414495  67.4284050 128.8715245  31.2572683  66.8209719 128.1365655
  30.5197201  67.9193068 128.8724742  38.4151779  80.8671214 128.0848413
  38.3421950  81.6726185 128.5967718  37.9729172  81.0663180 127.2596435
  38.2041558  80.1042984 121.5951235  37.4209080  80.6464664 121.6889459
  38.9034304  80.6216963 121.9945476  41.5138209  65.9137613 124.2385440
  42.0106908  65.1607576 123.9186511  40.7425190  65.9501930 123.6728650
  49.3667966  71.6177979 125.8803732  49.3557842  72.5002694 125.5097665
  48.4985345  71.2649530 125.6858269  40.8750462  80.7658048 130.2406572
  41.5878435  81.4005513 130.1682474  40.3840491  80.8621914 129.4246574
  42.5967989  74.6709301 121.8123864  41.6624268  74.7910763 121.6428568
  42.7744658  73.7681767 121.5483874  38.0973177  68.0554996 123.9657125
  37.7270965  67.5026037 124.6538031  38.5932270  67.4513130 123.4132125
  45.9840541  70.5126620 122.3473898  46.4500993  71.3454611 122.2734201
  46.4348041  70.0471601 123.0519156  35.9262376  78.5152491 131.0612143
  36.6271835  79.1488974 131.2141537  35.4557491  78.8567223 130.3007782
  44.0516772  76.8570441 119.3460050  44.3276616  76.7427036 120.2553924
  43.1821270  76.4587926 119.3072223  43.9557203  62.8807207 126.3864799
  43.0420283  63.1111434 126.5547006  44.3850305  62.9645651 127.2378832
  43.7263662  71.0697099 128.8864693  43.0735112  71.3173006 128.2317146
  44.1044042  70.2561237 128.5527171  40.6870836  81.1056792 122.9892864
  40.8693230  80.2878448 123.4520616  41.5103822  81.3224484 122.5517754
  41.0213001  80.0324977 120.2507912  41.5500768  79.5217432 119.6378074
  41.2841221  79.7167507 121.1153445  39.7751235  71.8116910 135.3730730
  39.0991872  71.7111039 136.0433106  40.5978869  71.6556124 135.8366728
  31.5230094  78.0488846 127.9943246  32.1083531  77.3032534 128.1271150
  31.3254932  78.3592803 128.8779909  34.3768749  81.0840094 123.0105688
  33.7079124  81.5686221 122.5269728  34.2381619  81.3309314 123.9249067
  26.1147749  70.6194447 126.7147689  26.1531848  70.0858037 127.5084807
  25.6088042  70.0929652 126.0958666  38.5174018  83.1183837 129.6088346
  39.0692326  83.2815459 130.3737432  38.8580211  83.7088275 128.9368371
  33.4938511  65.4658987 130.2110231  33.5579838  66.3273818 129.7987629
  33.4305631  64.8532989 129.4782590  32.9690784  67.5382120 133.8583265
  33.5962822  67.1559197 134.4720790  32.1118702  67.3196322 134.2238958
  43.3684892  77.9445095 135.4637001  43.9124796  78.5575053 134.9691956
  42.7871737  78.5024673 135.9804014  29.7456326  69.3458549 119.7901620
  30.0409767  68.4369227 119.7368674  28.8444362  69.3246288 119.4682622
  41.6542405  81.0665813 126.5952029  41.5293545  80.2655553 126.0862974
  42.3121496  81.5612006 126.1065998  33.2750573  67.4214545 125.7729169
  32.5537159  68.0350513 125.6336642  34.0643829  67.9572310 125.6945815
  43.7177313  78.8674833 128.2231579  42.7707649  78.7480184 128.1509905
  44.0660087  77.9797331 128.3057840  36.0776887  64.7568972 132.0469820
  36.6011289  65.0031268 132.8096130  35.8589220  65.5889007 131.6272958
  31.4744168  67.0272646 119.9140945  31.1456874  66.1470025 119.7316051
  31.8283539  66.9720315 120.8017335  40.7223747  78.6627549 124.4235931
  40.5748709  77.7344257 124.6043501  41.5477240  78.6847640 123.9393006
  34.5885991  67.3145616 120.2816423  34.9282064  67.8431537 119.5595031
  35.0358112  67.6526022 121.0574990  44.3257869  79.4856108 125.5100804
  45.2504416  79.2798969 125.3725255  44.1573172  79.2372509 126.4190145
  37.2829432  65.6982667 129.7319491  36.9426252  64.8990480 130.1340171
  36.5768438  65.9984378 129.1596324  37.9345904  62.7831979 128.1846814
  38.7571973  62.3092458 128.0625704  38.1783967  63.5622463 128.6845500
  36.5754138  65.8120238 118.4809716  37.2962501  66.1901491 117.9773433
  35.9519442  66.5309115 118.5844694  40.7185261  66.5165387 119.4168048
  40.9348875  67.3990025 119.1156876  40.2379328  66.1251600 118.6873690
  35.4584482  69.4751100 125.9938793  35.3129063  69.7891403 126.8863074
  34.9809686  70.0936000 125.4409691  37.3180865  66.4653648 126.0419682
  37.3042434  65.5694741 125.7051980  38.0353293  66.4724312 126.6757968
  39.1706996  66.8990988 128.0872810  38.9124774  67.8208059 128.0857140
  38.6392036  66.5021423 128.7773274  44.1153185  80.0041775 120.8662895
  44.2890062  79.4388198 120.1136747  44.6082076  80.8042670 120.6842385
  29.9330145  72.0156444 128.9326454  29.3883613  72.7916252 129.0646728
  30.8109494  72.3627249 128.7745575  36.7217761  65.3468028 121.3107252
  36.8433672  64.4184674 121.5098140  36.4319804  65.3606714 120.3985568
  39.5908952  63.0322939 124.4473972  39.6130648  63.0962272 123.4925952
  40.0077011  62.1927447 124.6414478  49.9692576  72.7678198 122.4853195
  50.4123722  72.0185523 122.0872318  49.0919086  72.7588335 122.1026927
  45.1028357  79.3208540 117.9659793  45.7979262  79.9415232 118.1847108
  45.4451507  78.4703891 118.2412171  30.7196166  71.1426341 131.8256611
  29.9777903  71.2908976 132.4121241  30.3988911  71.4034606 130.9623360
  47.0019780  76.7708245 119.4947124  47.5271105  77.1095518 118.7696444
  46.9142133  75.8355261 119.3110259  38.6639829  80.6842319 131.6237001
  38.9726956  80.4391466 132.4959700  39.4615311  80.8888957 131.1355871
  38.6860441  82.8380228 123.8542377  38.2465431  82.3456607 124.5475234
  39.4368558  82.2953196 123.6134452  31.1652780  79.0291769 123.8567005
  31.9910800  78.7295541 123.4765649  30.8146832  78.2599392 124.3056794
  36.1334313  78.3818238 125.9264679  35.5114323  77.7188943 125.6266907
  36.8039180  78.4079369 125.2438327  29.3661385  76.9478096 124.8155939
  28.5293294  76.5200270 124.6339940  29.3385031  77.1410539 125.7526730
  36.2058841  66.8600026 135.5197185  36.2546996  67.7362148 135.1374955
  36.7481355  66.3177419 134.9468828  46.6913686  77.4041149 134.7998322
  45.9009230  77.3865288 134.2602821  46.4547041  77.9429443 135.5547359
  46.8111562  74.2533615 132.1131051  46.8609566  74.0883623 133.0546573
  46.7025485  73.3860874 131.7228931  35.6947820  76.9322161 119.4023139
  35.8435941  77.6157625 118.7489812  36.5014264  76.9127251 119.9172595
  44.1015324  70.2364543 133.4290357  45.0025187  70.0971008 133.1374355
  44.1763298  70.4018998 134.3688535  38.4358129  67.6131398 132.2743544
  37.5661439  67.9064964 132.0026132  38.6717610  68.1971843 132.9950807
  48.3129758  76.6730557 132.3573072  48.0214567  77.0360537 133.1936533
  47.7001890  75.9597565 132.1786404  49.5125441  74.2383437 124.8775642
  50.3472332  74.6773241 125.0413203  49.6484569  73.7622090 124.0583888
  46.5616947  71.7963171 130.8253130  47.0371068  71.9890818 130.0171981
  45.6382512  71.8522357 130.5796514  33.4500453  72.9587339 120.4084208
  33.2046495  72.0549669 120.6064419  33.6196368  72.9604489 119.4663686
  41.1397163  63.8311015 129.7908964  41.6579107  64.5672042 129.4655453
  40.7852296  64.1375008 130.6255723  32.7196101  68.6915696 117.9070370
  32.0265346  68.7660051 117.2510406  32.4747853  67.9276040 118.4291887
  41.3909757  60.2511297 125.3109861  41.6711511  59.5834487 125.9370287
  42.1760364  60.4440393 124.7984524  39.1943226  79.4270291 116.8734887
  38.6217193  80.0460479 116.4205359  39.7676019  79.9769653 117.4074809
  45.2618616  68.6728931 129.0581436  46.2136038  68.7727029 129.0793660
  45.0922066  67.8807200 129.5679520  43.2832995  65.7584515 129.2440837
  42.6882927  66.0389527 128.5487325  42.9982692  66.2478416 130.0157578
  42.4140486  79.7107442 118.0043469  43.3471159  79.6453003 118.2076345
  42.3263698  80.5463708 117.5458002  45.0428502  79.0273312 114.9647417
  44.9642134  78.6933175 115.8583175  45.8638169  79.5195080 114.9638889
  47.7406693  71.8935051 128.1723735  47.7083013  70.9551052 128.3583419
  48.3507317  71.9719088 127.4389560  39.5790024  70.7631104 114.2150939
  40.5249129  70.6337312 114.2839357  39.2004269  70.0245766 114.6920368
  47.8901182  68.6846095 128.2182019  47.3740231  67.9004551 128.0311947
  48.7741130  68.3564811 128.3828538  45.5511909  62.4287110 124.1777831
  45.3536730  62.1202198 125.0621163  46.1611614  63.1548749 124.3075761
  53.5583243  72.9551058 127.3129772  54.2886632  72.6936346 127.8737475
  52.9490189  72.2179780 127.3531840  51.6398540  71.0958921 127.9104223
  50.9131704  70.9614886 127.3020715  51.2245827  71.4035749 128.7160941
  39.4628717  74.8148850 135.6751596  40.3831726  74.9927449 135.8691643
  39.4278300  73.8704896 135.5231296  37.7632941  68.6881081 114.1505825
  36.8564397  68.3914193 114.2268538  38.0408922  68.3910899 113.2840111
  28.6810882  70.0087444 124.6004871  28.3613666  69.1552752 124.3079245
  28.1344310  70.2236022 125.3562838  32.4590789  72.7249885 128.3174378
  32.6776799  73.6566993 128.3362411  32.8716563  72.3657859 129.1029181
  39.3795007  63.2317970 120.3050066  38.5695735  62.8865055 120.6805312
  40.0679424  62.9225514 120.8937677  41.3085555  62.3096017 121.9274363
  41.8616594  62.7291470 122.5864386  41.5455642  61.3831765 121.9697319
  37.3318655  68.2983091 137.7077126  37.2315382  69.2477448 137.6389218
  37.1140197  67.9701330 136.8353197  36.5331726  65.5468016 114.2917804
  37.3950890  65.8722914 114.5513621  36.7182070  64.7599512 113.7790870
  28.5499142  73.6290355 126.5697993  27.8562613  73.2144308 126.0567947
  29.2972133  73.6710892 125.9731411  44.6864362  64.4196542 121.4353027
  44.1063032  65.0781346 121.0531079  44.4200295  63.5973887 121.0240444
  43.1367929  63.8201600 123.6374347  43.6367707  63.9318134 122.8288666
  43.7803537  63.5162653 124.2775156  37.1949925  71.7280230 136.5242188
  36.7117006  72.5280590 136.7306077  37.2810864  71.7388174 135.5709632
  30.4635884  73.5608609 124.4464007  30.4406572  73.6596296 123.4945891
  30.7736521  74.4073760 124.7681174  33.1223262  75.6184764 128.5610622
  34.0766516  75.5868707 128.4940553  32.9235786  75.1575388 129.3760848
  33.7122644  74.1885880 131.1281420  34.5315533  74.6829959 131.1516257
  33.9859452  73.2717848 131.0998987  43.4689241  66.5796633 120.4909375
  42.5815096  66.8646283 120.2729570  43.8843230  66.4190396 119.6436652
  46.8203777  66.6043154 124.2063714  47.5964167  67.0939606 124.4788331
  46.0951911  67.0301208 124.6635584  49.2576335  67.3170773 125.2637655
  49.8520826  67.0766509 124.5530963  49.3302919  66.5977903 125.8911191
  31.4773491  81.1604384 125.5780820  31.3427959  80.4004785 125.0118818
  31.0605553  81.8845284 125.1109609  42.6132454  76.3441307 114.5857395
  43.3168304  76.5491310 115.2015051  41.8895103  76.9118069 114.8506479
  43.4430264  72.0951169 120.7059665  43.3865466  72.5519720 119.8667298
  43.9958607  71.3341853 120.5282508  47.2535070  67.8840900 121.5309785
  46.9972004  67.4837536 122.3617992  46.6287938  68.5984694 121.4059924
  51.5647408  70.6236974 124.0381076  51.0046966  70.6930163 124.8112638
  50.9590911  70.4477958 123.3180572  34.6342617  82.0573701 125.7899262
  34.5175001  83.0019133 125.6877953  33.8135063  81.7547262 126.1785062
  44.5219151  76.7823836 116.6355855  45.3564755  76.3505035 116.4533330
  44.3603494  76.6105850 117.5632750  44.1765044  73.2855950 118.0012194
  44.1213847  73.1200221 117.0600639  43.5511099  73.9931983 118.1574384
  28.9657559  68.5224014 131.8273617  29.6116422  68.0122968 132.3160842
  28.7574710  69.2592696 132.4017042  41.4910951  75.5904862 137.3265757
  42.3602110  75.7645514 136.9652392  41.0117702  76.4099278 137.2041487
  37.4861169  62.7864059 117.5797513  37.4739839  63.7305899 117.7365784
  38.3784591  62.6034204 117.2856974  35.6597131  82.7101963 129.0055191
  36.5624378  82.7425573 129.3221686  35.4334501  81.7802414 129.0201527
  37.4150733  81.4632949 125.6665269  36.4646364  81.4634811 125.5529642
  37.7183219  80.7165684 125.1501304  41.3013288  59.3806835 121.8343450
  40.5345684  58.8265322 121.9800132  41.7123993  59.4528704 122.6957601
  33.3055050  65.6691631 135.9248631  34.1686511  65.3128436 136.1351955
  32.7320460  65.3305526 136.6124035  53.1503426  87.2993488 126.7311032
  53.7881836  87.1800235 126.0274372  53.0324269  88.2474332 126.7898984
  49.9593133  87.2520916 126.6672557  49.6211644  87.1361980 125.7793091
  50.8282901  86.8512081 126.6473563  45.8179948  89.1056392 122.6569447
  45.2544814  89.0146329 121.8885735  45.7032344  88.2856297 123.1371940
  50.4412916  88.4055767 132.6258762  50.4301557  88.0108566 131.7539266
  50.6033555  87.6721840 133.2192534  43.3644380  90.6007584 125.4953668
  44.1565672  90.2598408 125.0799967  43.6041031  90.7102559 126.4155821
  51.3979507  92.7727360 117.9683912  50.7467487  93.3581440 117.5817926
  52.1923870  93.3033555 118.0278950  45.3235134  89.8616497 118.3671047
  46.0966010  89.3145484 118.2283923  45.6760533  90.7260746 118.5785508
  47.1620177  91.1892879 131.5737946  46.8710043  92.0938510 131.4584612
  47.7977161  91.2309407 132.2882016  48.0876384  88.5669728 128.1639306
  48.6839956  88.3425750 127.4496269  48.1451355  87.8254473 128.7664754
  47.6601412  86.0209163 115.9989497  47.9126933  85.4990684 115.2372960
  46.7225971  85.8575308 116.1016180  52.7044695  85.0244941 123.8064240
  53.4907784  84.6064365 123.4554657  52.9683399  85.9291034 123.9745888
  52.8754772  90.4617792 118.5052897  52.2400605  90.5352418 119.2173801
  52.5452179  91.0511391 117.8271976  58.1053122  84.9620175 124.7097218
  58.8378294  84.3919391 124.9435048  57.3492478  84.5741775 125.1503724
  47.3797701  87.9237269 118.2013872  47.2633959  87.2482172 118.8694956
  47.4899961  87.4369643 117.3846025  49.7229242  87.3847416 121.9060561
  49.3587449  86.8578037 122.6173482  50.5796358  86.9945885 121.7327046
  55.6278542  78.6741749 129.1691827  55.2961867  79.5437160 128.9453042
  55.0324156  78.3578033 129.8485857  49.3634729  82.4137316 116.9021909
  49.5309131  83.2817552 117.2692380  49.1731898  82.5764598 115.9783199
  52.1210062  90.8754295 128.5687740  51.8210785  91.7779334 128.4603547
  51.7761121  90.6086478 129.4208893  45.5722543  87.3268092 124.6024444
  44.6473040  87.1944306 124.8102136  45.8206957  88.1062311 125.0994387
  55.5207206  83.3936835 126.2485177  54.6124083  83.3252243 125.9543938
  55.4694802  83.8708780 127.0767003  49.3423950  84.8694973 117.8868576
  49.2223575  85.3152024 118.7254056  48.6476538  85.2180291 117.3282114
  42.9331354  86.9701365 125.4368233  43.0623736  87.2235844 126.3507645
  42.2528806  87.5629073 125.1172888  47.1030842  97.6398615 121.5358707
  47.0254871  98.5906440 121.6147188  46.4992485  97.2944488 122.1933634
  49.5948072  84.8126480 134.1920074  48.8181406  85.3720401 134.1822939
  50.2338635  85.2983263 134.7134944  57.3868852  81.5953273 128.0263051
  56.7443232  81.8885806 127.3802846  56.8823781  81.4806194 128.8316248
  55.0409016  85.3416446 118.7148910  55.9526872  85.5743833 118.5396608
  54.5318663  85.9253491 118.1523989  47.8494444  87.6211934 133.7538041
  48.5909128  88.1596978 133.4772865  47.1431429  88.2478223 133.9109593
  53.3249783  89.7641074 132.3510203  53.7333140  89.3223485 131.6064835
  52.6027045  89.1893702 132.6044396  49.6780854  84.7013681 129.7243760
  50.5242049  85.1253095 129.8678409  49.6179491  84.0447305 130.4182323
  53.6478598  90.3242265 126.1062492  53.0187461  90.4887979 125.4038560
  53.2604260  90.7383874 126.8773456  57.5267830  91.2596703 123.4606855
  56.8418868  91.6395604 122.9103889  57.6111679  91.8692029 124.1938803
  52.8280299  82.3618049 131.3824933  52.5841231  83.1160110 130.8459209
  53.1040229  82.7403397 132.2172180  54.7818762  88.9056662 130.0602199
  54.9935657  89.5488422 129.3836580  54.7348510  88.0718978 129.5924129
  52.3844991  81.5174482 126.9638771  51.5229470  81.8155736 127.2555509
  52.4107425  81.7344881 126.0319804  49.2006560  90.0616673 123.3712577
  49.6644906  90.3404376 122.5817199  48.9363358  89.1600118 123.1885667
  46.0930641  89.6088155 126.3092340  46.6631998  90.0375423 125.6709825
  46.6838753  89.3270739 127.0076526  48.1375446  86.1839825 120.1802142
  48.8399489  86.6360869 120.6476068  47.8056075  85.5423644 120.8082035
  46.5855808  84.7751582 134.5553351  45.9554468  85.4567863 134.7888748
  46.4791895  84.6634664 133.6106490  41.8800780  84.4423378 125.4819276
  41.0899834  84.6980907 125.0059386  42.3712027  85.2571716 125.5871316
  55.8964590  91.7828617 128.2324556  56.7182033  91.3808805 127.9507238
  55.8926992  91.6796851 129.1840672  43.8315525  84.8067957 122.4402752
  43.0346689  84.9186652 122.9586248  43.6041118  85.1454610 121.5743643
  49.6621193  91.3312661 130.3885267  49.7265626  91.7933068 131.2243439
  48.9532117  90.7010025 130.5167577  40.1638483  84.6953868 127.9134266
  40.4146521  85.5800878 128.1791842  40.6998031  84.5158470 127.1409358
  63.9870583  88.1267366 124.5809528  63.2334291  87.5574764 124.4253532
  64.1218124  88.0930030 125.5280162  49.3769211  92.9980768 120.2564247
  49.2414885  93.8432304 120.6849095  49.9179023  93.2000046 119.4930181
  45.8636550  79.0772348 136.9178602  45.4703496  78.5238546 137.5926247
  46.6802691  79.3882926 137.3085120  42.8298608  90.5156206 120.8292172
  43.3423129  91.3099456 120.9797737  43.4821321  89.8182496 120.7625774
  44.6393493  93.6321962 122.9114925  44.8160121  94.5539927 122.7235909
  45.4350326  93.3180382 123.3409305  48.7804511  80.4930227 134.5098859
  49.5214225  81.0937380 134.4303321  49.0122434  79.7507865 133.9516902
  43.9245849  85.6786594 132.7877089  43.8099364  84.7771851 133.0884188
  43.0690367  85.9250291 132.4361905  51.0037687  93.6204335 134.3864589
  50.5601541  92.8340713 134.0685494  51.6654901  93.8083485 133.7208480
  45.7624808  95.1500136 128.9125268  46.3132233  95.0217199 128.1402262
  44.9236284  95.4495025 128.5620161  53.1018925  93.9007134 132.4145991
  53.0837400  94.7216015 131.9226260  54.0238845  93.7761210 132.6396132
  49.5591979  91.4151264 133.2569499  50.0920316  90.6539552 133.0268807
  49.0306060  91.1224916 133.9993653  52.7261674  76.5211330 128.7863141
  52.3825944  77.4112972 128.7102251  53.0940637  76.3312988 127.9232726
  40.7947525  88.8444860 121.6051743  41.6322747  89.2541869 121.3885450
  40.9725793  87.9044303 121.5751937  52.6911957  86.5119941 117.2935576
  52.1758580  87.2824546 117.5323963  52.4189265  85.8385077 117.9168637
  50.2759068  81.3569642 122.3520814  49.4200664  80.9676492 122.1726453
  50.6886020  81.4361603 121.4920600  51.8058215  78.8915985 126.7512374
  51.3023010  78.8546120 125.9380179  52.0988822  79.8008728 126.8109031
  48.0501101  78.9754715 125.7578556  48.9154097  78.7797523 125.3984445
  48.1178609  78.7465067 126.6847912  57.6646231  89.2652296 119.2288749
  56.8875674  88.9263455 118.7843911  58.3437712  89.2704919 118.5543714
  52.4798260  84.3847033 119.1195357  52.1748396  84.6993182 119.9705500
  53.4328702  84.4628453 119.1622690  50.9244692  90.5437256 120.7688311
  50.3966054  89.8090016 120.4561548  50.4232195  91.3211933 120.5228279
  55.9037538  88.7386277 125.8855357  55.2461212  89.4285538 125.9735486
  56.7077937  89.1282709 126.2289344  45.6563420  81.2056923 123.1294922
  46.2307172  80.9832104 122.3968115  46.2434402  81.2745617 123.8823524
  54.7142997  87.0930650 123.9359299  55.2274879  87.7260641 124.4381009
  55.3644221  86.4931845 123.5702659  45.9833007  83.2361384 117.1490808
  45.1470319  83.5736070 117.4700082  45.8437776  83.1010364 116.2117945
  47.9586087  78.0798172 121.8569992  47.3050500  77.7647189 121.2326607
  47.9166561  77.4573912 122.5829815  49.0697292  88.3617467 113.7723284
  48.1624354  88.1306720 113.9714433  49.5668324  87.5655086 113.9597265
  51.9765371  97.0714974 116.6919970  51.3027070  97.3746671 117.3004928
  52.3631193  97.8744054 116.3425427  51.1923828  84.5680105 126.1817639
  50.2746389  84.7895052 126.0239328  51.6083971  84.6426416 125.3229347
  51.9758875  85.9671521 121.3120320  52.7230694  86.4792918 121.0027442
  52.2450465  85.6455574 122.1724713  50.2485526  88.4630062 118.2947274
  49.3396745  88.1789094 118.3919744  50.2780609  88.8829140 117.4350581
  55.4804793  92.0736651 122.0638442  55.0267120  91.2327561 122.1203632
  54.8498760  92.7098049 122.4013222  54.4237713  83.0028637 123.2939109
  53.6860469  82.4906023 123.6249352  54.6764486  82.5629019 122.4822386
  53.9237732  93.9113148 122.9988260  54.2160707  94.4718205 122.2800625
  54.4336353  94.2041709 123.7541419  54.5249340  75.7804889 123.8880878
  54.8308217  74.9202253 123.6006793  55.2501945  76.3722509 123.6879872
  40.8173696  86.1835576 122.2762476  40.6198096  85.5904936 121.5513543
  40.2620360  85.8787786 122.9938415  48.7970420  86.0758682 124.3957069
  48.8519029  85.1232519 124.3199546  47.9861622  86.2318121 124.8798368
  49.9461613  90.0038805 115.6335353  49.5081043  89.2874664 115.1740990
  50.6872054  90.2314920 115.0720444  46.7362780  84.6935742 122.1547448
  45.9230645  84.9929912 122.5612640  47.2321774  84.2991431 122.8721930
  48.8871357  94.6893499 124.0881713  48.8447536  94.9154345 123.1590245
  49.8034056  94.4556873 124.2367514  52.3336991  85.1577566 130.9862342
  52.6886379  85.3849039 131.8456808  52.9809122  85.4895943 130.3639597
  58.0634728  88.2796002 121.6911671  57.9252627  88.4697598 120.7632860
  57.7070947  89.0415385 122.1479722  46.2276854  82.2654097 127.7708683
  46.8676234  82.1242857 127.0731647  45.3954385  81.9788611 127.3947285
  58.0904108  90.3472529 126.7022943  58.5240614  90.2547818 127.5505997
  58.8035689  90.3230030 126.0642959  47.0037158  91.5656528 123.8843676
  47.7977757  91.0706848 123.6826251  46.2928851  91.0374391 123.5211381
  51.8232003  93.9474623 128.2356043  51.8769025  94.5165560 129.0033759
  50.9546784  94.1176508 127.8710080  43.3119922  85.7099610 119.9603428
  42.3817510  85.6484065 120.1773390  43.4077394  85.1875562 119.1640070
  43.2305471  82.2354422 122.5481670  43.4912288  83.1499756 122.4390830
  44.0522643  81.7678865 122.6978283  44.7030396  83.6492180 129.7180495
  45.3753450  83.4409542 129.0693143  43.8760183  83.4514266 129.2785727
  58.9519657  90.3896230 129.2355828  59.1455547  91.2942040 129.4815103
  58.8520276  89.9303649 130.0694413  50.6055968  80.2754120 131.7346155
  49.9583883  80.9744070 131.6410632  51.3756984  80.7090264 132.1022404
  54.0134766  90.5402973 134.8096709  53.8620272  90.3113524 133.8926792
  54.0039446  91.4973574 134.8228054  50.7820102  88.1134885 129.7942975
  51.7112162  88.2646045 129.6211942  50.3611132  88.2018906 128.9391622
  49.5808434  92.1385550 127.5641513  49.4419520  91.7704334 128.4367451
  48.7923030  92.6533189 127.3925471  50.1756586  97.2394646 118.9067049
  50.3508342  96.7682689 119.7212672  49.4889374  97.8660412 119.1348310
  51.1313649  91.5167153 124.9530351  50.7963482  91.4767922 125.8488000
  50.6317595  90.8511868 124.4800761  45.1057893  86.9234783 130.4782932
  44.9677691  86.1915021 131.0794471  46.0162817  86.8343683 130.1967119
  54.0672841  88.8623187 115.2267410  53.4502012  88.1370015 115.1300463
  53.5989329  89.6232547 114.8834484  47.7340194  86.6354742 129.9666611
  48.4439813  85.9947934 129.9253230  47.6909502  86.8867637 130.8892792
  55.7226973  93.5722095 132.8873191  55.6639519  92.8881315 132.2203774
  56.1246491  94.3141085 132.4353817  46.4469128  83.6219960 131.7862251
  45.9106485  83.1710698 132.4383847  45.8585836  83.7565869 131.0432715
  44.7417671 100.3884009 125.6806909  44.9814270 101.0202533 126.3585928
  43.8986868 100.0372049 125.9672269  45.8571387  83.0808611 114.3488714
  44.9800853  82.9597412 113.9850961  46.3329140  82.2894689 114.0967603
  55.7244380  91.5361679 131.1187170  54.8371159  91.1987601 131.2413569
  56.2942931  90.8044710 131.3555936  37.3773527  87.8685771 124.4430222
  38.0644567  87.5547501 123.8551237  37.2221656  88.7727136 124.1697473
  42.1808249  82.7575967 128.8715245  42.0966438  82.1501637 128.1365655
  41.3590956  83.2484986 128.8724742  49.2545533  96.1963131 128.0848413
  49.1815705  97.0018103 128.5967718  48.8122926  96.3955097 127.2596435
  49.0435313  95.4334902 121.5951235  48.2602835  95.9756582 121.6889459
  49.7428058  95.9508881 121.9945476  52.3531963  81.2429531 124.2385440
  52.8500663  80.4899493 123.9186511  51.5818945  81.2793848 123.6728650
  60.2061720  86.9469897 125.8803732  60.1951597  87.8294612 125.5097665
  59.3379100  86.5941447 125.6858269  51.7144217  96.0949966 130.2406572
  52.4272189  96.7297430 130.1682474  51.2234246  96.1913832 129.4246574
  53.4361744  90.0001218 121.8123864  52.5018023  90.1202681 121.6428568
  53.6138412  89.0973685 121.5483874  48.9366932  83.3846914 123.9657125
  48.5664719  82.8317954 124.6538031  49.4326024  82.7805047 123.4132125
  56.8234295  85.8418537 122.3473898  57.2894747  86.6746529 122.2734201
  57.2741796  85.3763519 123.0519156  46.7656130  93.8444409 131.0612143
  47.4665590  94.4780892 131.2141537  46.2951245  94.1859141 130.3007782
  54.8910526  92.1862359 119.3460050  55.1670370  92.0718953 120.2553924
  54.0215025  91.7879844 119.3072223  54.7950958  78.2099124 126.3864799
  53.8814038  78.4403351 126.5547006  55.2244059  78.2937569 127.2378832
  54.5657416  86.3989016 128.8864693  53.9128867  86.6464924 128.2317146
  54.9437796  85.5853155 128.5527171  51.5264590  96.4348710 122.9892864
  51.7086985  95.6170366 123.4520616  52.3497576  96.6516402 122.5517754
  51.8606756  95.3616895 120.2507912  52.3894522  94.8509349 119.6378074
  52.1234975  95.0459425 121.1153445  50.6144989  87.1408827 135.3730730
  49.9385626  87.0402957 136.0433106  51.4372623  86.9848041 135.8366728
  42.3623848  93.3780764 127.9943246  42.9477285  92.6324452 128.1271150
  42.1648687  93.6884721 128.8779909  45.2162504  96.4132011 123.0105688
  44.5472879  96.8978139 122.5269728  45.0775373  96.6601232 123.9249067
  36.9541503  85.9486364 126.7147689  36.9925603  85.4149955 127.5084807
  36.4481796  85.4221570 126.0958666  49.3567772  98.4475755 129.6088346
  49.9086080  98.6107376 130.3737432  49.6973966  99.0380193 128.9368371
  44.3332266  80.7950905 130.2110231  44.3973592  81.6565736 129.7987629
  44.2699386  80.1824906 129.4782590  43.8084538  82.8674037 133.8583265
  44.4356577  82.4851115 134.4720790  42.9512457  82.6488239 134.2238958
  54.2078647  93.2737012 135.4637001  54.7518551  93.8866971 134.9691956
  53.6265491  93.8316591 135.9804014  40.5850081  84.6750466 119.7901620
  40.8803522  83.7661145 119.7368674  39.6838117  84.6538206 119.4682622
  52.4936160  96.3957730 126.5952029  52.3687299  95.5947470 126.0862974
  53.1515251  96.8903924 126.1065998  44.1144328  82.7506463 125.7729169
  43.3930914  83.3642431 125.6336642  44.9037584  83.2864228 125.6945815
  54.5571068  94.1966751 128.2231579  53.6101403  94.0772102 128.1509905
  54.9053841  93.3089249 128.3057840  46.9170641  80.0860889 132.0469820
  47.4405043  80.3323186 132.8096130  46.6982975  80.9180924 131.6272958
  42.3137922  82.3564564 119.9140945  41.9850629  81.4761943 119.7316051
  42.6677293  82.3012233 120.8017335  51.5617501  93.9919467 124.4235931
  51.4142464  93.0636174 124.6043501  52.3870995  94.0139557 123.9393006
  45.4279746  82.6437534 120.2816423  45.7675818  83.1723455 119.5595031
  45.8751866  82.9817940 121.0574990  55.1651623  94.8148025 125.5100804
  56.0898171  94.6090887 125.3725255  54.9966926  94.5664427 126.4190145
  48.1223186  81.0274585 129.7319491  47.7820007  80.2282398 130.1340171
  47.4162193  81.3276295 129.1596324  48.7739658  78.1123897 128.1846814
  49.5965727  77.6384375 128.0625704  49.0177722  78.8914381 128.6845500
  47.4147893  81.1412155 118.4809716  48.1356255  81.5193408 117.9773433
  46.7913197  81.8601032 118.5844694  51.5579016  81.8457304 119.4168048
  51.7742630  82.7281942 119.1156876  51.0773083  81.4543518 118.6873690
  46.2978237  84.8043018 125.9938793  46.1522818  85.1183321 126.8863074
  45.8203441  85.4227918 125.4409691  48.1574620  81.7945566 126.0419682
  48.1436189  80.8986659 125.7051980  48.8747048  81.8016229 126.6757968
  50.0100751  82.2282906 128.0872810  49.7518528  83.1499976 128.0857140
  49.4785791  81.8313340 128.7773274  54.9546939  95.3333693 120.8662895
  55.1283817  94.7680115 120.1136747  55.4475831  96.1334588 120.6842385
  40.7723899  87.3448362 128.9326454  40.2277367  88.1208170 129.0646728
  41.6503249  87.6919167 128.7745575  47.5611516  80.6759946 121.3107252
  47.6827427  79.7476592 121.5098140  47.2713558  80.6898632 120.3985568
  50.4302706  78.3614856 124.4473972  50.4524403  78.4254189 123.4925952
  50.8470765  77.5219365 124.6414478  60.8086330  88.0970116 122.4853195
  61.2517476  87.3477441 122.0872318  59.9312841  88.0880252 122.1026927
  55.9422112  94.6500457 117.9659793  56.6373016  95.2707150 118.1847108
  56.2845262  93.7995809 118.2412171  41.5589921  86.4718258 131.8256611
  40.8171657  86.6200894 132.4121241  41.2382665  86.7326524 130.9623360
  57.8413535  92.1000163 119.4947124  58.3664859  92.4387436 118.7696444
  57.7535887  91.1647178 119.3110259  49.5033584  96.0134237 131.6237001
  49.8120710  95.7683383 132.4959700  50.3009066  96.2180875 131.1355871
  49.5254196  98.1672146 123.8542377  49.0859186  97.6748525 124.5475234
  50.2762313  97.6245114 123.6134452  42.0046535  94.3583687 123.8567005
  42.8304555  94.0587459 123.4765649  41.6540587  93.5891309 124.3056794
  46.9728068  93.7110155 125.9264679  46.3508077  93.0480860 125.6266907
  47.6432935  93.7371287 125.2438327  40.2055140  92.2770013 124.8155939
  39.3687048  91.8492188 124.6339940  40.1778785  92.4702457 125.7526730
  47.0452595  82.1891943 135.5197185  47.0940751  83.0654066 135.1374955
  47.5875109  81.6469336 134.9468828  57.5307441  92.7333067 134.7998322
  56.7402985  92.7157205 134.2602821  57.2940796  93.2721360 135.5547359
  57.6505316  89.5825533 132.1131051  57.7003321  89.4175540 133.0546573
  57.5419239  88.7152792 131.7228931  46.5341575  92.2614079 119.4023139
  46.6829695  92.9449543 118.7489812  47.3408018  92.2419169 119.9172595
  54.9409078  85.5656461 133.4290357  55.8418941  85.4262926 133.1374355
  55.0157053  85.7310916 134.3688535  49.2751884  82.9423316 132.2743544
  48.4055193  83.2356882 132.0026132  49.5111364  83.5263761 132.9950807
  59.1523513  92.0022474 132.3573072  58.8608321  92.3652455 133.1936533
  58.5395644  91.2889483 132.1786404  60.3519195  89.5675354 124.8775642
  61.1866087  90.0065158 125.0413203  60.4878324  89.0914007 124.0583888
  57.4010701  87.1255089 130.8253130  57.8764823  87.3182735 130.0171981
  56.4776266  87.1814275 130.5796514  44.2894208  88.2879256 120.4084208
  44.0440250  87.3841586 120.6064419  44.4590122  88.2896407 119.4663686
  51.9790918  79.1602933 129.7908964  52.4972861  79.8963960 129.4655453
  51.6246050  79.4666926 130.6255723  43.5589855  84.0207614 117.9070370
  42.8659100  84.0951969 117.2510406  43.3141607  83.2567957 118.4291887
  52.2303512  75.5803215 125.3109861  52.5105266  74.9126404 125.9370287
  53.0154119  75.7732311 124.7984524  50.0336980  94.7562209 116.8734887
  49.4610947  95.3752396 116.4205359  50.6069774  95.3061571 117.4074809
  56.1012370  84.0020849 129.0581436  57.0529793  84.1018947 129.0793660
  55.9315821  83.2099118 129.5679520  54.1226750  81.0876432 129.2440837
  53.5276682  81.3681445 128.5487325  53.8376446  81.5770333 130.0157578
  53.2534240  95.0399359 118.0043469  54.1864913  94.9744921 118.2076345
  53.1657453  95.8755626 117.5458002  55.8822257  94.3565230 114.9647417
  55.8035888  94.0225093 115.8583175  56.7031923  94.8486997 114.9638889
  58.5800448  87.2226969 128.1723735  58.5476768  86.2842970 128.3583419
  59.1901072  87.3011006 127.4389560  50.4183779  86.0923022 114.2150939
  51.3642883  85.9629230 114.2839357  50.0398024  85.3537684 114.6920368
  58.7294936  84.0138012 128.2182019  58.2133985  83.2296469 128.0311947
  59.6134885  83.6856729 128.3828538  56.3905663  77.7579028 124.1777831
  56.1930484  77.4494116 125.0621163  57.0005369  78.4840667 124.3075761
  64.3976998  88.2842976 127.3129772  65.1280386  88.0228264 127.8737475
  63.7883943  87.5471698 127.3531840  62.4792295  86.4250838 127.9104223
  61.7525458  86.2906803 127.3020715  62.0639582  86.7327667 128.7160941
  50.3022471  90.1440768 135.6751596  51.2225481  90.3219367 135.8691643
  50.2672054  89.1996813 135.5231296  48.6026696  84.0172998 114.1505825
  47.6958151  83.7206111 114.2268538  48.8802677  83.7202816 113.2840111
  39.5204636  85.3379362 124.6004871  39.2007421  84.4844670 124.3079245
  38.9738064  85.5527940 125.3562838  43.2984544  88.0541803 128.3174378
  43.5170554  88.9858910 128.3362411  43.7110318  87.6949777 129.1029181
  50.2188762  78.5609888 120.3050066  49.4089490  78.2156973 120.6805312
  50.9073179  78.2517432 120.8937677  52.1479310  77.6387935 121.9274363
  52.7010349  78.0583388 122.5864386  52.3849396  76.7123683 121.9697319
  48.1712409  83.6275008 137.7077126  48.0709136  84.5769365 137.6389218
  47.9533951  83.2993247 136.8353197  47.3725481  80.8759933 114.2917804
  48.2344645  81.2014832 114.5513621  47.5575825  80.0891429 113.7790870
  39.3892896  88.9582273 126.5697993  38.6956368  88.5436226 126.0567947
  40.1365887  89.0002810 125.9731411  55.5258117  79.7488460 121.4353027
  54.9456786  80.4073264 121.0531079  55.2594050  78.9265804 121.0240444
  53.9761683  79.1493518 123.6374347  54.4761462  79.2610052 122.8288666
  54.6197291  78.8454570 124.2775156  48.0343679  87.0572147 136.5242188
  47.5510761  87.8572507 136.7306077  48.1204618  87.0680092 135.5709632
  41.3029639  88.8900527 124.4464007  41.2800327  88.9888214 123.4945891
  41.6130275  89.7365678 124.7681174  43.9617017  90.9476682 128.5610622
  44.9160270  90.9160624 128.4940553  43.7629540  90.4867306 129.3760848
  44.5516399  89.5177798 131.1281420  45.3709288  90.0121877 131.1516257
  44.8253207  88.6009766 131.0998987  54.3082995  81.9088550 120.4909375
  53.4208850  82.1938201 120.2729570  54.7236984  81.7482314 119.6436652
  57.6597531  81.9335071 124.2063714  58.4357921  82.4231524 124.4788331
  56.9345665  82.3593125 124.6635584  60.0970090  82.6462690 125.2637655
  60.6914581  82.4058426 124.5530963  60.1696673  81.9269821 125.8911191
  42.3167245  96.4896301 125.5780820  42.1821713  95.7296702 125.0118818
  41.8999308  97.2137201 125.1109609  53.4526208  91.6733225 114.5857395
  54.1562059  91.8783227 115.2015051  52.7288857  92.2409987 114.8506479
  54.2824019  87.4243086 120.7059665  54.2259220  87.8811638 119.8667298
  54.8352361  86.6633771 120.5282508  58.0928825  83.2132818 121.5309785
  57.8365759  82.8129454 122.3617992  57.4681693  83.9276612 121.4059924
  62.4041163  85.9528891 124.0381076  61.8440720  86.0222081 124.8112638
  61.7984666  85.7769876 123.3180572  45.4736371  97.3865618 125.7899262
  45.3568755  98.3311051 125.6877953  44.6528818  97.0839180 126.1785062
  55.3612906  92.1115754 116.6355855  56.1958510  91.6796953 116.4533330
  55.1997249  91.9397768 117.5632750  55.0158798  88.6147867 118.0012194
  54.9607602  88.4492139 117.0600639  54.3904853  89.3223900 118.1574384
  39.8051313  83.8515932 131.8273617  40.4510177  83.3414886 132.3160842
  39.5968464  84.5884613 132.4017042  52.3304705  90.9196779 137.3265757
  53.1995865  91.0937432 136.9652392  51.8511457  91.7391196 137.2041487
  48.3254924  78.1155976 117.5797513  48.3133593  79.0597816 117.7365784
  49.2178345  77.9326122 117.2856974  46.4990885  98.0393880 129.0055191
  47.4018132  98.0717491 129.3221686  46.2728256  97.1094331 129.0201527
  48.2544487  96.7924867 125.6665269  47.3040118  96.7926728 125.5529642
  48.5576974  96.0457601 125.1501304  52.1407043  74.7098753 121.8343450
  51.3739439  74.1557240 121.9800132  52.5517748  74.7820622 122.6957601
  44.1448804  80.9983549 135.9248631  45.0080266  80.6420354 136.1351955
  43.5714215  80.6597444 136.6124035  63.9897181 102.6285405 126.7311032
  64.6275591 102.5092153 126.0274372  63.8718024 103.5766249 126.7898984
  60.7986887 102.5812833 126.6672557  60.4605399 102.4653898 125.7793091
  61.6676655 102.1803998 126.6473563  56.6573703 104.4348310 122.6569447
  56.0938568 104.3438247 121.8885735  56.5426098 103.6148214 123.1371940
  61.2806670 103.7347685 132.6258762  61.2695311 103.3400483 131.7539266
  61.4427310 103.0013758 133.2192534  54.2038135 105.9299501 125.4953668
  54.9959427 105.5890326 125.0799967  54.4434785 106.0394476 126.4155821
  62.2373262 108.1019277 117.9683912  61.5861241 108.6873358 117.5817926
  63.0317624 108.6325472 118.0278950  56.1628889 105.1908415 118.3671047
  56.9359765 104.6437402 118.2283923  56.5154288 106.0552664 118.5785508
  58.0013931 106.5184797 131.5737946  57.7103797 107.4230428 131.4584612
  58.6370916 106.5601324 132.2882016  58.9270138 103.8961645 128.1639306
  59.5233710 103.6717668 127.4496269  58.9845110 103.1546391 128.7664754
  63.5438449 100.3536859 123.8064240  64.3301539  99.9356282 123.4554657
  63.8077154 101.2582951 123.9745888  63.7148527 105.7909709 118.5052897
  63.0794360 105.8644336 119.2173801  63.3845933 106.3803308 117.8271976
  68.9446877 100.2912092 124.7097218  69.6772049  99.7211309 124.9435048
  68.1886232  99.9033693 125.1503724  58.2191455 103.2529187 118.2013872
  58.1027713 102.5774090 118.8694956  58.3293715 102.7661561 117.3846025
  60.5622996 102.7139334 121.9060561  60.1981204 102.1869955 122.6173482
  61.4190112 102.3237803 121.7327046  66.4672297  94.0033666 129.1691827
  66.1355622  94.8729077 128.9453042  65.8717910  93.6869950 129.8485857
  60.2028483  97.7429233 116.9021909  60.3702886  98.6109470 117.2692380
  60.0125652  97.9056515 115.9783199  62.9603816 106.2046212 128.5687740
  62.6604540 107.1071251 128.4603547  62.6154876 105.9378396 129.4208893
  56.4116298 102.6560009 124.6024444  55.4866794 102.5236223 124.8102136
  56.6600711 103.4354228 125.0994387  66.3600960  98.7228753 126.2485177
  65.4517838  98.6544161 125.9543938  66.3088556  99.2000697 127.0767003
  60.1817704 100.1986891 117.8868576  60.0617329 100.6443942 118.7254056
  59.4870293 100.5472209 117.3282114  53.7725109 102.2993283 125.4368233
  53.9017490 102.5527762 126.3507645  53.0922560 102.8920991 125.1172888
  57.9424596 112.9690533 121.5358707  57.8648626 113.9198358 121.6147188
  57.3386240 112.6236405 122.1933634  60.4341826 100.1418398 134.1920074
  59.6575160 100.7012318 134.1822939  61.0732389 100.6275181 134.7134944
  68.2262607  96.9245191 128.0263051  67.5836987  97.2177724 127.3802846
  67.7217535  96.8098111 128.8316248  65.8802770 100.6708364 118.7148910
  66.7920626 100.9035751 118.5396608  65.3712417 101.2545408 118.1523989
  58.6888198 102.9503852 133.7538041  59.4302883 103.4888895 133.4772865
  57.9825184 103.5770140 133.9109593  64.1643538 105.0932992 132.3510203
  64.5726894 104.6515403 131.6064835  63.4420799 104.5185619 132.6044396
  60.5174608 100.0305599 129.7243760  61.3635803 100.4545012 129.8678409
  60.4573246  99.3739223 130.4182323  64.4872353 105.6534183 126.1062492
  63.8581215 105.8179897 125.4038560  64.0998015 106.0675792 126.8773456
  68.3661585 106.5888620 123.4606855  67.6812623 106.9687522 122.9103889
  68.4505434 107.1983947 124.1938803  63.6674053  97.6909967 131.3824933
  63.4234985  98.4452028 130.8459209  63.9433984  98.0695315 132.2172180
  65.6212516 104.2348579 130.0602199  65.8329411 104.8780339 129.3836580
  65.5742264 103.4010896 129.5924129  63.2238745  96.8466400 126.9638771
  62.3623224  97.1447654 127.2555509  63.2501180  97.0636799 126.0319804
  60.0400315 105.3908591 123.3712577  60.5038660 105.6696294 122.5817199
  59.7757113 104.4892035 123.1885667  56.9324396 104.9380072 126.3092340
  57.5025753 105.3667341 125.6709825  57.5232507 104.6562657 127.0076526
  58.9769201 101.5131743 120.1802142  59.6793244 101.9652787 120.6476068
  58.6449829 100.8715562 120.8082035  57.4249562 100.1043500 134.5553351
  56.7948223 100.7859781 134.7888748  57.3185650  99.9926581 133.6106490
  52.7194535  99.7715296 125.4819276  51.9293589 100.0272824 125.0059386
  53.2105782 100.5863634 125.5871316  66.7358344 107.1120535 128.2324556
  67.5575788 106.7100722 127.9507238  66.7320747 107.0088769 129.1840672
  54.6709280 100.1359875 122.4402752  53.8740443 100.2478569 122.9586248
  54.4434872 100.4746527 121.5743643  60.5014948 106.6604578 130.3885267
  60.5659380 107.1224985 131.2243439  59.7925871 106.0301943 130.5167577
  51.0032238 100.0245786 127.9134266  51.2540276 100.9092796 128.1791842
  51.5391786  99.8450388 127.1409358  74.8264337 103.4559283 124.5809528
  74.0728046 102.8866681 124.4253532  74.9611878 103.4221948 125.5280162
  60.2162965 108.3272686 120.2564247  60.0808640 109.1724221 120.6849095
  60.7572778 108.5291963 119.4930181  56.7030305  94.4064266 136.9178602
  56.3097250  93.8530464 137.5926247  57.5196445  94.7174844 137.3085120
  53.6692363 105.8448124 120.8292172  54.1816883 106.6391374 120.9797737
  54.3215075 105.1474414 120.7625774  55.4787247 108.9613880 122.9114925
  55.6553876 109.8831845 122.7235909  56.2744081 108.6472299 123.3409305
  59.6198266  95.8222145 134.5098859  60.3607979  96.4229298 134.4303321
  59.8516189  95.0799782 133.9516902  54.7639604 101.0078512 132.7877089
  54.6493119 100.1063769 133.0884188  53.9084122 101.2542209 132.4361905
  61.8431442 108.9496252 134.3864589  61.3995296 108.1632631 134.0685494
  62.5048655 109.1375403 133.7208480  56.6018563 110.4792054 128.9125268
  57.1525988 110.3509117 128.1402262  55.7630039 110.7786943 128.5620161
  63.9412680 109.2299052 132.4145991  63.9231155 110.0507933 131.9226260
  64.8632600 109.1053127 132.6396132  60.3985734 106.7443182 133.2569499
  60.9314071 105.9831470 133.0268807  59.8699815 106.4516833 133.9993653
  63.5655429  91.8503248 128.7863141  63.2219698  92.7404889 128.7102251
  63.9334391  91.6604905 127.9232726  51.6341279 104.1736778 121.6051743
  52.4716501 104.5833786 121.3885450  51.8119547 103.2336220 121.5751937
  63.5305711 101.8411859 117.2935576  63.0152335 102.6116463 117.5323963
  63.2583020 101.1676995 117.9168637  61.1152823  96.6861559 122.3520814
  60.2594419  96.2968410 122.1726453  61.5279774  96.7653520 121.4920600
  62.6451969  94.2207903 126.7512374  62.1416765  94.1838038 125.9380179
  62.9382576  95.1300645 126.8109031  58.8894855  94.3046632 125.7578556
  59.7547852  94.1089441 125.3984445  58.9572364  94.0756984 126.6847912
  68.5039986 104.5944213 119.2288749  67.7269428 104.2555373 118.7843911
  69.1831467 104.5996836 118.5543714  63.3192015  99.7138951 119.1195357
  63.0142150 100.0285100 119.9705500  64.2722457  99.7920371 119.1622690
  61.7638446 105.8729174 120.7688311  61.2359808 105.1381934 120.4561548
  61.2625949 106.6503850 120.5228279  66.7431293 104.0678195 125.8855357
  66.0854967 104.7577456 125.9735486  67.5471692 104.4574627 126.2289344
  56.4957174  96.5348840 123.1294922  57.0700926  96.3124022 122.3968115
  57.0828157  96.6037535 123.8823524  65.5536751 102.4222567 123.9359299
  66.0668633 103.0552559 124.4381009  66.2037975 101.8223763 123.5702659
  58.7979842  93.4090089 121.8569992  58.1444254  93.0939106 121.2326607
  58.7560316  92.7865830 122.5829815  59.9091047 103.6909384 113.7723284
  59.0018108 103.4598638 113.9714433  60.4062079 102.8947004 113.9597265
  62.8159126 112.4006892 116.6919970  62.1420824 112.7038588 117.3004928
  63.2024948 113.2035972 116.3425427  62.0317582  99.8972023 126.1817639
  61.1140144 100.1186970 126.0239328  62.4477726  99.9718333 125.3229347
  62.8152630 101.2963438 121.3120320  63.5624449 101.8084836 121.0027442
  63.0844219 100.9747491 122.1724713  61.0879280 103.7921979 118.2947274
  60.1790499 103.5081012 118.3919744  61.1174364 104.2121058 117.4350581
  66.3198548 107.4028569 122.0638442  65.8660875 106.5619479 122.1203632
  65.6892514 108.0389967 122.4013222  65.2631467  98.3320555 123.2939109
  64.5254224  97.8197941 123.6249352  65.5158241  97.8920936 122.4822386
  64.7631487 109.2405065 122.9988260  65.0554461 109.8010123 122.2800625
  65.2730107 109.5333626 123.7541419  65.3643094  91.1096807 123.8880878
  65.6701971  90.2494170 123.6006793  66.0895699  91.7014427 123.6879872
  51.6567450 101.5127493 122.2762476  51.4591850 100.9196854 121.5513543
  51.1014114 101.2079704 122.9938415  59.6364174 101.4050600 124.3957069
  59.6912784 100.4524436 124.3199546  58.8255376 101.5610039 124.8798368
  60.7855368 105.3330723 115.6335353  60.3474798 104.6166582 115.1740990
  61.5265809 105.5606838 115.0720444  57.5756534 100.0227660 122.1547448
  56.7624400 100.3221830 122.5612640  58.0715528  99.6283348 122.8721930
  59.7265112 110.0185416 124.0881713  59.6841291 110.2446263 123.1590245
  60.6427811 109.7848791 124.2367514  63.1730746 100.4869484 130.9862342
  63.5280133 100.7140957 131.8456808  63.8202877 100.8187861 130.3639597
  68.9028483 103.6087920 121.6911671  68.7646381 103.7989516 120.7632860
  68.5464702 104.3707303 122.1479722  57.0670609  97.5946015 127.7708683
  57.7069988  97.4534774 127.0731647  56.2348139  97.3080528 127.3947285
  68.9297862 105.6764447 126.7022943  69.3634369 105.5839736 127.5505997
  69.6429443 105.6521947 126.0642959  57.8430913 106.8948446 123.8843676
  58.6371511 106.3998766 123.6826251  57.1322605 106.3666309 123.5211381
  62.6625757 109.2766541 128.2356043  62.7162779 109.8457477 129.0033759
  61.7940539 109.4468426 127.8710080  54.0699225  97.5646340 122.5481670
  54.3306043  98.4791673 122.4390830  54.8916398  97.0970783 122.6978283
  55.5424151  98.9784097 129.7180495  56.2147204  98.7701459 129.0693143
  54.7153937  98.7806183 129.2785727  69.7913412 105.7188148 129.2355828
  69.9849302 106.6233958 129.4815103  69.6914030 105.2595567 130.0694413
  61.4449723  95.6046038 131.7346155  60.7977638  96.3035988 131.6410632
  62.2150738  96.0382182 132.1022404  64.8528521 105.8694890 134.8096709
  64.7014027 105.6405442 133.8926792  64.8433200 106.8265492 134.8228054
  61.6213857 103.4426803 129.7942975  62.5505917 103.5937963 129.6211942
  61.2004887 103.5310824 128.9391622  60.4202189 107.4677467 127.5641513
  60.2813274 107.0996252 128.4367451  59.6316785 107.9825107 127.3925471
  61.0150341 112.5686564 118.9067049  61.1902096 112.0974607 119.7212672
  60.3283129 113.1952330 119.1348310  61.9707404 106.8459070 124.9530351
  61.6357236 106.8059840 125.8488000  61.4711350 106.1803786 124.4800761
  55.9451648 102.2526700 130.4782932  55.8071446 101.5206939 131.0794471
  56.8556571 102.1635600 130.1967119  64.9066596 104.1915105 115.2267410
  64.2895766 103.4661933 115.1300463  64.4383084 104.9524465 114.8834484
  58.5733949 101.9646660 129.9666611  59.2833567 101.3239852 129.9253230
  58.5303257 102.2159554 130.8892792  66.5620727 108.9014013 132.8873191
  66.5033273 108.2173233 132.2203774  66.9640246 109.6433003 132.4353817
  57.2862882  98.9511877 131.7862251  56.7500240  98.5002616 132.4383847
  56.6979591  99.0857786 131.0432715  55.5811426 115.7175927 125.6806909
  55.8208024 116.3494451 126.3585928  54.7380622 115.3663967 125.9672269
  66.5638134 106.8653597 131.1187170  65.6764913 106.5279519 131.2413569
  67.1336686 106.1336628 131.3555936  48.2167282 103.1977689 124.4430222
  48.9038321 102.8839419 123.8551237  48.0615410 104.1019053 124.1697473
  53.0202004  98.0867885 128.8715245  52.9360192  97.4793555 128.1365655
  52.1984710  98.5776903 128.8724742  60.0939288 111.5255049 128.0848413
  60.0209459 112.3310021 128.5967718  59.6516681 111.7247015 127.2596435
  59.8829067 110.7626819 121.5951235  59.0996589 111.3048499 121.6889459
  60.5821813 111.2800799 121.9945476  63.1925718  96.5721449 124.2385440
  63.6894417  95.8191411 123.9186511  62.4212699  96.6085765 123.6728650
  71.0455475 102.2761814 125.8803732  71.0345351 103.1586530 125.5097665
  70.1772854 101.9233365 125.6858269  62.5537971 111.4241883 130.2406572
  63.2665944 112.0589348 130.1682474  62.0628000 111.5205749 129.4246574
  64.2755498 105.3293136 121.8123864  63.3411777 105.4494598 121.6428568
  64.4532167 104.4265603 121.5483874  59.7760686  98.7138832 123.9657125
  59.4058474  98.1609872 124.6538031  60.2719779  98.1096965 123.4132125
  67.6628050 101.1710455 122.3473898  68.1288502 102.0038447 122.2734201
  68.1135550 100.7055437 123.0519156  57.6049885 109.1736327 131.0612143
  58.3059344 109.8072810 131.2141537  57.1345000 109.5151058 130.3007782
  65.7304281 107.5154276 119.3460050  66.0064125 107.4010871 120.2553924
  64.8608779 107.1171761 119.3072223  65.6344712  93.5391042 126.3864799
  64.7207792  93.7695269 126.5547006  66.0637814  93.6229486 127.2378832
  65.4051171 101.7280934 128.8864693  64.7522621 101.9756842 128.2317146
  65.7831551 100.9145072 128.5527171  62.3658345 111.7640627 122.9892864
  62.5480739 110.9462283 123.4520616  63.1891331 111.9808320 122.5517754
  62.7000510 110.6908812 120.2507912  63.2288277 110.1801267 119.6378074
  62.9628730 110.3751343 121.1153445  61.4538744 102.4700745 135.3730730
  60.7779381 102.3694874 136.0433106  62.2766378 102.3139959 135.8366728
  53.2017603 108.7072682 127.9943246  53.7871040 107.9616370 128.1271150
  53.0042441 109.0176638 128.8779909  56.0556258 111.7423929 123.0105688
  55.3866633 112.2270057 122.5269728  55.9169128 111.9893150 123.9249067
  47.7935258 101.2778282 126.7147689  47.8319357 100.7441873 127.5084807
  47.2875551 100.7513487 126.0958666  60.1961527 113.7767673 129.6088346
  60.7479835 113.9399294 130.3737432  60.5367720 114.3672110 128.9368371
  55.1726020  96.1242822 130.2110231  55.2367346  96.9857653 129.7987629
  55.1093140  95.5116824 129.4782590  54.6478293  98.1965955 133.8583265
  55.2750331  97.8143032 134.4720790  53.7906211  97.9780157 134.2238958
  65.0472401 108.6028930 135.4637001  65.5912305 109.2158888 134.9691956
  64.4659246 109.1608509 135.9804014  51.4243835 100.0042384 119.7901620
  51.7197276  99.0953062 119.7368674  50.5231871  99.9830124 119.4682622
  63.3329914 111.7249648 126.5952029  63.2081054 110.9239388 126.0862974
  63.9909005 112.2195842 126.1065998  54.9538082  98.0798381 125.7729169
  54.2324668  98.6934348 125.6336642  55.7431338  98.6156145 125.6945815
  65.3964822 109.5258668 128.2231579  64.4495158 109.4064019 128.1509905
  65.7447596 108.6381166 128.3057840  57.7564396  95.4152807 132.0469820
  58.2798798  95.6615104 132.8096130  57.5376729  96.2472842 131.6272958
  53.1531677  97.6856482 119.9140945  52.8244383  96.8053861 119.7316051
  53.5071048  97.6304150 120.8017335  62.4011256 109.3211384 124.4235931
  62.2536218 108.3928092 124.6043501  63.2264749 109.3431475 123.9393006
  56.2673500  97.9729452 120.2816423  56.6069573  98.5015373 119.5595031
  56.7145620  98.3109858 121.0574990  66.0045378 110.1439943 125.5100804
  66.9291925 109.9382805 125.3725255  65.8360681 109.8956344 126.4190145
  58.9616941  96.3566502 129.7319491  58.6213761  95.5574315 130.1340171
  58.2555947  96.6568213 129.1596324  59.6133413  93.4415815 128.1846814
  60.4359482  92.9676293 128.0625704  59.8571476  94.2206298 128.6845500
  58.2541647  96.4704073 118.4809716  58.9750010  96.8485326 117.9773433
  57.6306951  97.1892950 118.5844694  62.3972770  97.1749222 119.4168048
  62.6136384  98.0573860 119.1156876  61.9166837  96.7835436 118.6873690
  57.1371991 100.1334935 125.9938793  56.9916572 100.4475238 126.8863074
  56.6597195 100.7519836 125.4409691  58.9968374  97.1237483 126.0419682
  58.9829943  96.2278577 125.7051980  59.7140802  97.1308147 126.6757968
  60.8494505  97.5574824 128.0872810  60.5912283  98.4791894 128.0857140
  60.3179545  97.1605258 128.7773274  65.7940694 110.6625611 120.8662895
  65.9677571 110.0972033 120.1136747  66.2869585 111.4626506 120.6842385
  51.6117654 102.6740280 128.9326454  51.0671122 103.4500088 129.0646728
  52.4897003 103.0211084 128.7745575  58.4005270  96.0051864 121.3107252
  58.5221181  95.0768510 121.5098140  58.1107313  96.0190550 120.3985568
  61.2696461  93.6906774 124.4473972  61.2918157  93.7546107 123.4925952
  61.6864520  92.8511283 124.6414478  71.6480085 103.4262034 122.4853195
  72.0911231 102.6769359 122.0872318  70.7706595 103.4172170 122.1026927
  66.7815866 109.9792375 117.9659793  67.4766771 110.5999068 118.1847108
  67.1239016 109.1287726 118.2412171  52.3983675 101.8010176 131.8256611
  51.6565411 101.9492811 132.4121241  52.0776420 102.0618442 130.9623360
  68.6807289 107.4292081 119.4947124  69.2058613 107.7679353 118.7696444
  68.5929642 106.4939096 119.3110259  60.3427338 111.3426154 131.6237001
  60.6514465 111.0975301 132.4959700  61.1402820 111.5472793 131.1355871
  60.3647950 113.4964064 123.8542377  59.9252940 113.0040443 124.5475234
  61.1156067 112.9537032 123.6134452  52.8440289 109.6875605 123.8567005
  53.6698309 109.3879377 123.4765649  52.4934341 108.9183227 124.3056794
  57.8121822 109.0402073 125.9264679  57.1901832 108.3772778 125.6266907
  58.4826689 109.0663205 125.2438327  51.0448894 107.6061931 124.8155939
  50.2080802 107.1784106 124.6339940  51.0172540 107.7994375 125.7526730
  57.8846350  97.5183861 135.5197185  57.9334505  98.3945984 135.1374955
  58.4268864  96.9761254 134.9468828  68.3701195 108.0624984 134.7998322
  67.5796739 108.0449123 134.2602821  68.1334550 108.6013278 135.5547359
  68.4899071 104.9117451 132.1131051  68.5397075 104.7467458 133.0546573
  68.3812994 104.0444710 131.7228931  57.3735329 107.5905996 119.4023139
  57.5223450 108.2741461 118.7489812  58.1801773 107.5711086 119.9172595
  65.7802833 100.8948379 133.4290357  66.6812696 100.7554843 133.1374355
  65.8550807 101.0602833 134.3688535  60.1145638  98.2715233 132.2743544
  59.2448948  98.5648799 132.0026132  60.3505119  98.8555678 132.9950807
  69.9917267 107.3314392 132.3573072  69.7002076 107.6944373 133.1936533
  69.3789399 106.6181400 132.1786404  71.1912950 104.8967272 124.8775642
  72.0259841 105.3357076 125.0413203  71.3272078 104.4205925 124.0583888
  68.2404456 102.4547007 130.8253130  68.7158577 102.6474653 130.0171981
  67.3170021 102.5106193 130.5796514  55.1287962 103.6171174 120.4084208
  54.8834004 102.7133504 120.6064419  55.2983877 103.6188324 119.4663686
  62.8184672  94.4894850 129.7908964  63.3366616  95.2255877 129.4655453
  62.4639805  94.7958844 130.6255723  63.0697266  90.9095133 125.3109861
  63.3499020  90.2418322 125.9370287  63.8547873  91.1024228 124.7984524
  60.8730735 110.0854127 116.8734887  60.3004702 110.7044314 116.4205359
  61.4463528 110.6353488 117.4074809  66.9406125  99.3312767 129.0581436
  67.8923547  99.4310864 129.0793660  66.7709575  98.5391035 129.5679520
  64.9620504  96.4168350 129.2440837  64.3670436  96.6973363 128.5487325
  64.6770201  96.9062251 130.0157578  64.0927995 110.3691277 118.0043469
  65.0258668 110.3036839 118.2076345  64.0051207 111.2047544 117.5458002
  66.7216011 109.6857147 114.9647417  66.6429643 109.3517011 115.8583175
  67.5425678 110.1778915 114.9638889  69.4194202 102.5518887 128.1723735
  69.3870522 101.6134887 128.3583419  70.0294826 102.6302923 127.4389560
  61.2577533 101.4214939 114.2150939  62.2036638 101.2921148 114.2839357
  60.8791778 100.6829601 114.6920368  69.5688691  99.3429930 128.2182019
  69.0527739  98.5588387 128.0311947  70.4528639  99.0148647 128.3828538
  67.2299418  93.0870946 124.1777831  67.0324239  92.7786034 125.0621163
  67.8399123  93.8132584 124.3075761  75.2370752 103.6134893 127.3129772
  75.9674141 103.3520181 127.8737475  74.6277698 102.8763615 127.3531840
  73.3186049 101.7542756 127.9104223  72.5919213 101.6198721 127.3020715
  72.9033336 102.0619585 128.7160941  61.1416226 105.4732686 135.6751596
  62.0619235 105.6511285 135.8691643  61.1065809 104.5288731 135.5231296
  59.4420450  99.3464916 114.1505825  58.5351906  99.0498029 114.2268538
  59.7196431  99.0494734 113.2840111  50.3598391 100.6671279 124.6004871
  50.0401175  99.8136587 124.3079245  49.8131819 100.8819857 125.3562838
  54.1378298 103.3833720 128.3174378  54.3564308 104.3150828 128.3362411
  54.5504072 103.0241695 129.1029181  61.0582516  93.8901806 120.3050066
  60.2483244  93.5448891 120.6805312  61.7466933  93.5809349 120.8937677
  62.9873064  92.9679852 121.9274363  63.5404103  93.3875306 122.5864386
  63.2243151  92.0415600 121.9697319  59.0106164  98.9566926 137.7077126
  58.9102891  99.9061283 137.6389218  58.7927706  98.6285165 136.8353197
  58.2119235  96.2051851 114.2917804  59.0738399  96.5306749 114.5513621
  58.3969579  95.4183347 113.7790870  50.2286651 104.2874191 126.5697993
  49.5350122 103.8728144 126.0567947  50.9759642 104.3294727 125.9731411
  66.3651871  95.0780378 121.4353027  65.7850541  95.7365182 121.0531079
  66.0987804  94.2557722 121.0240444  64.8155438  94.4785435 123.6374347
  65.3155216  94.5901970 122.8288666  65.4591046  94.1746488 124.2775156
  58.8737434 102.3864065 136.5242188  58.3904515 103.1864425 136.7306077
  58.9598373 102.3972010 135.5709632  52.1423393 104.2192445 124.4464007
  52.1194081 104.3180132 123.4945891  52.4524030 105.0657595 124.7681174
  54.8010771 106.2768600 128.5610622  55.7554025 106.2452542 128.4940553
  54.6023295 105.8159223 129.3760848  55.3910153 104.8469716 131.1281420
  56.2103042 105.3413794 131.1516257  55.6646961 103.9301684 131.0998987
  65.1476749  97.2380468 120.4909375  64.2602605  97.5230119 120.2729570
  65.5630739  97.0774231 119.6436652  68.4991286  97.2626989 124.2063714
  69.2751676  97.7523441 124.4788331  67.7739420  97.6885043 124.6635584
  70.9363844  97.9754608 125.2637655  71.5308335  97.7350344 124.5530963
  71.0090428  97.2561739 125.8911191  53.1561000 111.8188219 125.5780820
  53.0215468 111.0588620 125.0118818  52.7393062 112.5429119 125.1109609
  64.2919963 107.0025143 114.5857395  64.9955813 107.2075145 115.2015051
  63.5682612 107.5701904 114.8506479  65.1217773 102.7535004 120.7059665
  65.0652975 103.2103555 119.8667298  65.6746116 101.9925688 120.5282508
  68.9322579  98.5424736 121.5309785  68.6759513  98.1421371 122.3617992
  68.3075447  99.2568530 121.4059924  73.2434917 101.2820809 124.0381076
  72.6834475 101.3513998 124.8112638  72.6378420 101.1061794 123.3180572
  56.3130126 112.7157536 125.7899262  56.1962510 113.6602969 125.6877953
  55.4922572 112.4131098 126.1785062  66.2006660 107.4407672 116.6355855
  67.0352264 107.0088870 116.4533330  66.0391003 107.2689685 117.5632750
  65.8552553 103.9439785 118.0012194  65.8001356 103.7784057 117.0600639
  65.2298608 104.6515818 118.1574384  50.6445068  99.1807849 131.8273617
  51.2903931  98.6706803 132.3160842  50.4362219  99.9176531 132.4017042
  63.1698460 106.2488697 137.3265757  64.0389619 106.4229349 136.9652392
  62.6905211 107.0683114 137.2041487  59.1648678  93.4447894 117.5797513
  59.1527348  94.3889734 117.7365784  60.0572100  93.2618040 117.2856974
  57.3384640 113.3685798 129.0055191  58.2411887 113.4009408 129.3221686
  57.1122010 112.4386249 129.0201527  59.0938242 112.1216785 125.6665269
  58.1433873 112.1218646 125.5529642  59.3970728 111.3749519 125.1501304
  62.9800797  90.0390671 121.8343450  62.2133193  89.4849157 121.9800132
  63.3911502  90.1112540 122.6957601  54.9842559  96.3275467 135.9248631
  55.8474020  95.9712271 136.1351955  54.4107969  95.9889361 136.6124035
  74.8290935 117.9577323 126.7311032  75.4669345 117.8384070 126.0274372
  74.7111778 118.9058167 126.7898984  71.6380642 117.9104751 126.6672557
  71.2999153 117.7945816 125.7793091  72.5070410 117.5095916 126.6473563
  67.4967457 119.7640227 122.6569447  66.9332323 119.6730164 121.8885735
  67.3819852 118.9440132 123.1371940  65.0431889 121.2591419 125.4953668
  65.8353181 120.9182244 125.0799967  65.2828540 121.3686394 126.4155821
  73.0767016 123.4311195 117.9683912  72.4254996 124.0165276 117.5817926
  73.8711379 123.9617390 118.0278950  67.0022643 120.5200332 118.3671047
  67.7753519 119.9729319 118.2283923  67.3548042 121.3844582 118.5785508
  69.7663893 119.2253563 128.1639306  70.3627465 119.0009585 127.4496269
  69.8238864 118.4838309 128.7664754  69.3388921 116.6792998 115.9989497
  69.5914442 116.1574520 115.2372960  68.4013480 116.5159144 116.1016180
  74.3832204 115.6828777 123.8064240  75.1695293 115.2648200 123.4554657
  74.6470908 116.5874869 123.9745888  74.5542281 121.1201627 118.5052897
  73.9188114 121.1936254 119.2173801  74.2239688 121.7095226 117.8271976
  79.7840631 115.6204010 124.7097218  80.5165803 115.0503227 124.9435048
  79.0279987 115.2325610 125.1503724  69.0585210 118.5821104 118.2013872
  68.9421468 117.9066008 118.8694956  69.1687470 118.0953478 117.3846025
  71.4016751 118.0431251 121.9060561  71.0374958 117.5161872 122.6173482
  72.2583867 117.6529721 121.7327046  77.3066051 109.3325584 129.1691827
  76.9749376 110.2020995 128.9453042  76.7111665 109.0161868 129.8485857
  71.0422238 113.0721151 116.9021909  71.2096640 113.9401388 117.2692380
  70.8519407 113.2348433 115.9783199  73.7997571 121.5338130 128.5687740
  73.4998294 122.4363169 128.4603547  73.4548630 121.2670313 129.4208893
  67.2510052 117.9851927 124.6024444  66.3260549 117.8528141 124.8102136
  67.4994466 118.7646146 125.0994387  77.1994715 114.0520670 126.2485177
  76.2911592 113.9836079 125.9543938  77.1482311 114.5292615 127.0767003
  71.0211459 115.5278809 117.8868576  70.9011084 115.9735859 118.7254056
  70.3264047 115.8764126 117.3282114  64.6118863 117.6285200 125.4368233
  64.7411245 117.8819679 126.3507645  63.9316315 118.2212908 125.1172888
  68.7818351 128.2982450 121.5358707  68.7042380 129.2490275 121.6147188
  68.1779994 127.9528323 122.1933634  79.0656361 112.2537109 128.0263051
  78.4230741 112.5469642 127.3802846  78.5611290 112.1390029 128.8316248
  76.7196525 116.0000282 118.7148910  77.6314381 116.2327669 118.5396608
  76.2106172 116.5837326 118.1523989  69.5281953 118.2795769 133.7538041
  70.2696637 118.8180813 133.4772865  68.8218938 118.9062058 133.9109593
  71.3568363 115.3597516 129.7243760  72.2029558 115.7836930 129.8678409
  71.2967000 114.7031141 130.4182323  75.3266107 120.9826100 126.1062492
  74.6974970 121.1471814 125.4038560  74.9391769 121.3967710 126.8773456
  79.2055339 121.9180538 123.4606855  78.5206377 122.2979439 122.9103889
  79.2899188 122.5275865 124.1938803  74.5067808 113.0201885 131.3824933
  74.2628740 113.7743945 130.8459209  74.7827738 113.3987232 132.2172180
  76.4606271 119.5640497 130.0602199  76.6723166 120.2072257 129.3836580
  76.4136019 118.7302814 129.5924129  74.0632500 112.1758318 126.9638771
  73.2016979 112.4739571 127.2555509  74.0894934 112.3928717 126.0319804
  70.8794069 120.7200508 123.3712577  71.3432415 120.9988211 122.5817199
  70.6150867 119.8183953 123.1885667  67.7718150 120.2671990 126.3092340
  68.3419507 120.6959258 125.6709825  68.3626262 119.9854575 127.0076526
  69.8162955 116.8423661 120.1802142  70.5186998 117.2944704 120.6476068
  69.4843584 116.2007480 120.8082035  68.2643317 115.4335417 134.5553351
  67.6341977 116.1151698 134.7888748  68.1579404 115.3218499 133.6106490
  63.5588289 115.1007213 125.4819276  62.7687343 115.3564742 125.0059386
  64.0499536 115.9155551 125.5871316  65.5103034 115.4651793 122.4402752
  64.7134198 115.5770487 122.9586248  65.2828627 115.8038445 121.5743643
  61.8425992 115.3537704 127.9134266  62.0934030 116.2384714 128.1791842
  62.3785540 115.1742305 127.1409358  85.6658092 118.7851201 124.5809528
  84.9121800 118.2158599 124.4253532  85.8005633 118.7513866 125.5280162
  71.0556720 123.6564603 120.2564247  70.9202394 124.5016139 120.6849095
  71.5966532 123.8583881 119.4930181  67.5424059 109.7356183 136.9178602
  67.1491005 109.1822382 137.5926247  68.3590200 110.0466762 137.3085120
  64.5086117 121.1740041 120.8292172  65.0210638 121.9683292 120.9797737
  65.1608830 120.4766332 120.7625774  66.3181002 124.2905798 122.9114925
  66.4947630 125.2123762 122.7235909  67.1137835 123.9764217 123.3409305
  70.4592020 111.1514062 134.5098859  71.2001734 111.7521215 134.4303321
  70.6909943 110.4091700 133.9516902  65.6033358 116.3370430 132.7877089
  65.4886873 115.4355687 133.0884188  64.7477876 116.5834126 132.4361905
  67.4412317 125.8083971 128.9125268  67.9919742 125.6801035 128.1402262
  66.6023793 126.1078860 128.5620161  74.4049183 107.1795165 128.7863141
  74.0613453 108.0696807 128.7102251  74.7728146 106.9896823 127.9232726
  62.4735034 119.5028696 121.6051743  63.3110256 119.9125704 121.3885450
  62.6513302 118.5628138 121.5751937  74.3699466 117.1703776 117.2935576
  73.8546089 117.9408381 117.5323963  74.0976774 116.4968913 117.9168637
  71.9546577 112.0153477 122.3520814  71.0988173 111.6260328 122.1726453
  72.3673529 112.0945438 121.4920600  73.4845724 109.5499820 126.7512374
  72.9810519 109.5129956 125.9380179  73.7776330 110.4592563 126.8109031
  69.7288610 109.6338550 125.7578556  70.5941606 109.4381359 125.3984445
  69.7966118 109.4048902 126.6847912  79.3433740 119.9236131 119.2288749
  78.5663183 119.5847290 118.7843911  80.0225221 119.9288754 118.5543714
  74.1585769 115.0430868 119.1195357  73.8535905 115.3577018 119.9705500
  75.1116211 115.1212288 119.1622690  72.6032201 121.2021092 120.7688311
  72.0753563 120.4673851 120.4561548  72.1019704 121.9795768 120.5228279
  77.5825047 119.3970112 125.8855357  76.9248721 120.0869374 125.9735486
  78.3865446 119.7866544 126.2289344  67.3350929 111.8640758 123.1294922
  67.9094680 111.6415940 122.3968115  67.9221911 111.9329453 123.8823524
  76.3930506 117.7514485 123.9359299  76.9062388 118.3844477 124.4381009
  77.0431730 117.1515680 123.5702659  67.6620516 113.8945219 117.1490808
  66.8257828 114.2319906 117.4700082  67.5225285 113.7594199 116.2117945
  69.6373596 108.7382007 121.8569992  68.9838009 108.4231024 121.2326607
  69.5954070 108.1157747 122.5829815  70.7484801 119.0201302 113.7723284
  69.8411863 118.7890555 113.9714433  71.2455833 118.2238921 113.9597265
  73.6552880 127.7298809 116.6919970  72.9814579 128.0330506 117.3004928
  74.0418702 128.5327890 116.3425427  72.8711337 115.2263940 126.1817639
  71.9533898 115.4478887 126.0239328  73.2871480 115.3010251 125.3229347
  73.6546384 116.6255356 121.3120320  74.4018203 117.1376753 121.0027442
  73.9237974 116.3039409 122.1724713  71.9273035 119.1213897 118.2947274
  71.0184254 118.8372930 118.3919744  71.9568118 119.5412975 117.4350581
  77.1592302 122.7320486 122.0638442  76.7054629 121.8911396 122.1203632
  76.5286269 123.3681885 122.4013222  76.1025222 113.6612472 123.2939109
  75.3647978 113.1489859 123.6249352  76.3551995 113.2212854 122.4822386
  75.6025241 124.5696983 122.9988260  75.8948216 125.1302040 122.2800625
  76.1123862 124.8625544 123.7541419  76.2036849 106.4388724 123.8880878
  76.5095726 105.5786088 123.6006793  76.9289454 107.0306345 123.6879872
  62.4961205 116.8419411 122.2762476  62.2985605 116.2488772 121.5513543
  61.9407869 116.5371621 122.9938415  70.4757929 116.7342517 124.3957069
  70.5306538 115.7816354 124.3199546  69.6649131 116.8901957 124.8798368
  71.6249122 120.6622641 115.6335353  71.1868552 119.9458499 115.1740990
  72.3659563 120.8898755 115.0720444  68.4150289 115.3519577 122.1547448
  67.6018154 115.6513748 122.5612640  68.9109283 114.9575266 122.8721930
  70.5658866 125.3477334 124.0881713  70.5235045 125.5738180 123.1590245
  71.4821565 125.1140709 124.2367514  74.0124500 115.8161402 130.9862342
  74.3673888 116.0432875 131.8456808  74.6596631 116.1479779 130.3639597
  79.7422237 118.9379838 121.6911671  79.6040136 119.1281434 120.7632860
  79.3858456 119.6999220 122.1479722  67.9064363 112.9237933 127.7708683
  68.5463743 112.7826692 127.0731647  67.0741894 112.6372446 127.3947285
  79.7691617 121.0056365 126.7022943  80.2028123 120.9131654 127.5505997
  80.4823197 120.9813865 126.0642959  68.6824667 122.2240363 123.8843676
  69.4765266 121.7290683 123.6826251  67.9716360 121.6958226 123.5211381
  64.9907431 116.3683445 119.9603428  64.0605019 116.3067900 120.1773390
  65.0864903 115.8459398 119.1640070  64.9092980 112.8938258 122.5481670
  65.1699797 113.8083591 122.4390830  65.7310152 112.4262700 122.6978283
  66.3817905 114.3076015 129.7180495  67.0540958 114.0993377 129.0693143
  65.5547692 114.1098101 129.2785727  72.2843477 110.9337956 131.7346155
  71.6371392 111.6327906 131.6410632  73.0544492 111.3674100 132.1022404
  72.4607611 118.7718721 129.7942975  73.3899671 118.9229880 129.6211942
  72.0398641 118.8602742 128.9391622  71.2595943 122.7969385 127.5641513
  71.1207029 122.4288170 128.4367451  70.4710539 123.3117025 127.3925471
  71.8544095 127.8978482 118.9067049  72.0295851 127.4266525 119.7212672
  71.1676883 128.5244248 119.1348310  72.8101158 122.1750988 124.9530351
  72.4750991 122.1351758 125.8488000  72.3105104 121.5095704 124.4800761
  66.7845402 117.5818618 130.4782932  66.6465200 116.8498857 131.0794471
  67.6950326 117.4927518 130.1967119  75.7460350 119.5207022 115.2267410
  75.1289521 118.7953850 115.1300463  75.2776838 120.2816382 114.8834484
  69.4127703 117.2938577 129.9666611  70.1227322 116.6531769 129.9253230
  69.3697011 117.5451472 130.8892792  68.1256637 114.2803795 131.7862251
  67.5893994 113.8294534 132.4383847  67.5373345 114.4149704 131.0432715
  66.4205180 131.0467844 125.6806909  66.6601779 131.6786369 126.3585928
  65.5774377 130.6955884 125.9672269  67.5358896 113.7392447 114.3488714
  66.6588362 113.6181247 113.9850961  68.0116649 112.9478525 114.0967603
  59.0561036 118.5269606 124.4430222  59.7432076 118.2131336 123.8551237
  58.9009165 119.4310971 124.1697473  63.8595758 113.4159803 128.8715245
  63.7753947 112.8085472 128.1365655  63.0378465 113.9068821 128.8724742
  70.7222822 126.0918737 121.5951235  69.9390344 126.6340417 121.6889459
  71.4215567 126.6092717 121.9945476  74.0319472 111.9013366 124.2385440
  74.5288172 111.1483329 123.9186511  73.2606454 111.9377683 123.6728650
  81.8849229 117.6053732 125.8803732  81.8739106 118.4878447 125.5097665
  81.0166609 117.2525283 125.6858269  75.1149253 120.6585054 121.8123864
  74.1805531 120.7786516 121.6428568  75.2925921 119.7557520 121.5483874
  70.6154441 114.0430749 123.9657125  70.2452228 113.4901790 124.6538031
  71.1113533 113.4388883 123.4132125  78.5021804 116.5002373 122.3473898
  78.9682256 117.3330364 122.2734201  78.9529305 116.0347354 123.0519156
  76.5698035 122.8446194 119.3460050  76.8457879 122.7302789 120.2553924
  75.7002534 122.4463679 119.3072223  76.4738467 108.8682960 126.3864799
  75.5601547 109.0987187 126.5547006  76.9031568 108.9521404 127.2378832
  76.2444925 117.0572852 128.8864693  75.5916376 117.3048759 128.2317146
  76.6225305 116.2436990 128.5527171  73.2052099 127.0932545 122.9892864
  73.3874494 126.2754201 123.4520616  74.0285085 127.3100237 122.5517754
  73.5394265 126.0200730 120.2507912  74.0682031 125.5093185 119.6378074
  73.8022484 125.7043260 121.1153445  64.0411357 124.0364599 127.9943246
  64.6264794 123.2908287 128.1271150  63.8436196 124.3468556 128.8779909
  66.8950013 127.0715847 123.0105688  66.2260388 127.5561974 122.5269728
  66.7562882 127.3185067 123.9249067  58.6329012 116.6070200 126.7147689
  58.6713112 116.0733790 127.5084807  58.1269305 116.0805405 126.0958666
  66.0119774 111.4534740 130.2110231  66.0761101 112.3149571 129.7987629
  65.9486895 110.8408742 129.4782590  65.4872047 113.5257873 133.8583265
  66.1144086 113.1434950 134.4720790  64.6299966 113.3072075 134.2238958
  62.2637590 115.3334302 119.7901620  62.5591031 114.4244980 119.7368674
  61.3625626 115.3122041 119.4682622  74.1723669 127.0541566 126.5952029
  74.0474808 126.2531306 126.0862974  74.8302760 127.5487759 126.1065998
  65.7931837 113.4090298 125.7729169  65.0718423 114.0226266 125.6336642
  66.5825093 113.9448063 125.6945815  68.5958150 110.7444725 132.0469820
  69.1192552 110.9907021 132.8096130  68.3770484 111.5764760 131.6272958
  63.9925431 113.0148399 119.9140945  63.6638138 112.1345778 119.7316051
  64.3464802 112.9596068 120.8017335  73.2405010 124.6503302 124.4235931
  73.0929973 123.7220010 124.6043501  74.0658504 124.6723393 123.9393006
  67.1067255 113.3021369 120.2816423  67.4463327 113.8307290 119.5595031
  67.5539375 113.6401775 121.0574990  76.8439132 125.4731861 125.5100804
  77.7685680 125.2674722 125.3725255  76.6754435 125.2248262 126.4190145
  69.8010695 111.6858420 129.7319491  69.4607516 110.8866233 130.1340171
  69.0949702 111.9860131 129.1596324  70.4527167 108.7707732 128.1846814
  71.2753236 108.2968211 128.0625704  70.6965231 109.5498216 128.6845500
  69.0935402 111.7995991 118.4809716  69.8143764 112.1777244 117.9773433
  68.4700706 112.5184868 118.5844694  73.2366525 112.5041140 119.4168048
  73.4530139 113.3865778 119.1156876  72.7560592 112.1127353 118.6873690
  67.9765746 115.4626853 125.9938793  67.8310327 115.7767156 126.8863074
  67.4990950 116.0811753 125.4409691  69.8362129 112.4529401 126.0419682
  69.8223698 111.5570494 125.7051980  70.5534557 112.4600065 126.6757968
  71.6888260 112.8866741 128.0872810  71.4306037 113.8083812 128.0857140
  71.1573300 112.4897176 128.7773274  76.6334448 125.9917528 120.8662895
  76.8071326 125.4263951 120.1136747  77.1263340 126.7918423 120.6842385
  62.4511408 118.0032197 128.9326454  61.9064876 118.7792005 129.0646728
  63.3290758 118.3503002 128.7745575  69.2399025 111.3343781 121.3107252
  69.3614936 110.4060427 121.5098140  68.9501067 111.3482467 120.3985568
  72.1090215 109.0198692 124.4473972  72.1311912 109.0838025 123.4925952
  72.5258274 108.1803200 124.6414478  82.4873839 118.7553951 122.4853195
  82.9304985 118.0061276 122.0872318  81.6100350 118.7464088 122.1026927
  77.6209621 125.3084293 117.9659793  78.3160525 125.9290985 118.1847108
  77.9632771 124.4579644 118.2412171  63.2377430 117.1302094 131.8256611
  62.4959166 117.2784729 132.4121241  62.9170174 117.3910359 130.9623360
  79.5201044 122.7583998 119.4947124  80.0452368 123.0971271 118.7696444
  79.4323396 121.8231014 119.3110259  71.2041705 128.8255982 123.8542377
  70.7646695 128.3332360 124.5475234  71.9549822 128.2828949 123.6134452
  63.6834044 125.0167522 123.8567005  64.5092064 124.7171294 123.4765649
  63.3328096 124.2475145 124.3056794  68.6515577 124.3693991 125.9264679
  68.0295586 123.7064696 125.6266907  69.3220444 124.3955123 125.2438327
  61.8842649 122.9353849 124.8155939  61.0474557 122.5076023 124.6339940
  61.8566294 123.1286292 125.7526730  68.7240104 112.8475779 135.5197185
  68.7728260 113.7237901 135.1374955  69.2662618 112.3053172 134.9468828
  68.2129084 122.9197914 119.4023139  68.3617204 123.6033378 118.7489812
  69.0195527 122.9003004 119.9172595  70.9539393 113.6007151 132.2743544
  70.0842702 113.8940717 132.0026132  71.1898873 114.1847596 132.9950807
  82.0306704 120.2259190 124.8775642  82.8653596 120.6648994 125.0413203
  82.1665833 119.7497843 124.0583888  65.9681717 118.9463092 120.4084208
  65.7227759 118.0425422 120.6064419  66.1377631 118.9480242 119.4663686
  73.6578427 109.8186768 129.7908964  74.1760370 110.5547795 129.4655453
  73.3033559 110.1250761 130.6255723  65.2377364 114.6791449 117.9070370
  64.5446609 114.7535804 117.2510406  64.9929116 113.9151793 118.4291887
  73.9091021 106.2387051 125.3109861  74.1892774 105.5710240 125.9370287
  74.6941628 106.4316146 124.7984524  71.7124489 125.4146044 116.8734887
  71.1398456 126.0336232 116.4205359  72.2857283 125.9645406 117.4074809
  77.7799879 114.6604684 129.0581436  78.7317302 114.7602782 129.0793660
  77.6103329 113.8682953 129.5679520  75.8014259 111.7460268 129.2440837
  75.2064191 112.0265280 128.5487325  75.5163955 112.2354169 130.0157578
  74.9321749 125.6983195 118.0043469  75.8652422 125.6328756 118.2076345
  74.8444962 126.5339461 117.5458002  77.5609766 125.0149065 114.9647417
  77.4823397 124.6808928 115.8583175  78.3819432 125.5070833 114.9638889
  80.2587957 117.8810804 128.1723735  80.2264277 116.9426805 128.3583419
  80.8688581 117.9594841 127.4389560  72.0971288 116.7506857 114.2150939
  73.0430392 116.6213065 114.2839357  71.7185533 116.0121519 114.6920368
  80.4082445 114.6721848 128.2182019  79.8921494 113.8880304 128.0311947
  81.2922394 114.3440564 128.3828538  78.0693172 108.4162863 124.1777831
  77.8717993 108.1077951 125.0621163  78.6792878 109.1424502 124.3075761
  84.1579804 117.0834674 127.9104223  83.4312967 116.9490639 127.3020715
  83.7427091 117.3911502 128.7160941  70.2814205 114.6756834 114.1505825
  69.3745660 114.3789946 114.2268538  70.5590186 114.3786652 113.2840111
  61.1992145 115.9963197 124.6004871  60.8794930 115.1428505 124.3079245
  60.6525573 116.2111775 125.3562838  64.9772053 118.7125638 128.3174378
  65.1958063 119.6442746 128.3362411  65.3897827 118.3533612 129.1029181
  71.8976271 109.2193723 120.3050066  71.0876999 108.8740808 120.6805312
  72.5860688 108.9101267 120.8937677  73.8266819 108.2971770 121.9274363
  74.3797857 108.7167223 122.5864386  74.0636905 107.3707518 121.9697319
  69.0512989 111.5343769 114.2917804  69.9132153 111.8598667 114.5513621
  69.2363334 110.7475265 113.7790870  61.0680405 119.6166108 126.5697993
  60.3743877 119.2020061 126.0567947  61.8153396 119.6586645 125.9731411
  77.2045626 110.4072295 121.4353027  76.6244295 111.0657099 121.0531079
  76.9381559 109.5849640 121.0240444  75.6549192 109.8077353 123.6374347
  76.1548971 109.9193887 122.8288666  76.2984800 109.5038406 124.2775156
  62.9817148 119.5484362 124.4464007  62.9587836 119.6472049 123.4945891
  63.2917784 120.3949513 124.7681174  65.6404526 121.6060517 128.5610622
  66.5947779 121.5744460 128.4940553  65.4417049 121.1451141 129.3760848
  66.2303908 120.1761633 131.1281420  67.0496797 120.6705712 131.1516257
  66.5040715 119.2593601 131.0998987  75.9870504 112.5672386 120.4909375
  75.0996359 112.8522036 120.2729570  76.4024493 112.4066149 119.6436652
  79.3385040 112.5918907 124.2063714  80.1145430 113.0815359 124.4788331
  78.6133174 113.0176961 124.6635584  81.7757599 113.3046526 125.2637655
  82.3702090 113.0642262 124.5530963  81.8484182 112.5853656 125.8911191
  63.9954754 127.1480137 125.5780820  63.8609222 126.3880538 125.0118818
  63.5786817 127.8721037 125.1109609  75.1313717 122.3317060 114.5857395
  75.8349568 122.5367063 115.2015051  74.4076366 122.8993822 114.8506479
  75.9611528 118.0826922 120.7059665  75.9046729 118.5395473 119.8667298
  76.5139870 117.3217606 120.5282508  79.7716334 113.8716653 121.5309785
  79.5153268 113.4713289 122.3617992  79.1469202 114.5860447 121.4059924
  84.0828672 116.6112727 124.0381076  83.5228229 116.6805916 124.8112638
  83.4772175 116.4353711 123.3180572  67.1523880 128.0449454 125.7899262
  67.0356264 128.9894886 125.6877953  66.3316327 127.7423015 126.1785062
  77.0400415 122.7699589 116.6355855  77.8746019 122.3380788 116.4533330
  76.8784758 122.5981603 117.5632750  76.6946307 119.2731703 118.0012194
  76.6395111 119.1075974 117.0600639  76.0692362 119.9807736 118.1574384
  61.4838822 114.5099767 131.8273617  62.1297686 113.9998721 132.3160842
  61.2755973 115.2468449 132.4017042  70.0042433 108.7739812 117.5797513
  69.9921102 109.7181652 117.7365784  70.8965854 108.5909957 117.2856974
  69.9331996 127.4508702 125.6665269  68.9827627 127.4510564 125.5529642
  70.2364483 126.7041437 125.1501304  73.8194552 105.3682588 121.8343450
  73.0526948 104.8141075 121.9800132  74.2305257 105.4404457 122.6957601
  65.8236313 111.6567384 135.9248631  66.6867775 111.3004189 136.1351955
  65.2501724 111.3181279 136.6124035  77.8416398 135.8492250 118.3671047
  78.6147274 135.3021237 118.2283923  78.1941797 136.7136499 118.5785508
  80.1782676 132.0084916 115.9989497  80.4308196 131.4866437 115.2372960
  79.2407235 131.8451062 116.1016180  79.8978964 133.9113022 118.2013872
  79.7815222 133.2357925 118.8694956  80.0081224 133.4245396 117.3846025
  81.8815992 128.4013069 116.9021909  82.0490395 129.2693305 117.2692380
  81.6913161 128.5640351 115.9783199  81.8605213 130.8570726 117.8868576
  81.7404838 131.3027777 118.7254056  81.1657802 131.2056044 117.3282114
  87.5590279 131.3292200 118.7148910  88.4708135 131.5619586 118.5396608
  87.0499926 131.9129244 118.1523989  80.6556710 132.1715578 120.1802142
  81.3580753 132.6236622 120.6476068  80.3237338 131.5299397 120.8082035
  76.3496789 130.7943710 122.4402752  75.5527952 130.9062405 122.9586248
  76.1222381 131.1330363 121.5743643  73.3128788 134.8320613 121.6051743
  74.1504010 135.2417622 121.3885450  73.4907056 133.8920056 121.5751937
  85.2093220 132.4995694 117.2935576  84.6939844 133.2700299 117.5323963
  84.9370529 131.8260830 117.9168637  82.7940331 127.3445395 122.3520814
  81.9381928 126.9552245 122.1726453  83.2067283 127.4237356 121.4920600
  84.9979524 130.3722786 119.1195357  84.6929659 130.6868935 119.9705500
  85.9509966 130.4504206 119.1622690  78.1744683 127.1932676 123.1294922
  78.7488435 126.9707857 122.3968115  78.7615666 127.2621370 123.8823524
  78.5014270 129.2237137 117.1490808  77.6651582 129.5611823 117.4700082
  78.3619040 129.0886117 116.2117945  80.4767351 124.0673925 121.8569992
  79.8231763 123.7522942 121.2326607  80.4347825 123.4449665 122.5829815
  81.5878556 134.3493220 113.7723284  80.6805617 134.1182473 113.9714433
  82.0849588 133.5530839 113.9597265  82.7666789 134.4505815 118.2947274
  81.8578008 134.1664847 118.3919744  82.7961873 134.8704893 117.4350581
  87.0430603 121.7680642 123.8880878  87.3489480 120.9078006 123.6006793
  87.7683208 122.3598262 123.6879872  73.3354959 132.1711329 122.2762476
  73.1379359 131.5780689 121.5513543  72.7801623 131.8663539 122.9938415
  82.4642877 135.9914558 115.6335353  82.0262307 135.2750417 115.1740990
  83.2053318 136.2190673 115.0720444  79.2544043 130.6811495 122.1547448
  78.4411909 130.9805665 122.5612640  79.7503037 130.2867184 122.8721930
  75.8301185 131.6975363 119.9603428  74.8998773 131.6359818 120.1773390
  75.9258657 131.1751315 119.1640070  75.7486734 128.2230175 122.5481670
  76.0093552 129.1375509 122.4390830  76.5703907 127.7554618 122.6978283
  86.5854105 134.8498940 115.2267410  85.9683275 134.1245768 115.1300463
  86.1170593 135.6108300 114.8834484  78.3752650 129.0684364 114.3488714
  77.4982117 128.9473165 113.9850961  78.8510403 128.2770442 114.0967603
  69.8954791 133.8561524 124.4430222  70.5825830 133.5423254 123.8551237
  69.7402919 134.7602889 124.1697473  73.1031344 130.6626219 119.7901620
  73.3984785 129.7536898 119.7368674  72.2019380 130.6413959 119.4682622
  74.8319186 128.3440317 119.9140945  74.5031892 127.4637696 119.7316051
  75.1858557 128.2887986 120.8017335  77.9461009 128.6313287 120.2816423
  78.2857082 129.1599208 119.5595031  78.3933129 128.9693693 121.0574990
  79.9329156 127.1287908 118.4809716  80.6537519 127.5069161 117.9773433
  79.3094460 127.8476785 118.5844694  84.0760279 127.8333057 119.4168048
  84.2923893 128.7157695 119.1156876  83.5954346 127.4419271 118.6873690
  80.0792779 126.6635699 121.3107252  80.2008690 125.7352345 121.5098140
  79.7894822 126.6774385 120.3985568  82.9483970 124.3490609 124.4473972
  82.9705666 124.4129942 123.4925952  83.3652029 123.5095118 124.6414478
  76.8075471 134.2755009 120.4084208  76.5621513 133.3717339 120.6064419
  76.9771386 134.2772160 119.4663686  76.0771119 130.0083367 117.9070370
  75.3840364 130.0827722 117.2510406  75.8322871 129.2443710 118.4291887
  84.7484775 121.5678968 125.3109861  85.0286529 120.9002157 125.9370287
  85.5335382 121.7608064 124.7984524  82.9365042 132.0798775 114.2150939
  83.8824147 131.9504983 114.2839357  82.5579287 131.3413437 114.6920368
  81.1207959 130.0048751 114.1505825  80.2139415 129.7081864 114.2268538
  81.3983940 129.7078569 113.2840111  72.0385900 131.3255115 124.6004871
  71.7188684 130.4720423 124.3079245  71.4919328 131.5403693 125.3562838
  82.7370025 124.5485641 120.3050066  81.9270753 124.2032726 120.6805312
  83.4254442 124.2393185 120.8937677  84.6660573 123.6263688 121.9274363
  85.2191612 124.0459141 122.5864386  84.9030660 122.6999436 121.9697319
  79.8906744 126.8635686 114.2917804  80.7525908 127.1890585 114.5513621
  80.0757088 126.0767182 113.7790870  88.0439380 125.7364213 121.4353027
  87.4638050 126.3949017 121.0531079  87.7775313 124.9141557 121.0240444
  86.8264258 127.8964303 120.4909375  85.9390114 128.1813954 120.2729570
  87.2418248 127.7358067 119.6436652  85.9707472 137.6608978 114.5857395
  86.6743322 137.8658980 115.2015051  85.2470121 138.2285740 114.8506479
  80.8436187 124.1031729 117.5797513  80.8314857 125.0473569 117.7365784
  81.7359609 123.9201875 117.2856974  84.6588306 120.6974506 121.8343450
  83.8920702 120.1432993 121.9800132  85.0699011 120.7696375 122.6957601
  18.8798245  23.7913729 104.6929219  18.2286225  24.3767810 104.3063233
  19.6742608  24.3219924 104.7524257  12.8053872  20.8802866 105.0916353
  13.5784748  20.3331854 104.9529229  13.1579271  21.7447116 105.3030815
  15.1420150  17.0395533 102.7234803  15.3945671  16.5177054 101.9618266
  14.2044709  16.8761678 102.8261487  20.3573510  21.4804161 105.2298203
  19.7219343  21.5538788 105.9419108  20.0270917  22.0697760 104.5517283
  14.5849580  28.6584985 108.2604014  14.5073609  29.6092810 108.3392495
  13.9811223  28.3130857 108.9178940  22.5227754  16.3602816 105.4394217
  23.4345610  16.5930203 105.2641914  22.0137401  16.9439860 104.8769295
  25.0086568  22.2783072 110.1852162  24.3237606  22.6581974 109.6349195
  25.0930417  22.8878399 110.9184110  31.4689320  19.1453735 111.3054834
  30.7153029  18.5761133 111.1498839  31.6036862  19.1116400 112.2525469
  16.8587948  24.0167138 106.9809554  16.7233623  24.8618673 107.4094402
  17.3997761  24.2186415 106.2175488  20.1730695  17.5306311 104.0180882
  19.6577318  18.3010915 104.2569270  19.9008003  16.8571447 104.6413944
  25.1464969  20.2838665 105.9534056  24.3694412  19.9449825 105.5089218
  25.8256450  20.2891288 105.2789021  18.4063430  21.5623626 107.4933618
  17.8784791  20.8276386 107.1806855  17.9050933  22.3398302 107.2473586
  16.5516030  19.3803836 100.4968591  15.6443092  19.1493090 100.6959740
  17.0487062  18.5841455 100.6842572  19.4584109  28.0901343 103.4165277
  18.7845808  28.3933040 104.0250235  19.8449931  28.8930424 103.0670734
  17.7304263  19.4816431 105.0192581  16.8215483  19.1975464 105.1165050
  17.7599347  19.9015510 104.1595888  22.9623531  23.0923021 108.7883748
  22.5085858  22.2513930 108.8448939  22.3317498  23.7284419 109.1258528
  21.4056470  24.9299517 109.7233566  21.6979444  25.4904574 109.0045932
  21.9155091  25.2228078 110.4786725  17.4280351  21.0225175 102.3580659
  16.9899781  20.3061034 101.8986297  18.1690792  21.2501290 101.7965751
  25.5453466  19.2982372 108.4156978  25.4071365  19.4883968 107.4878167
  25.1889685  20.0601755 108.8725029  17.6575324  28.2581016 105.6312356
  17.8327080  27.7869059 106.4457979  16.9708112  28.8846782 105.8593617
  21.5491579  19.8809556 101.9512717  20.9320749  19.1556385 101.8545770
  21.0808067  20.6418917 101.6079791  13.3390125  14.0994981 101.0734021
  12.4619591  13.9783782 100.7096268  13.8147878  13.3081059 100.8212910
  16.5254051  26.4521271 108.3196542  15.7421573  26.9942951 108.4134766
  17.2246796  26.9695251 108.7190783  20.9180482  21.0187588 108.5369170
  19.9836760  21.1389050 108.3673875  21.0957150  20.1160055 108.2729180
  22.3729264  23.2048728 106.0705357  22.6489108  23.0905323 106.9799231
  21.5033763  22.8066213 106.0317530  19.0083328  27.4535079 109.7138170
  19.1905723  26.6356735 110.1765923  19.8316314  27.6702771 109.2763060
  19.3425494  26.3803264 106.9753219  19.8713260  25.8695719 106.3623381
  19.6053713  26.0645795 107.8398752  22.4365677  26.3520063 107.5908202
  22.6102555  25.7866485 106.8382054  22.9294568  27.1520957 107.4087692
  28.2905068  19.1156485 109.2098501  28.7336214  18.3663811 108.8117625
  27.4131579  19.1066622 108.8272233  23.4240850  25.6686827 104.6905100
  24.1191754  26.2893520 104.9092415  23.7664000  24.8182178 104.9657478
  25.3232273  23.1186532 106.2192431  25.8483597  23.4573805 105.4941751
  25.2354625  22.1833548 106.0355565  17.0072933  29.1858516 110.5787684
  16.5677924  28.6934894 111.2720541  17.7581050  28.6431483 110.3379759
  14.0160312  23.2800448 106.1268446  14.1648433  23.9635913 105.4735119
  14.8226756  23.2605538 106.6417902  27.8337933  20.5861724 111.6020949
  28.6684824  21.0251528 111.7658509  27.9697062  20.1100377 110.7829195
  17.5155718  25.7748579 103.5980194  16.9429685  26.3938766 103.1450665
  18.0888512  26.3247940 104.1320115  20.7352978  26.0585729 104.7288776
  21.6683651  25.9931290 104.9321651  20.6476191  26.8941996 104.2703308
  23.3640994  25.3751599 101.6892723  23.2854626  25.0411463 102.5828481
  24.1850661  25.8673367 101.6884196  17.9002517  17.1109391 100.9396246
  18.8461621  16.9815599 101.0084664  17.5216761  16.3724053 101.4165674
  16.0845434  15.0359368 100.8751131  15.1776889  14.7392480 100.9513845
  16.3621415  14.7389186 100.0085417  14.8544218  11.8946303 101.0163110
  15.7163382  12.2201201 101.2758928  15.0394562  11.1077799 100.5036176
  20.9344946  22.6919594 101.3102702  21.6380796  22.8969597 101.9260357
  20.2107595  23.2596356 101.5751785  21.7642757  18.4429456 107.4304972
  21.7077958  18.8998007 106.5912604  22.3171099  17.6820140 107.2527815
  22.8431644  23.1302124 103.3601162  23.6777248  22.6983322 103.1778637
  22.6815987  22.9584137 104.2878056  22.4977536  19.6334237 104.7257501
  22.4426340  19.4678508 103.7845945  21.8723591  20.3410270 104.8819691
  31.4715919  33.6471775 113.4556338  32.1094329  33.5278522 112.7519679
  31.3536762  34.5952619 113.5144291  28.2805625  33.5999203 113.3917863
  27.9424137  33.4840268 112.5038398  29.1495393  33.1990368 113.3718869
  24.1392441  35.4534679 109.3814754  23.5757306  35.3624616 108.6131042
  24.0244836  34.6334584 109.8617247  28.7625408  34.7534055 119.3504069
  28.7514049  34.3586853 118.4784572  28.9246048  34.0200127 119.9437840
  21.6856873  36.9485871 112.2198975  22.4778165  36.6076696 111.8045274
  21.9253523  37.0580846 113.1401128  29.7191999  39.1205647 104.6929219
  29.0679979  39.7059727 104.3063233  30.5136362  39.6511842 104.7524257
  23.6447627  36.2094784 105.0916353  24.4178503  35.6623771 104.9529229
  23.9973025  37.0739033 105.3030815  25.4832669  37.5371166 118.2983253
  25.1922535  38.4416797 118.1829919  26.1189654  37.5787694 119.0127322
  26.4088876  34.9148015 114.8884612  27.0052448  34.6904037 114.1741575
  26.4663848  34.1732760 115.4910060  25.9813904  32.3687450 102.7234803
  26.2339425  31.8468972 101.9618266  25.0438464  32.2053596 102.8261487
  31.0257187  31.3723229 110.5309547  31.8120276  30.9542652 110.1799964
  31.2895892  32.2769321 110.6991195  31.1967265  36.8096079 105.2298203
  30.5613098  36.8830705 105.9419108  30.8664671  37.3989678 104.5517283
  36.4265614  31.3098462 111.4342525  37.1590786  30.7397679 111.6680355
  35.6704970  30.9220062 111.8749031  25.7010193  34.2715556 104.9259178
  25.5846451  33.5960460 105.5940263  25.8112453  33.7847930 104.1091331
  28.0441734  33.7325703 108.6305867  27.6799941  33.2056324 109.3418789
  28.9008850  33.3424172 108.4572353  33.9491035  25.0220036 115.8937134
  33.6174360  25.8915447 115.6698349  33.3536648  24.7056320 116.5731164
  27.6847221  28.7615603 103.6267216  27.8521623  29.6295839 103.9937687
  27.4944390  28.9242885 102.7028505  30.4422554  37.2232582 115.2933046
  30.1423277  38.1257621 115.1848854  30.0973614  36.9564765 116.1454199
  23.8935036  33.6746379 111.3269751  22.9685532  33.5422593 111.5347443
  24.1419449  34.4540598 111.8239693  33.8419698  29.7415122 112.9730484
  32.9336575  29.6730531 112.6789245  33.7907294  30.2187067 113.8012309
  27.6636442  31.2173261 104.6113883  27.5436067  31.6630311 105.4499363
  26.9689030  31.5658578 104.0527421  21.2543847  33.3179652 112.1613540
  21.3836228  33.5714131 113.0752952  20.5741298  33.9107360 111.8418195
  25.4243334  43.9876902 108.2604014  25.3467364  44.9384727 108.3392495
  24.8204978  43.6422775 108.9178940  35.7081344  27.9431561 114.7508358
  35.0655725  28.2364094 114.1048152  35.2036273  27.8284481 115.5561554
  33.3621508  31.6894734 105.4394217  34.2739364  31.9222120 105.2641914
  32.8531155  32.2731778 104.8769295  31.6462276  36.1119362 119.0755509
  32.0545632  35.6701772 118.3310142  30.9239537  35.5371989 119.3289702
  27.9993346  31.0491968 116.4489066  28.8454541  31.4731382 116.5923715
  27.9391983  30.3925593 117.1427630  31.9691090  36.6720552 112.8307798
  31.3399953  36.8366266 112.1283866  31.5816753  37.0862162 113.6018762
  35.8480322  37.6074990 110.1852162  35.1631360  37.9873891 109.6349195
  35.9324172  38.2170317 110.9184110  33.1031254  35.2534949 116.7847506
  33.3148149  35.8966709 116.1081887  33.0561002  34.4197266 116.3169436
  30.7057483  27.8652770 113.6884078  29.8441962  28.1634023 113.9800815
  30.7319918  28.0823169 112.7565110  27.5219052  36.4094960 110.0957883
  27.9857398  36.6882663 109.3062506  27.2575850  35.5078405 109.9130974
  24.4143133  35.9566442 113.0337647  24.9844490  36.3853710 112.3955131
  25.0051245  35.6749027 113.7321832  26.4587938  32.5318113 106.9047449
  27.1611982  32.9839156 107.3721375  26.1268567  31.8901931 107.5327342
  20.2013272  30.7901665 112.2064582  19.4112326  31.0459194 111.7304693
  20.6924520  31.6050003 112.3116623  34.2177082  38.1306904 114.9569863
  35.0394526  37.7287092 114.6752545  34.2139485  38.0275139 115.9085979
  22.1528018  31.1546245 109.1648059  21.3559181  31.2664939 109.6831555
  21.9253610  31.4932897 108.2988949  27.9833685  37.6790948 117.1130573
  28.0478118  38.1411355 117.9488745  27.2744609  37.0488313 117.2412883
  42.3083075  34.4745653 111.3054834  41.5546783  33.9053051 111.1498839
  42.4430616  34.4408317 112.2525469  27.6981703  39.3459055 106.9809554
  27.5627378  40.1910591 107.4094402  28.2391515  39.5478333 106.2175488
  21.1511100  36.8634493 107.5537479  21.6635621  37.6577744 107.7043044
  21.8033813  36.1660784 107.4871080  22.9605985  39.9800250 109.6360232
  23.1372613  40.9018214 109.4481216  23.7562819  39.6658669 110.0654612
  29.3250179  39.9682622 121.1109896  28.8814034  39.1819000 120.7930800
  29.9867393  40.1561772 120.4453787  24.0837301  41.4978423 115.6370574
  24.6344726  41.3695487 114.8647568  23.2448776  41.7973312 115.2865467
  31.4231417  40.2485422 119.1391297  31.4049893  41.0694303 118.6471566
  32.3451337  40.1239497 119.3641438  27.8804472  37.7629551 119.9814806
  28.4132808  37.0017839 119.7514113  27.3518553  37.4703203 120.7238960
  19.1160017  35.1923148 108.3297049  19.9535239  35.6020156 108.1130757
  19.2938285  34.2522590 108.2997243  31.0124449  32.8598228 104.0180882
  30.4971073  33.6302833 104.2569270  30.7401758  32.1863364 104.6413944
  28.5971560  27.7047929 109.0766121  27.7413157  27.3154779 108.8971759
  29.0098512  27.7839890 108.2165906  30.1270707  25.2394272 113.4757681
  29.6235503  25.2024407 112.6625486  30.4201314  26.1487015 113.5354337
  26.3713593  25.3233002 112.4823862  27.2366590  25.1275811 112.1229752
  26.4391102  25.0943354 113.4093219  35.9858723  35.6130583 105.9534056
  35.2088166  35.2741742 105.5089218  36.6650204  35.6183206 105.2789021
  30.8010752  30.7325320 105.8440664  30.4960888  31.0471470 106.6950807
  31.7541195  30.8106740 105.8867997  29.2457184  36.8915544 107.4933618
  28.7178546  36.1568303 107.1806855  28.7444687  37.6690220 107.2473586
  34.2250030  35.0864564 112.6100664  33.5673705  35.7763826 112.6980792
  35.0290430  35.4760996 112.9534650  23.9775912  27.5535210 109.8540229
  24.5519664  27.3310391 109.1213422  24.5646894  27.6223904 110.6068830
  33.0355489  33.4408937 110.6604606  33.5487371  34.0738929 111.1626315
  33.6856713  32.8410132 110.2947966  24.3045499  29.5839671 103.8736114
  23.4682811  29.9214358 104.1945389  24.1650269  29.4488651 102.9363251
  26.2798580  24.4276459 108.5815298  25.6262992  24.1125476 107.9571913
  26.2379054  23.8052199 109.3075121  27.3909784  34.7095754 100.4968591
  26.4836846  34.4785007 100.6959740  27.8880816  33.9133373 100.6842572
  30.2977863  43.4193261 103.4165277  29.6239562  43.7224958 104.0250235
  30.6843685  44.2222341 103.0670734  29.5136320  30.9158392 112.9062946
  28.5958881  31.1373339 112.7484634  29.9296464  30.9904703 112.0474653
  30.2971368  32.3149808 108.0365626  31.0443187  32.8271205 107.7272748
  30.5662957  31.9933861 108.8970020  28.5698018  34.8108349 105.0192581
  27.6609237  34.5267382 105.1165050  28.5993102  35.2307427 104.1595888
  33.8017285  38.4214938 108.7883748  33.3479612  37.5805848 108.8448939
  33.1711252  39.0576337 109.1258528  32.7450205  29.3506924 110.0184416
  32.0072962  28.8384311 110.3494658  32.9976978  28.9107306 109.2067693
  32.2450225  40.2591435 109.7233566  32.5373199  40.8196492 109.0045932
  32.7548845  40.5519996 110.4786725  32.8461832  22.1283176 110.6126185
  33.1520709  21.2680540 110.3252100  33.5714437  22.7200797 110.4125179
  19.1386188  32.5313863 109.0007783  18.9410588  31.9383224 108.2758849
  18.5832852  32.2266073 109.7183722  27.1182912  32.4236969 111.1202376
  27.1731522  31.4710806 111.0444853  26.3074114  32.5796408 111.6043674
  28.2674106  36.3517092 102.3580659  27.8293536  35.6352951 101.8986297
  29.0084547  36.5793207 101.7965751  25.0575272  31.0414029 108.8792755
  24.2443137  31.3408200 109.2857947  25.5534266  30.6469718 109.5967237
  27.2083850  41.0371786 110.8127020  27.1660029  41.2632632 109.8835552
  28.1246549  40.8035161 110.9612821  30.6549484  31.5055854 117.7107649
  31.0098871  31.7327327 118.5702115  31.3021615  31.8374230 117.0884904
  36.3847220  34.6274289 108.4156978  36.2465119  34.8175885 107.4878167
  36.0283439  35.3893672 108.8725029  24.5489347  28.6132385 114.4953990
  25.1888726  28.4721144 113.7976953  23.7166877  28.3266898 114.1192592
  36.4116600  36.6950816 113.4268249  36.8453107  36.6026106 114.2751303
  37.1248181  36.6708317 112.7888265  25.3249651  37.9134815 110.6088982
  26.1190249  37.4185135 110.4071557  24.6141343  37.3852678 110.2456688
  30.1444495  40.2952911 114.9601350  30.1981517  40.8643847 115.7279066
  29.2759276  40.4654796 114.5955387  21.6332414  32.0577897 106.6848735
  20.7030002  31.9962352 106.9018697  21.7289886  31.5353850 105.8885376
  21.5517963  28.5832710 109.2726977  21.8124780  29.4978043 109.1636137
  22.3735135  28.1157152 109.4223589  37.2732150  36.7374517 115.9601135
  37.4668040  37.6420328 116.2060410  37.1732768  36.2781936 116.7939720
  32.3347258  36.8881260 121.5342015  32.1832765  36.6591812 120.6172099
  32.3251938  37.8451861 121.5473360  29.1032595  34.4613173 116.5188282
  30.0324655  34.6124332 116.3457249  28.6823625  34.5497193 115.6636928
  27.9020927  38.4863837 114.2886819  27.7632012  38.1182621 115.1612757
  27.1135523  39.0011476 114.1170777  28.4969078  43.5872934 105.6312356
  28.6720834  43.1160977 106.4457979  27.8101867  44.2138700 105.8593617
  29.4526142  37.8645440 111.6775657  29.1175974  37.8246210 112.5733307
  28.9530087  37.1990156 111.2046067  32.3885333  35.2101474 101.9512717
  31.7714504  34.4848302 101.8545770  31.9201822  35.9710834 101.6079791
  26.0552686  32.9833029 116.6911918  26.7652305  32.3426221 116.6498536
  26.0121994  33.2345924 117.6138099  34.0439465  39.9200382 119.6118497
  33.9852011  39.2359603 118.9449080  34.4458983  40.6619372 119.1599123
  23.0630164  46.7362296 112.4052216  23.3026762  47.3680820 113.0831235
  22.2199360  46.3850336 112.6917575  24.1783879  29.4286898 101.0734021
  23.3013346  29.3075699 100.7096268  24.6541632  28.6372977 100.8212910
  34.0456872  37.8839966 117.8432477  33.1583651  37.5465888 117.9658876
  34.6155423  37.1522998 118.0801242  15.6986019  34.2164058 111.1675528
  16.3857059  33.9025788 110.5796544  15.5434148  35.1205423 110.8942780
  27.5758026  42.5441419 114.8093720  27.5028197  43.3496390 115.3213025
  27.1335419  42.7433385 113.9841741  27.3647805  41.7813189 108.3196542
  26.5815327  42.3234869 108.4134766  28.0640550  42.2987168 108.7190783
  30.6744455  27.5907818 110.9630747  31.1713155  26.8377781 110.6431817
  29.9031437  27.6272135 110.3973956  38.5274213  33.2948184 112.6049039
  38.5164089  34.1772899 112.2342972  37.6591592  32.9419735 112.4103576
  30.0356709  42.4428253 116.9651879  30.7484681  43.0775718 116.8927780
  29.5446738  42.5392119 116.1491881  31.7574236  36.3479505 108.5369170
  30.8230515  36.4680968 108.3673875  31.9350905  35.4451972 108.2729180
  27.2579424  29.7325201 110.6902432  26.8877212  29.1796242 111.3783337
  27.7538517  29.1283335 110.1377432  35.1446787  32.1896825 109.0719205
  35.6107240  33.0224816 108.9979507  35.5954288  31.7241806 109.7764463
  25.0868623  40.1922696 117.7857450  25.7878082  40.8259179 117.9386844
  24.6163738  40.5337428 117.0253089  33.2123019  38.5340646 106.0705357
  33.4882862  38.4197241 106.9799231  32.3427517  38.1358131 106.0317530
  33.1163450  24.5577412 113.1110106  32.2026530  24.7881639 113.2792313
  33.5456552  24.6415856 113.9624138  32.8869909  32.7467304 115.6110000
  32.2341359  32.9943211 114.9562453  33.2650289  31.9331442 115.2772477
  29.8477083  42.7826997 109.7138170  30.0299477  41.9648653 110.1765923
  30.6710069  42.9994689 109.2763060  30.1819248  41.7095182 106.9753219
  30.7107014  41.1987637 106.3623381  30.4447468  41.3937712 107.8398752
  20.6836341  39.7259051 114.7188552  21.2689778  38.9802739 114.8516456
  20.4861179  40.0363008 115.6025216  23.5374996  42.7610299 109.7350995
  22.8685371  43.2456426 109.2515035  23.3987866  43.0079519 110.6494373
  27.6780265  44.7954042 116.3333653  28.2298573  44.9585664 117.0982738
  28.0186458  45.3858480 115.6613678  32.5291139  39.6215300 122.1882307
  33.0731043  40.2345258 121.6937262  31.9477984  40.1794878 122.7049320
  18.9062573  31.0228754 106.5146927  19.2016014  30.1139432 106.4613980
  18.0050609  31.0016493 106.1927929  30.8148652  42.7436018 113.3197335
  30.6899791  41.9425758 112.8108281  31.4727743  43.2382211 112.8311305
  22.4356820  29.0984750 112.4974475  21.7143406  29.7120718 112.3581949
  23.2250076  29.6342515 112.4191121  32.8783560  40.5445038 114.9476885
  31.9313896  40.4250389 114.8755212  33.2266333  39.6567536 115.0303147
  20.6350415  28.7042851 106.6386252  20.3063121  27.8240230 106.4561358
  20.9889785  28.6490520 107.5262641  29.8829994  40.3397754 111.1481237
  29.7354956  39.4114461 111.3288807  30.7083487  40.3617845 110.6638313
  23.7492238  28.9915821 107.0061730  24.0888310  29.5201742 106.2840338
  24.1964358  29.3296227 107.7820296  33.4864115  41.1626313 112.2346110
  34.4110663  40.9569174 112.0970561  33.3179419  40.9142714 113.1435452
  25.7360385  27.4890443 105.2055022  26.4568747  27.8671695 104.7018739
  25.1125689  28.2079320 105.3090000  29.8791508  28.1935592 106.1413355
  30.0955122  29.0760230 105.8402183  29.3985575  27.8021805 105.4118997
  24.6190729  31.1521305 112.7184099  24.4735310  31.4661608 113.6108381
  24.1415933  31.7706205 112.1654998  26.4787112  28.1423853 112.7664989
  26.4648681  27.2464946 112.4297287  27.1959540  28.1494517 113.4003275
  28.3313243  28.5761193 114.8118116  28.0731021  29.4978264 114.8102447
  27.7998283  28.1791628 115.5018580  33.2759432  41.6811980 107.5908202
  33.4496309  41.1158403 106.8382054  33.7688323  42.4812875 107.4087692
  19.0936391  33.6926649 115.6571760  18.5489859  34.4686457 115.7892035
  19.9715741  34.0397454 115.4990882  25.8824008  27.0238233 108.0352559
  26.0039919  26.0954879 108.2343446  25.5926050  27.0376919 107.1230874
  28.7515198  24.7093144 111.1719279  28.7736895  24.7732477 110.2171258
  29.1683257  23.8697652 111.3659785  39.1298823  34.4448403 109.2098501
  39.5729969  33.6955728 108.8117625  38.2525333  34.4358540 108.8272233
  34.2634604  40.9978745 104.6905100  34.9585509  41.6185437 104.9092415
  34.6057754  40.1474096 104.9657478  36.1626027  38.4478450 106.2192431
  36.6877351  38.7865723 105.4941751  36.0748380  37.5125465 106.0355565
  27.8246076  42.3612524 118.3482307  28.1333202  42.1161671 119.2205007
  28.6221558  42.5659162 117.8601178  27.8466688  44.5150433 110.5787684
  27.4071678  44.0226812 111.2720541  28.5974805  43.9723401 110.3379759
  20.3259027  40.7061974 110.5812312  21.1517047  40.4065746 110.2010955
  19.9753079  39.9369597 111.0302101  25.2940560  40.0588443 112.6509986
  24.6720569  39.3959148 112.3512213  25.9645427  40.0849574 111.9683633
  18.5267632  38.6248301 111.5401246  17.6899540  38.1970475 111.3585247
  18.4991277  38.8180744 112.4772037  35.8519933  39.0811354 121.5243629
  35.0615477  39.0635493 120.9848128  35.6153288  39.6199647 122.2792665
  35.9717808  35.9303820 118.8376357  36.0215813  35.7653828 119.7791880
  35.8631732  35.0631079 118.4474238  24.8554067  38.6092366 106.1268446
  25.0042187  39.2927830 105.4735119  25.6620510  38.5897456 106.6417902
  37.4736005  38.3500762 119.0818379  37.1820813  38.7130742 119.9181840
  36.8608136  37.6367770 118.9031711  38.6731687  35.9153641 111.6020949
  39.5078579  36.3543446 111.7658509  38.8090816  35.4392295 110.7829195
  35.7223193  33.4733376 117.5498437  36.1977315  33.6661023 116.7417288
  34.7988759  33.5292562 117.3041820  22.6106700  34.6357543 107.1329515
  22.3652742  33.7319873 107.3309725  22.7802615  34.6374694 106.1908993
  21.8802347  30.3685901 104.6315676  21.1871592  30.4430256 103.9755712
  21.6354099  29.6046245 105.1537193  30.5516004  21.9281502 112.0355167
  30.8317758  21.2604691 112.6615594  31.3366611  22.1210598 111.5229831
  28.3549473  41.1040496 103.5980194  27.7823440  41.7230683 103.1450665
  28.9282266  41.6539858 104.1320115  34.4224862  30.3499136 115.7826742
  35.3742285  30.4497234 115.8038966  34.2528313  29.5577405 116.2924827
  32.4439242  27.4354720 115.9686143  31.8489174  27.7159732 115.2732632
  32.1588939  27.9248621 116.7402884  31.5746732  41.3877646 104.7288776
  32.5077405  41.3223208 104.9321651  31.4869945  42.2233913 104.2703308
  34.2034749  40.7043517 101.6892723  34.1248380  40.3703380 102.5828481
  35.0244416  41.1965285 101.6884196  36.9012940  33.5705256 114.8969042
  36.8689260  32.6321257 115.0828726  37.5113564  33.6489293 114.1634867
  28.7396271  32.4401309 100.9396246  29.6855376  32.3107517 101.0084664
  28.3610516  31.7015971 101.4165674  37.0507429  30.3616299 114.9427325
  36.5346477  29.5774756 114.7557254  37.9347377  30.0335016 115.1073845
  34.7118156  24.1057315 110.9023138  34.5142977  23.7972403 111.7866470
  35.3217861  24.8318954 111.0321068  42.7189490  34.6321263 114.0375079
  43.4492878  34.3706551 114.5982782  42.1096435  33.8949985 114.0777147
  40.8004787  32.7729125 114.6349530  40.0737951  32.6385090 114.0266022
  40.3852074  33.0805954 115.4406248  26.9239188  30.3651285 100.8751131
  26.0170644  30.0684398 100.9513845  27.2015169  30.0681104 100.0085417
  17.8417129  31.6857649 111.3250178  17.5219913  30.8322957 111.0324552
  17.2950557  31.9006227 112.0808145  21.6197036  34.4020090 115.0419684
  21.8383046  35.3337198 115.0607718  22.0322810  34.0428064 115.8274488
  28.5401254  24.9088175 107.0295373  27.7301982  24.5635260 107.4050619
  29.2285671  24.5995719 107.6182984  30.4691802  23.9866222 108.6519669
  31.0222841  24.4061675 109.3109692  30.7061889  23.0601970 108.6942625
  25.6937973  27.2238221 101.0163110  26.5557137  27.5493119 101.2758928
  25.8788317  26.4369717 100.5036176  17.7105389  35.3060560 113.2943299
  17.0168860  34.8914513 112.7813254  18.4578380  35.3481097 112.6976718
  33.8470609  26.0966747 108.1598333  33.2669278  26.7551551 107.7776386
  33.5806542  25.2744092 107.7485751  32.2974176  25.4971805 110.3619654
  32.7973954  25.6088339 109.5533973  32.9409784  25.1932858 111.0020462
  19.6242131  35.2378814 111.1709314  19.6012819  35.3366501 110.2191197
  19.9342768  36.0843965 111.4926480  22.2829509  37.2954969 115.2855929
  23.2372763  37.2638911 115.2185860  22.0842033  36.8345593 116.1006154
  22.8728891  35.8656085 117.8526726  23.6921780  36.3600164 117.8761563
  23.1465699  34.9488053 117.8244294  32.6295487  28.2566837 107.2154682
  31.7421342  28.5416488 106.9974876  33.0449476  28.0960601 106.3681959
  35.9810023  28.2813358 110.9309021  36.7570414  28.7709811 111.2033638
  35.2558158  28.7071413 111.3880890  38.4182582  28.9940978 111.9882962
  39.0127073  28.7536714 111.2776270  38.4909166  28.2748108 112.6156498
  20.6379738  42.8374589 112.3026126  20.5034206  42.0774990 111.7364124
  20.2211800  43.5615488 111.8354915  31.7738701  38.0211512 101.3102702
  32.4774551  38.2261515 101.9260357  31.0501350  38.5888274 101.5751785
  32.6036511  33.7721373 107.4304972  32.5471712  34.2289925 106.5912604
  33.1564853  33.0112058 107.2527815  36.4141317  29.5611105 108.2555091
  36.1578251  29.1607741 109.0863299  35.7894185  30.2754899 108.1305231
  40.7253655  32.3007179 110.7626383  40.1653213  32.3700368 111.5357945
  40.1197158  32.1248163 110.0425879  23.7948864  43.7343906 112.5144569
  23.6781248  44.6789338 112.4123259  22.9741310  43.4317467 112.9030368
  33.6825398  38.4594041 103.3601162  34.5171002  38.0275240 103.1778637
  33.5209741  38.2876055 104.2878056  33.3371290  34.9626155 104.7257501
  33.2820094  34.7970426 103.7845945  32.7117346  35.6702188 104.8819691
  26.6467416  24.4634264 104.3042819  26.6346086  25.4076104 104.4611090
  27.5390838  24.2804409 104.0102281  24.8203378  44.3872168 115.7300497
  25.7230624  44.4195778 116.0466992  24.5940748  43.4572618 115.7446833
  26.5756980  43.1403154 112.3910576  25.6252611  43.1405016 112.2774948
  26.8789466  42.3935889 111.8746611  30.4619535  21.0577040 108.5588756
  29.6951931  20.5035527 108.7045439  30.8730240  21.1298909 109.4202908
  42.3109673  48.9763692 113.4556338  42.9488083  48.8570440 112.7519679
  42.1930516  49.9244536 113.5144291  39.1199380  48.9291121 113.3917863
  38.7817891  48.8132185 112.5038398  39.9889148  48.5282286 113.3718869
  34.9786195  50.7826597 109.3814754  34.4151060  50.6916534 108.6131042
  34.8638590  49.9626501 109.8617247  39.6019163  50.0825972 119.3504069
  39.5907803  49.6878771 118.4784572  39.7639802  49.3492045 119.9437840
  32.5250627  52.2777789 112.2198975  33.3171919  51.9368613 111.8045274
  32.7647277  52.3872764 113.1401128  40.5585754  54.4497565 104.6929219
  39.9073734  55.0351645 104.3063233  41.3530117  54.9803760 104.7524257
  34.4841381  51.5386702 105.0916353  35.2572257  50.9915689 104.9529229
  34.8366780  52.4030951 105.3030815  36.3226424  52.8663084 118.2983253
  36.0316290  53.7708715 118.1829919  36.9583408  52.9079612 119.0127322
  37.2482631  50.2439933 114.8884612  37.8446203  50.0195955 114.1741575
  37.3057602  49.5024678 115.4910060  36.8207659  47.6979368 102.7234803
  37.0733180  47.1760889 101.9618266  35.8832218  47.5345513 102.8261487
  41.8650942  46.7015146 110.5309547  42.6514031  46.2834569 110.1799964
  42.1289646  47.6061239 110.6991195  42.0361019  52.1387997 105.2298203
  41.4006852  52.2122623 105.9419108  41.7058426  52.7281595 104.5517283
  47.2659369  46.6390380 111.4342525  47.9984541  46.0689596 111.6680355
  46.5098725  46.2511980 111.8749031  36.5403948  49.6007474 104.9259178
  36.4240206  48.9252377 105.5940263  36.6506208  49.1139848 104.1091331
  38.8835489  49.0617621 108.6305867  38.5193696  48.5348242 109.3418789
  39.7402605  48.6716090 108.4572353  44.7884789  40.3511954 115.8937134
  44.4568114  41.2207365 115.6698349  44.1930403  40.0348238 116.5731164
  38.5240976  44.0907521 103.6267216  38.6915378  44.9587757 103.9937687
  38.3338145  44.2534802 102.7028505  41.2816309  52.5524500 115.2933046
  40.9817032  53.4549538 115.1848854  40.9367368  52.2856683 116.1454199
  34.7328790  49.0038296 111.3269751  33.8079287  48.8714511 111.5347443
  34.9813203  49.7832516 111.8239693  44.6813453  45.0707040 112.9730484
  43.7730330  45.0022448 112.6789245  44.6301048  45.5478985 113.8012309
  38.5030196  46.5465178 104.6113883  38.3829822  46.9922229 105.4499363
  37.8082785  46.8950496 104.0527421  32.0937601  48.6471570 112.1613540
  32.2229982  48.9006049 113.0752952  31.4135053  49.2399278 111.8418195
  36.2637089  59.3168820 108.2604014  36.1861118  60.2676645 108.3392495
  35.6598732  58.9714692 108.9178940  38.7554318  46.4896685 120.9165381
  37.9787652  47.0490606 120.9068246  39.3944881  46.9753468 121.4380251
  46.5475099  43.2723478 114.7508358  45.9049479  43.5656011 114.1048152
  46.0430027  43.1576399 115.5561554  44.2015263  47.0186651 105.4394217
  45.1133119  47.2514038 105.2641914  43.6924910  47.6023696 104.8769295
  37.0100691  49.2982139 120.4783348  37.7515375  49.8367183 120.2018172
  36.3037676  49.9248428 120.6354900  42.4856030  51.4411279 119.0755509
  42.8939386  50.9993690 118.3310142  41.7633292  50.8663907 119.3289702
  38.8387100  46.3783886 116.4489066  39.6848296  46.8023300 116.5923715
  38.7785738  45.7217510 117.1427630  42.8084845  52.0012470 112.8307798
  42.1793707  52.1658184 112.1283866  42.4210507  52.4154079 113.6018762
  46.6874077  52.9366908 110.1852162  46.0025115  53.3165809 109.6349195
  46.7717926  53.5462234 110.9184110  41.9886546  44.0388254 118.1070240
  41.7447478  44.7930315 117.5704516  42.2646476  44.4173602 118.9417487
  43.9425008  50.5826867 116.7847506  44.1541904  51.2258627 116.1081887
  43.8954757  49.7489183 116.3169436  41.5451237  43.1944687 113.6884078
  40.6835716  43.4925941 113.9800815  41.5713672  43.4115086 112.7565110
  38.3612807  51.7386878 110.0957883  38.8251152  52.0174581 109.3062506
  38.0969605  50.8370323 109.9130974  35.2536888  51.2858359 113.0337647
  35.8238245  51.7145628 112.3955131  35.8445000  51.0040944 113.7321832
  37.2981693  47.8610030 106.9047449  38.0005736  48.3131074 107.3721375
  36.9662321  47.2193849 107.5327342  35.7462054  46.4521787 121.2798658
  35.1160715  47.1338068 121.5134055  35.6398142  46.3404869 120.3351796
  31.0407027  46.1193583 112.2064582  30.2506081  46.3751112 111.7304693
  31.5318274  46.9341921 112.3116623  45.0570836  53.4598822 114.9569863
  45.8788280  53.0579009 114.6752545  45.0533239  53.3567056 115.9085979
  32.9921772  46.4838162 109.1648059  32.1952935  46.5956856 109.6831555
  32.7647364  46.8224814 108.2988949  38.8227440  53.0082865 117.1130573
  38.8871872  53.4703273 117.9488745  38.1138364  52.3780230 117.2412883
  29.3244730  46.3724073 114.6379573  29.5752768  47.2571083 114.9037149
  29.8604278  46.1928675 113.8654665  53.1476829  49.8037571 111.3054834
  52.3940538  49.2344969 111.1498839  53.2824371  49.7700235 112.2525469
  38.5375457  54.6750973 106.9809554  38.4021132  55.5202509 107.4094402
  39.0785270  54.8770251 106.2175488  35.0242797  40.7542553 123.6423909
  34.6309743  40.2008751 124.3171553  35.8408937  41.0653131 124.0330427
  31.9904855  52.1926411 107.5537479  32.5029375  52.9869661 107.7043044
  32.6427568  51.4952701 107.4871080  33.7999740  55.3092167 109.6360232
  33.9766368  56.2310132 109.4481216  34.5956573  54.9950586 110.0654612
  37.9410758  42.1700432 121.2344166  38.6820471  42.7707585 121.1548628
  38.1728681  41.4278070 120.6762208  33.0852096  47.3556799 119.5122395
  32.9705611  46.4542056 119.8129494  32.2296614  47.6020496 119.1607212
  40.1643934  55.2974539 121.1109896  39.7207788  54.5110918 120.7930800
  40.8261147  55.4853690 120.4453787  34.9231055  56.8270341 115.6370574
  35.4738480  56.6987404 114.8647568  34.0842531  57.1265230 115.2865467
  42.2625172  55.5777339 119.1391297  42.2443647  56.3986220 118.6471566
  43.1845092  55.4531415 119.3641438  38.7198226  53.0921469 119.9814806
  39.2526563  52.3309757 119.7514113  38.1912307  52.7995121 120.7238960
  41.8867921  38.1981535 115.5108447  41.5432190  39.0883176 115.4347558
  42.2546884  38.0083192 114.6478032  29.9553772  50.5215065 108.3297049
  30.7928994  50.9312074 108.1130757  30.1332039  49.5814507 108.2997243
  41.8518204  48.1890146 104.0180882  41.3364827  48.9594751 104.2569270
  41.5795512  47.5155282 104.6413944  39.4365315  43.0339847 109.0766121
  38.5806911  42.6446697 108.8971759  39.8492267  43.1131808 108.2165906
  40.9664461  40.5686190 113.4757681  40.4629257  40.5316325 112.6625486
  41.2595068  41.4778933 113.5354337  37.2107347  40.6524920 112.4823862
  38.0760344  40.4567728 112.1229752  37.2784856  40.4235271 113.4093219
  46.8252478  50.9422501 105.9534056  46.0481921  50.6033660 105.5089218
  47.5043959  50.9475124 105.2789021  41.6404507  46.0617238 105.8440664
  41.3354642  46.3763387 106.6950807  42.5934949  46.1398658 105.8867997
  40.0850939  52.2207461 107.4933618  39.5572300  51.4860221 107.1806855
  39.5838441  52.9982138 107.2473586  45.0643785  50.4156482 112.6100664
  44.4067459  51.1055743 112.6980792  45.8684184  50.8052914 112.9534650
  34.8169666  42.8827128 109.8540229  35.3913418  42.6602309 109.1213422
  35.4040649  42.9515822 110.6068830  43.8749244  48.7700855 110.6604606
  44.3881125  49.4030846 111.1626315  44.5250467  48.1702050 110.2947966
  35.1439253  44.9131589 103.8736114  34.3076566  45.2506275 104.1945389
  35.0044023  44.7780568 102.9363251  37.1192334  39.7568377 108.5815298
  36.4656746  39.4417394 107.9571913  37.0772808  39.1344117 109.3075121
  38.2303539  50.0387672 100.4968591  37.3230601  49.8076925 100.6959740
  38.7274571  49.2425291 100.6842572  41.1371618  58.7485179 103.4165277
  40.4633317  59.0516876 104.0250235  41.5237440  59.5514259 103.0670734
  40.3530074  46.2450310 112.9062946  39.4352636  46.4665257 112.7484634
  40.7690218  46.3196621 112.0474653  41.1365122  47.6441726 108.0365626
  41.8836941  48.1563123 107.7272748  41.4056712  47.3225778 108.8970020
  39.4091772  50.1400266 105.0192581  38.5002992  49.8559299 105.1165050
  39.4386856  50.5599345 104.1595888  44.6411040  53.7506856 108.7883748
  44.1873367  52.9097766 108.8448939  44.0105007  54.3868254 109.1258528
  43.5843959  44.6798842 110.0184416  42.8466716  44.1676228 110.3494658
  43.8370733  44.2399224 109.2067693  43.0843979  55.5883353 109.7233566
  43.3766953  56.1488410 109.0045932  43.5942600  55.8811914 110.4786725
  43.6855587  37.4575094 110.6126185  43.9914463  36.5972457 110.3252100
  44.4108192  38.0492714 110.4125179  29.9779943  47.8605781 109.0007783
  29.7804343  47.2675141 108.2758849  29.4226607  47.5557991 109.7183722
  37.9576666  47.7528887 111.1202376  38.0125276  46.8002723 111.0444853
  37.1467868  47.9088326 111.6043674  39.1067860  51.6809010 102.3580659
  38.6687290  50.9644869 101.8986297  39.8478301  51.9085125 101.7965751
  35.8969026  46.3705947 108.8792755  35.0836892  46.6700117 109.2857947
  36.3928021  45.9761636 109.5967237  38.0477604  56.3663704 110.8127020
  38.0053783  56.5924550 109.8835552  38.9640303  56.1327078 110.9612821
  41.4943238  46.8347771 117.7107649  41.8492626  47.0619244 118.5702115
  42.1415369  47.1666148 117.0884904  47.2240975  49.9566207 108.4156978
  47.0858874  50.1467803 107.4878167  46.8677194  50.7185590 108.8725029
  35.3883101  43.9424302 114.4953990  36.0282480  43.8013061 113.7976953
  34.5560632  43.6558816 114.1192592  47.2510355  52.0242734 113.4268249
  47.6846861  51.9318023 114.2751303  47.9641935  52.0000235 112.7888265
  36.1643405  53.2426733 110.6088982  36.9584004  52.7477053 110.4071557
  35.4535097  52.7144596 110.2456688  40.9838249  55.6244828 114.9601350
  41.0375272  56.1935765 115.7279066  40.1153031  55.7946713 114.5955387
  32.4726168  47.3869814 106.6848735  31.5423757  47.3254270 106.9018697
  32.5683640  46.8645767 105.8885376  32.3911718  43.9124627 109.2726977
  32.6518535  44.8269961 109.1636137  33.2128890  43.4449070 109.4223589
  33.8636643  45.3262384 116.4425801  34.5359696  45.1179747 115.7938450
  33.0366429  45.1284470 116.0031033  48.1125904  52.0666435 115.9601135
  48.3061794  52.9712245 116.2060410  48.0126522  51.6073854 116.7939720
  39.7662215  41.9524325 118.4591462  39.1190130  42.6514275 118.3655938
  40.5363230  42.3860469 118.8267710  43.1741013  52.2173178 121.5342015
  43.0226519  51.9883729 120.6172099  43.1645692  53.1743779 121.5473360
  39.9426349  49.7905090 116.5188282  40.8718409  49.9416250 116.3457249
  39.5217379  49.8789111 115.6636928  38.7414681  53.8155755 114.2886819
  38.6025767  53.4474539 115.1612757  37.9529277  54.3303394 114.1170777
  39.3362833  58.9164851 105.6312356  39.5114589  58.4452894 106.4457979
  38.6495621  59.5430617 105.8593617  40.2919896  53.1937357 111.6775657
  39.9569729  53.1538127 112.5733307  39.7923842  52.5282073 111.2046067
  34.2664140  48.6004987 117.2028238  34.1283938  47.8685226 117.8039777
  35.1769064  48.5113888 116.9212426  43.2279088  50.5393392 101.9512717
  42.6108258  49.8140220 101.8545770  42.7595576  51.3002752 101.6079791
  36.8946441  48.3124947 116.6911918  37.6046059  47.6718139 116.6498536
  36.8515749  48.5637842 117.6138099  44.8833219  55.2492300 119.6118497
  44.8245766  54.5651520 118.9449080  45.2852738  55.9911290 119.1599123
  35.6075375  45.2990165 118.5107557  35.0712732  44.8480903 119.1629154
  35.0192083  45.4336074 117.7678022  33.9023918  62.0654214 112.4052216
  34.1420516  62.6972738 113.0831235  33.0593115  61.7142254 112.6917575
  35.0177634  44.7578816 101.0734021  34.1407100  44.6367617 100.7096268
  35.4935387  43.9664894 100.8212910  44.8850627  53.2131884 117.8432477
  43.9977405  52.8757806 117.9658876  45.4549178  52.4814915 118.0801242
  26.5379774  49.5455976 111.1675528  27.2250814  49.2317706 110.5796544
  26.3827903  50.4497340 110.8942780  31.3414496  44.4346172 115.5960552
  31.2572685  43.8271842 114.8610962  30.5197202  44.9255191 115.5970048
  38.4151780  57.8733336 114.8093720  38.3421952  58.6788308 115.3213025
  37.9729173  58.0725302 113.9841741  38.2041560  57.1105106 108.3196542
  37.4209082  57.6526787 108.4134766  38.9034305  57.6279086 108.7190783
  41.5138210  42.9199736 110.9630747  42.0106909  42.1669698 110.6431817
  40.7425191  42.9564053 110.3973956  49.3667967  48.6240101 112.6049039
  49.3557844  49.5064817 112.2342972  48.4985347  48.2711652 112.4103576
  40.8750464  57.7720170 116.9651879  41.5878436  58.4067635 116.8927780
  40.3840492  57.8684036 116.1491881  42.5967991  51.6771423 108.5369170
  41.6624269  51.7972886 108.3673875  42.7744659  50.7743890 108.2729180
  38.0973179  45.0617119 110.6902432  37.7270966  44.5088159 111.3783337
  38.5932271  44.4575252 110.1377432  45.9840542  47.5188742 109.0719205
  46.4500994  48.3516734 108.9979507  46.4348042  47.0533724 109.7764463
  35.9262377  55.5214614 117.7857450  36.6271837  56.1551097 117.9386844
  35.4557492  55.8629345 117.0253089  44.0516773  53.8632564 106.0705357
  44.3276617  53.7489158 106.9799231  43.1821272  53.4650049 106.0317530
  43.9557205  39.8869329 113.1110106  43.0420284  40.1173556 113.2792313
  44.3850306  39.9707773 113.9624138  43.7263663  48.0759221 115.6110000
  43.0735113  48.3235129 114.9562453  44.1044043  47.2623360 115.2772477
  40.6870837  58.1118915 109.7138170  40.8693232  57.2940570 110.1765923
  41.5103823  58.3286607 109.2763060  41.0213003  57.0387100 106.9753219
  41.5500769  56.5279554 106.3623381  41.2841222  56.7229630 107.8398752
  39.7751236  48.8179032 122.0976037  39.0991873  48.7173162 122.7678412
  40.5978870  48.6618246 122.5612034  31.5230095  55.0550969 114.7188552
  32.1083532  54.3094657 114.8516456  31.3254934  55.3654926 115.6025216
  34.3768750  58.0902216 109.7350995  33.7079126  58.5748344 109.2515035
  34.2381620  58.3371437 110.6494373  26.1147750  47.6256569 113.4392995
  26.1531849  47.0920160 114.2330113  25.6088043  47.0991775 112.8203973
  38.5174019  60.1245960 116.3333653  39.0692327  60.2877581 117.0982738
  38.8580213  60.7150398 115.6613678  33.4938512  42.4721110 116.9355538
  33.5579839  43.3335941 116.5232935  33.4305633  41.8595111 116.2027896
  32.9690785  44.5444242 120.5828572  33.5962824  44.1621320 121.1966096
  32.1118704  44.3258444 120.9484264  43.3684893  54.9507217 122.1882307
  43.9124797  55.5637176 121.6937262  42.7871738  55.5086796 122.7049320
  29.7456328  46.3520671 106.5146927  30.0409769  45.4431350 106.4613980
  28.8444363  46.3308411 106.1927929  41.6542406  58.0727935 113.3197335
  41.5293546  57.2717675 112.8108281  42.3121497  58.5674129 112.8311305
  33.2750575  44.4276668 112.4974475  32.5537160  45.0412636 112.3581949
  34.0643830  44.9634433 112.4191121  43.7177315  55.8736955 114.9476885
  42.7707650  55.7542307 114.8755212  44.0660088  54.9859454 115.0303147
  36.0776888  41.7631094 118.7715127  36.6011290  42.0093391 119.5341436
  35.8589221  42.5951129 118.3518264  31.4744169  44.0334769 106.6386252
  31.1456875  43.1532148 106.4561358  31.8283540  43.9782438 107.5262641
  40.7223748  55.6689672 111.1481237  40.5748710  54.7406379 111.3288807
  41.5477242  55.6909762 110.6638313  34.5885992  44.3207739 107.0061730
  34.9282065  44.8493660 106.2840338  35.0358113  44.6588145 107.7820296
  44.3257870  56.4918230 112.2346110  45.2504417  56.2861092 112.0970561
  44.1573173  56.2434632 113.1435452  37.2829433  42.7044790 116.4564798
  36.9426253  41.9052603 116.8585478  36.5768439  43.0046500 115.8841631
  37.9345905  39.7894102 114.9092121  38.7571974  39.3154580 114.7871011
  38.1783968  40.5684586 115.4090807  36.5754139  42.8182360 105.2055022
  37.2962502  43.1963613 104.7018739  35.9519444  43.5371237 105.3090000
  40.7185262  43.5227509 106.1413355  40.9348877  44.4052147 105.8402183
  40.2379329  43.1313723 105.4118997  35.4584484  46.4813223 112.7184099
  35.3129064  46.7953526 113.6108381  34.9809687  47.0998123 112.1654998
  37.3180867  43.4715771 112.7664989  37.3042435  42.5756864 112.4297287
  38.0353295  43.4786434 113.4003275  39.1706997  43.9053111 114.8118116
  38.9124775  44.8270181 114.8102447  38.6392038  43.5083545 115.5018580
  44.1153186  57.0103898 107.5908202  44.2890064  56.4450320 106.8382054
  44.6082077  57.8104793 107.4087692  29.9330146  49.0218567 115.6571760
  29.3883614  49.7978375 115.7892035  30.8109496  49.3689371 115.4990882
  36.7217763  42.3530151 108.0352559  36.8433674  41.4246797 108.2343446
  36.4319805  42.3668837 107.1230874  39.5908953  40.0385061 111.1719279
  39.6130650  40.1024394 110.2171258  40.0077012  39.1989570 111.3659785
  49.9692577  49.7740321 109.2098501  50.4123723  49.0247646 108.8117625
  49.0919088  49.7650457 108.8272233  45.1028359  56.3270662 104.6905100
  45.7979263  56.9477355 104.9092415  45.4451509  55.4766014 104.9657478
  30.7196168  48.1488463 118.5501917  29.9777904  48.2971099 119.1366548
  30.3988912  48.4096729 117.6868667  47.0019782  53.7770368 106.2192431
  47.5271106  54.1157641 105.4941751  46.9142134  52.8417383 106.0355565
  38.6639830  57.6904441 118.3482307  38.9726957  57.4453588 119.2205007
  39.4615312  57.8951080 117.8601178  38.6860442  59.8442351 110.5787684
  38.2465433  59.3518730 111.2720541  39.4368559  59.3015319 110.3379759
  31.1652781  56.0353892 110.5812312  31.9910801  55.7357664 110.2010955
  30.8146833  55.2661514 111.0302101  36.1334315  55.3880360 112.6509986
  35.5114324  54.7251065 112.3512213  36.8039181  55.4141492 111.9683633
  29.3661386  53.9540218 111.5401246  28.5293295  53.5262393 111.3585247
  29.3385032  54.1472662 112.4772037  36.2058842  43.8662148 122.2442492
  36.2546998  44.7424271 121.8620261  36.7481356  43.3239541 121.6714135
  46.6913688  54.4103271 121.5243629  45.9009231  54.3927410 120.9848128
  46.4547042  54.9491565 122.2792665  46.8111563  51.2595738 118.8376357
  46.8609568  51.0945745 119.7791880  46.7025486  50.3922997 118.4474238
  35.6947821  53.9384284 106.1268446  35.8435942  54.6219748 105.4735119
  36.5014265  53.9189374 106.6417902  44.1015325  47.2426666 120.1535664
  45.0025188  47.1033131 119.8619662  44.1763300  47.4081121 121.0933841
  38.4358130  44.6193521 118.9988850  37.5661440  44.9127087 118.7271439
  38.6717611  45.2033966 119.7196114  48.3129760  53.6792679 119.0818379
  48.0214568  54.0422660 119.9181840  47.7001891  52.9659688 118.9031711
  49.5125442  51.2445559 111.6020949  50.3472333  51.6835363 111.7658509
  49.6484571  50.7684212 110.7829195  46.5616948  48.8025294 117.5498437
  47.0371069  48.9952940 116.7417288  45.6382513  48.8584480 117.3041820
  33.4500454  49.9649461 107.1329515  33.2046496  49.0611791 107.3309725
  33.6196369  49.9666612 106.1908993  41.1397164  40.8373138 116.5154271
  41.6579108  41.5734164 116.1900759  40.7852297  41.1437131 117.3501030
  32.7196102  45.6977819 104.6315676  32.0265347  45.7722174 103.9755712
  32.4747854  44.9338162 105.1537193  41.3909758  37.2573420 112.0355167
  41.6711512  36.5896609 112.6615594  42.1760365  37.4502516 111.5229831
  39.1943227  56.4332414 103.5980194  38.6217194  57.0522601 103.1450665
  39.7676021  56.9831776 104.1320115  45.2618617  45.6791054 115.7826742
  46.2136040  45.7789152 115.8038966  45.0922067  44.8869323 116.2924827
  43.2832996  42.7646637 115.9686143  42.6882928  43.0451650 115.2732632
  42.9982693  43.2540538 116.7402884  42.4140487  56.7169564 104.7288776
  43.3471160  56.6515126 104.9321651  42.3263700  57.5525831 104.2703308
  45.0428503  56.0335434 101.6892723  44.9642135  55.6995298 102.5828481
  45.8638170  56.5257202 101.6884196  47.7406695  48.8997174 114.8969042
  47.7083015  47.9613174 115.0828726  48.3507318  48.9781210 114.1634867
  39.5790025  47.7693227 100.9396246  40.5249130  47.6399435 101.0084664
  39.2004270  47.0307889 101.4165674  47.8901183  45.6908217 114.9427325
  47.3740232  44.9066674 114.7557254  48.7741132  45.3626934 115.1073845
  45.5511910  39.4349233 110.9023138  45.3536731  39.1264321 111.7866470
  46.1611616  40.1610872 111.0321068  53.5583244  49.9613181 114.0375079
  54.2886633  49.6998469 114.5982782  52.9490190  49.2241903 114.0777147
  51.6398542  48.1021043 114.6349530  50.9131705  47.9677008 114.0266022
  51.2245828  48.4097872 115.4406248  39.4628718  51.8210973 122.3996903
  40.3831727  51.9989572 122.5936950  39.4278301  50.8767018 122.2476602
  37.7632943  45.6943203 100.8751131  36.8564398  45.3976316 100.9513845
  38.0408924  45.3973021 100.0085417  28.6810883  47.0149567 111.3250178
  28.3613667  46.1614875 111.0324552  28.1344311  47.2298145 112.0808145
  32.4590791  49.7312008 115.0419684  32.6776800  50.6629115 115.0607718
  32.8716564  49.3719982 115.8274488  39.3795008  40.2380093 107.0295373
  38.5695737  39.8927178 107.4050619  40.0679425  39.9287637 107.6182984
  41.3085557  39.3158140 108.6519669  41.8616595  39.7353593 109.3109692
  41.5455643  38.3893888 108.6942625  37.3318656  45.3045213 124.4322433
  37.2315383  46.2539570 124.3634524  37.1140198  44.9763452 123.5598503
  36.5331727  42.5530138 101.0163110  37.3950891  42.8785037 101.2758928
  36.7182071  41.7661634 100.5036176  28.5499143  50.6352478 113.2943299
  27.8562614  50.2206431 112.7813254  29.2972134  50.6773015 112.6976718
  44.6864364  41.4258665 108.1598333  44.1063033  42.0843469 107.7776386
  44.4200296  40.6036009 107.7485751  43.1367930  40.8263722 110.3619654
  43.6367708  40.9380257 109.5533973  43.7803538  40.5224775 111.0020462
  37.1949926  48.7342352 123.2487495  36.7117008  49.5342712 123.4551384
  37.2810865  48.7450297 122.2954939  30.4635886  50.5670732 111.1709314
  30.4406574  50.6658419 110.2191197  30.7736522  51.4135883 111.4926480
  33.1223263  52.6246887 115.2855929  34.0766517  52.5930829 115.2185860
  32.9235787  52.1637511 116.1006154  33.7122646  51.1948003 117.8526726
  34.5315535  51.6892082 117.8761563  33.9859453  50.2779971 117.8244294
  43.4689242  43.5858755 107.2154682  42.5815097  43.8708406 106.9974876
  43.8843231  43.4252519 106.3681959  46.8203778  43.6105276 110.9309021
  47.5964168  44.1001729 111.2033638  46.0951912  44.0363330 111.3880890
  49.2576337  44.3232895 111.9882962  49.8520827  44.0828631 111.2776270
  49.3302920  43.6040026 112.6156498  31.4773492  58.1666506 112.3026126
  31.3427960  57.4066907 111.7364124  31.0605554  58.8907406 111.8354915
  42.6132455  53.3503430 101.3102702  43.3168305  53.5553432 101.9260357
  41.8895104  53.9180192 101.5751785  43.4430266  49.1013291 107.4304972
  43.3865467  49.5581843 106.5912604  43.9958608  48.3403976 107.2527815
  47.2535071  44.8903023 108.2555091  46.9972006  44.4899659 109.0863299
  46.6287939  45.6046817 108.1305231  51.5647409  47.6299096 110.7626383
  51.0046967  47.6992286 111.5357945  50.9590913  47.4540081 110.0425879
  34.6342618  59.0635823 112.5144569  34.5175002  60.0081256 112.4123259
  33.8135064  58.7609385 112.9030368  44.5219153  53.7885959 103.3601162
  45.3564757  53.3567158 103.1778637  44.3603496  53.6167973 104.2878056
  44.1765045  50.2918072 104.7257501  44.1213849  50.1262344 103.7845945
  43.5511100  50.9994105 104.8819691  28.9657560  45.5286137 118.5518923
  29.6116423  45.0185091 119.0406148  28.7574711  46.2654818 119.1262349
  41.4910952  52.5966984 124.0511064  42.3602112  52.7707637 123.6897699
  41.0117703  53.4161401 123.9286793  37.4861170  39.7926181 104.3042819
  37.4739840  40.7368021 104.4611090  38.3784592  39.6096327 104.0102281
  35.6597132  59.7164085 115.7300497  36.5624379  59.7487695 116.0466992
  35.4334502  58.7864536 115.7446833  37.4150734  58.4695072 112.3910576
  36.4646365  58.4696933 112.2774948  37.7183220  57.7227806 111.8746611
  41.3013290  36.3868958 108.5588756  40.5345686  35.8327445 108.7045439
  41.7123995  36.4590827 109.4202908  33.3055051  42.6753754 122.6493937
  34.1686512  42.3190559 122.8597262  32.7320461  42.3367649 123.3369342
  53.1503428  64.3055610 113.4556338  53.7881838  64.1862358 112.7519679
  53.0324271  65.2536454 113.5144291  49.9593134  64.2583038 113.3917863
  49.6211646  64.1424103 112.5038398  50.8282902  63.8574203 113.3718869
  45.8179950  66.1118515 109.3814754  45.2544815  66.0208452 108.6131042
  45.7032345  65.2918419 109.8617247  50.4412917  65.4117890 119.3504069
  50.4301558  65.0170688 118.4784572  50.6033556  64.6783963 119.9437840
  43.3644382  67.6069706 112.2198975  44.1565674  67.2660531 111.8045274
  43.6041032  67.7164681 113.1401128  51.3979508  69.7789482 104.6929219
  50.7467488  70.3643563 104.3063233  52.1923871  70.3095677 104.7524257
  45.3235136  66.8678620 105.0916353  46.0966012  66.3207607 104.9529229
  45.6760534  67.7322869 105.3030815  47.1620178  68.1955002 118.2983253
  46.8710044  69.1000633 118.1829919  47.7977163  68.2371529 119.0127322
  48.0876385  65.5731850 114.8884612  48.6839957  65.3487873 114.1741575
  48.1451357  64.8316596 115.4910060  47.6601413  63.0271286 102.7234803
  47.9126934  62.5052807 101.9618266  46.7225972  62.8637431 102.8261487
  52.7044696  62.0307064 110.5309547  53.4907785  61.6126487 110.1799964
  52.9683401  62.9353156 110.6991195  58.1053123  61.9682297 111.4342525
  58.8378295  61.3981514 111.6680355  57.3492479  61.5803898 111.8749031
  47.3797702  64.9299392 104.9259178  47.2633960  64.2544295 105.5940263
  47.4899962  64.4431766 104.1091331  49.7229243  64.3909539 108.6305867
  49.3587450  63.8640160 109.3418789  50.5796359  64.0008008 108.4572353
  55.6278544  55.6803871 115.8937134  55.2961868  56.5499282 115.6698349
  55.0324157  55.3640155 116.5731164  49.3634730  59.4199438 103.6267216
  49.5309132  60.2879675 103.9937687  49.1731899  59.5826720 102.7028505
  52.1210063  67.8816417 115.2933046  51.8210786  68.7841456 115.1848854
  51.7761123  67.6148601 116.1454199  45.5722545  64.3330214 111.3269751
  44.6473041  64.2006428 111.5347443  45.8206958  65.1124433 111.8239693
  55.5207207  60.3998957 112.9730484  54.6124084  60.3314366 112.6789245
  55.4694803  60.8770902 113.8012309  49.3423951  61.8757096 104.6113883
  49.2223576  62.3214147 105.4499363  48.6476539  62.2242414 104.0527421
  42.9331356  63.9763488 112.1613540  43.0623737  64.2297967 113.0752952
  42.2528807  64.5691196 111.8418195  47.1030843  74.6460738 108.2604014
  47.0254873  75.5968563 108.3392495  46.4992487  74.3006610 108.9178940
  49.5948073  61.8188603 120.9165381  48.8181407  62.3782523 120.9068246
  50.2338636  62.3045386 121.4380251  57.3868853  58.6015396 114.7508358
  56.7443234  58.8947929 114.1048152  56.8823782  58.4868316 115.5561554
  47.8494445  64.6274056 120.4783348  48.5909129  65.1659100 120.2018172
  47.1431431  65.2540345 120.6354900  53.3249785  66.7703197 119.0755509
  53.7333141  66.3285607 118.3310142  52.6027046  66.1955824 119.3289702
  49.6780855  61.7075804 116.4489066  50.5242050  62.1315217 116.5923715
  49.6179492  61.0509428 117.1427630  53.6478599  67.3304388 112.8307798
  53.0187462  67.4950102 112.1283866  53.2604261  67.7445997 113.6018762
  57.5267831  68.2658825 110.1852162  56.8418869  68.6457727 109.6349195
  57.6111681  68.8754152 110.9184110  52.8280300  59.3680172 118.1070240
  52.5841232  60.1222233 117.5704516  53.1040231  59.7465520 118.9417487
  54.7818763  65.9118784 116.7847506  54.9935658  66.5550544 116.1081887
  54.7348511  65.0781101 116.3169436  52.3844992  58.5236605 113.6884078
  51.5229471  58.8217859 113.9800815  52.4107427  58.7407004 112.7565110
  49.2006561  67.0678796 110.0957883  49.6644907  67.3466499 109.3062506
  48.9363359  66.1662240 109.9130974  46.0930642  66.6150277 113.0337647
  46.6631999  67.0437546 112.3955131  46.6838754  66.3332862 113.7321832
  48.1375447  63.1901948 106.9047449  48.8399491  63.6422992 107.3721375
  47.8056076  62.5485767 107.5327342  46.5855809  61.7813705 121.2798658
  45.9554469  62.4629985 121.5134055  46.4791897  61.6696786 120.3351796
  41.8800781  61.4485501 112.2064582  41.0899835  61.7043029 111.7304693
  42.3712029  62.2633839 112.3116623  55.8964591  68.7890740 114.9569863
  56.7182035  68.3870927 114.6752545  55.8926994  68.6858974 115.9085979
  43.8315527  61.8130080 109.1648059  43.0346690  61.9248774 109.6831555
  43.6041119  62.1516732 108.2988949  49.6621194  68.3374783 117.1130573
  49.7265627  68.7995190 117.9488745  48.9532118  67.7072148 117.2412883
  40.1638484  61.7015991 114.6379573  40.4146523  62.5863001 114.9037149
  40.6998033  61.5220593 113.8654665  49.3769212  70.0042891 106.9809554
  49.2414887  70.8494426 107.4094402  49.9179024  70.2062168 106.2175488
  45.8636552  56.0834470 123.6423909  45.4703497  55.5300669 124.3171553
  46.6802692  56.3945049 124.0330427  42.8298609  67.5218329 107.5537479
  43.3423130  68.3161579 107.7043044  43.4821322  66.8244619 107.4871080
  44.6393494  70.6384085 109.6360232  44.8160122  71.5602050 109.4481216
  45.4350328  70.3242504 110.0654612  48.7804513  57.4992350 121.2344166
  49.5214226  58.0999503 121.1548628  49.0122435  56.7569987 120.6762208
  43.9245851  62.6848717 119.5122395  43.8099366  61.7833974 119.8129494
  43.0690368  62.9312414 119.1607212  51.0037688  70.6266457 121.1109896
  50.5601543  69.8402836 120.7930800  51.6654902  70.8145608 120.4453787
  45.7624810  72.1562259 115.6370574  46.3132235  72.0279322 114.8647568
  44.9236285  72.4557148 115.2865467  53.1018926  70.9069257 119.1391297
  53.0837402  71.7278138 118.6471566  54.0238846  70.7823332 119.3641438
  49.5591981  68.4213387 119.9814806  50.0920317  67.6601675 119.7514113
  49.0306062  68.1287038 120.7238960  52.7261676  53.5273452 115.5108447
  52.3825945  54.4175094 115.4347558  53.0940638  53.3375110 114.6478032
  40.7947526  65.8506983 108.3297049  41.6322748  66.2603991 108.1130757
  40.9725794  64.9106425 108.2997243  50.2759069  58.3631764 109.0766121
  49.4200666  57.9738615 108.8971759  50.6886021  58.4423725 108.2165906
  51.8058216  55.8978108 113.4757681  51.3023011  55.8608243 112.6625486
  52.0988823  56.8070850 113.5354337  48.0501102  55.9816837 112.4823862
  48.9154099  55.7859646 112.1229752  48.1178611  55.7527189 113.4093219
  50.9244693  67.5499379 107.4933618  50.3966055  66.8152139 107.1806855
  50.4232196  68.3274055 107.2473586  55.9037539  65.7448399 112.6100664
  55.2461214  66.4347661 112.6980792  56.7077938  66.1344831 112.9534650
  45.6563421  58.2119045 109.8540229  46.2307173  57.9894227 109.1213422
  46.2434403  58.2807740 110.6068830  54.7142998  64.0992772 110.6604606
  55.2274880  64.7322764 111.1626315  55.3644222  63.4993968 110.2947966
  45.9833008  60.2423506 103.8736114  45.1470320  60.5798193 104.1945389
  45.8437778  60.1072486 102.9363251  47.9586089  55.0860294 108.5815298
  47.3050501  54.7709311 107.9571913  47.9166563  54.4636035 109.3075121
  49.0697293  65.3679589 100.4968591  48.1624355  65.1368843 100.6959740
  49.5668325  64.5717209 100.6842572  51.9765372  74.0777096 103.4165277
  51.3027071  74.3808793 104.0250235  52.3631194  74.8806177 103.0670734
  51.1923829  61.5742228 112.9062946  50.2746390  61.7957175 112.7484634
  51.6083973  61.6488538 112.0474653  51.9758877  62.9733643 108.0365626
  52.7230696  63.4855041 107.7272748  52.2450466  62.6517696 108.8970020
  50.2485527  65.4692184 105.0192581  49.3396746  65.1851217 105.1165050
  50.2780611  65.8891263 104.1595888  55.4804794  69.0798774 108.7883748
  55.0267121  68.2389684 108.8448939  54.8498761  69.7160172 109.1258528
  54.4237714  60.0090760 110.0184416  53.6860471  59.4968146 110.3494658
  54.6764487  59.5691141 109.2067693  53.9237734  70.9175270 109.7233566
  54.2160708  71.4780327 109.0045932  54.4336354  71.2103831 110.4786725
  54.5249341  52.7867012 110.6126185  54.8308218  51.9264375 110.3252100
  55.2501946  53.3784632 110.4125179  40.8173697  63.1897698 109.0007783
  40.6198097  62.5967059 108.2758849  40.2620361  62.8849908 109.7183722
  48.7970421  63.0820805 111.1202376  48.8519031  62.1294641 111.0444853
  47.9861623  63.2380244 111.6043674  49.9461615  67.0100928 102.3580659
  49.5081045  66.2936787 101.8986297  50.6872056  67.2377043 101.7965751
  46.7362781  61.6997864 108.8792755  45.9230646  61.9992035 109.2857947
  47.2321775  61.3053553 109.5967237  48.8871359  71.6955621 110.8127020
  48.8447538  71.9216468 109.8835552  49.8034058  71.4618996 110.9612821
  52.3336993  62.1639689 117.7107649  52.6886380  62.3911162 118.5702115
  52.9809124  62.4958066 117.0884904  46.2276856  59.2716220 114.4953990
  46.8676235  59.1304979 113.7976953  45.3954386  58.9850733 114.1192592
  58.0904109  67.3534652 113.4268249  58.5240616  67.2609941 114.2751303
  58.8035690  67.3292152 112.7888265  47.0037160  68.5718650 110.6088982
  47.7977758  68.0768971 110.4071557  46.2928852  68.0436514 110.2456688
  51.8232004  70.9536746 114.9601350  51.8769026  71.5227682 115.7279066
  50.9546785  71.1238631 114.5955387  43.3119923  62.7161732 106.6848735
  42.3817511  62.6546188 106.9018697  43.4077395  62.1937685 105.8885376
  43.2305472  59.2416545 109.2726977  43.4912289  60.1561878 109.1636137
  44.0522644  58.7740988 109.4223589  44.7030397  60.6554302 116.4425801
  45.3753451  60.4471664 115.7938450  43.8760184  60.4576388 116.0031033
  58.9519659  67.3958353 115.9601135  59.1455549  68.3004163 116.2060410
  58.8520277  66.9365772 116.7939720  50.6055969  57.2816243 118.4591462
  49.9583884  57.9806193 118.3655938  51.3756985  57.7152387 118.8267710
  54.0134767  67.5465095 121.5342015  53.8620274  67.3175647 120.6172099
  54.0039447  68.5035697 121.5473360  50.7820104  65.1197008 116.5188282
  51.7112164  65.2708168 116.3457249  50.3611134  65.2081029 115.6636928
  49.5808435  69.1447672 114.2886819  49.4419521  68.7766457 115.1612757
  48.7923032  69.6595312 114.1170777  50.1756587  74.2456769 105.6312356
  50.3508343  73.7744812 106.4457979  49.4889375  74.8722535 105.8593617
  51.1313651  68.5229275 111.6775657  50.7963483  68.4830045 112.5733307
  50.6317596  67.8573991 111.2046067  45.1057895  63.9296905 117.2028238
  44.9677693  63.1977144 117.8039777  46.0162818  63.8405805 116.9212426
  47.7340195  63.6416864 116.6911918  48.4439814  63.0010057 116.6498536
  47.6909503  63.8929759 117.6138099  55.7226974  70.5784218 119.6118497
  55.6639520  69.8943438 118.9449080  56.1246492  71.3203208 119.1599123
  46.4469129  60.6282082 118.5107557  45.9106486  60.1772821 119.1629154
  45.8585838  60.7627991 117.7678022  44.7417673  77.3946132 112.4052216
  44.9814271  78.0264656 113.0831235  43.8986869  77.0434172 112.6917575
  45.8571388  60.0870734 101.0734021  44.9800855  59.9659535 100.7096268
  46.3329141  59.2956812 100.8212910  55.7244381  68.5423802 117.8432477
  54.8371160  68.2049724 117.9658876  56.2942932  67.8106833 118.0801242
  37.3773528  64.8747893 111.1675528  38.0644568  64.5609624 110.5796544
  37.2221657  65.7789258 110.8942780  42.1808250  59.7638090 115.5960552
  42.0966439  59.1563760 114.8610962  41.3590957  60.2547108 115.5970048
  49.2545535  73.2025254 114.8093720  49.1815706  74.0080226 115.3213025
  48.8122928  73.4017220 113.9841741  49.0435314  72.4397024 108.3196542
  48.2602836  72.9818704 108.4134766  49.7428059  72.9571004 108.7190783
  52.3531964  58.2491654 110.9630747  52.8500664  57.4961616 110.6431817
  51.5818946  58.2855970 110.3973956  60.2061722  63.9532019 112.6049039
  60.1951598  64.8356735 112.2342972  59.3379101  63.6003570 112.4103576
  51.7144218  73.1012088 116.9651879  52.4272190  73.7359553 116.8927780
  51.2234247  73.1975954 116.1491881  53.4361745  67.0063341 108.5369170
  52.5018024  67.1264803 108.3673875  53.6138414  66.1035808 108.2729180
  48.9366933  60.3909037 110.6902432  48.5664721  59.8380077 111.3783337
  49.4326026  59.7867170 110.1377432  56.8234296  62.8480660 109.0719205
  57.2894749  63.6808652 108.9979507  57.2741797  62.3825642 109.7764463
  46.7656132  70.8506532 117.7857450  47.4665591  71.4843015 117.9386844
  46.2951247  71.1921263 117.0253089  54.7950959  55.2161247 113.1110106
  53.8814039  55.4465474 113.2792313  55.2244061  55.2999691 113.9624138
  54.5657418  63.4051139 115.6110000  53.9128868  63.6527046 114.9562453
  54.9437798  62.5915277 115.2772477  51.5264592  73.4410832 109.7138170
  51.7086986  72.6232488 110.1765923  52.3497578  73.6578524 109.2763060
  51.8606757  72.3679017 106.9753219  52.3894523  71.8571472 106.3623381
  52.1234977  72.0521548 107.8398752  50.6144991  64.1470950 122.0976037
  49.9385628  64.0465079 122.7678412  51.4372625  63.9910164 122.5612034
  42.3623850  70.3842887 114.7188552  42.9477287  69.6386575 114.8516456
  42.1648688  70.6946843 115.6025216  45.2162505  73.4194134 109.7350995
  44.5472880  73.9040262 109.2515035  45.0775375  73.6663354 110.6494373
  36.9541504  62.9548487 113.4392995  36.9925604  62.4212078 114.2330113
  36.4481797  62.4283692 112.8203973  49.3567774  75.4537878 116.3333653
  49.9086082  75.6169499 117.0982738  49.6973967  76.0442315 115.6613678
  44.3332267  57.8013027 116.9355538  44.3973593  58.6627858 116.5232935
  44.2699387  57.1887029 116.2027896  43.8084539  59.8736160 120.5828572
  44.4356578  59.4913237 121.1966096  42.9512458  59.6550362 120.9484264
  54.2078648  70.2799135 122.1882307  54.7518552  70.8929093 121.6937262
  53.6265493  70.8378713 122.7049320  40.5850082  61.6812589 106.5146927
  40.8803523  60.7723267 106.4613980  39.6838118  61.6600328 106.1927929
  52.4936161  73.4019853 113.3197335  52.3687300  72.6009593 112.8108281
  53.1515252  73.8966046 112.8311305  44.1144329  59.7568586 112.4974475
  43.3930915  60.3704553 112.3581949  44.9037585  60.2926350 112.4191121
  54.5571069  71.2028873 114.9476885  53.6101405  71.0834224 114.8755212
  54.9053842  70.3151371 115.0303147  46.9170643  57.0923012 118.7715127
  47.4405044  57.3385309 119.5341436  46.6982976  57.9243047 118.3518264
  42.3137924  59.3626687 106.6386252  41.9850630  58.4824066 106.4561358
  42.6677294  59.3074355 107.5262641  51.5617503  70.9981589 111.1481237
  51.4142465  70.0698297 111.3288807  52.3870996  71.0201680 110.6638313
  45.4279747  59.6499656 107.0061730  45.7675819  60.1785578 106.2840338
  45.8751867  59.9880063 107.7820296  55.1651624  71.8210148 112.2346110
  56.0898172  71.6153009 112.0970561  54.9966928  71.5726549 113.1435452
  48.1223188  58.0336707 116.4564798  47.7820008  57.2344520 116.8585478
  47.4162194  58.3338418 115.8841631  48.7739659  55.1186020 114.9092121
  49.5965729  54.6446498 114.7871011  49.0177723  55.8976503 115.4090807
  47.4147894  58.1474278 105.2055022  48.1356256  58.5255531 104.7018739
  46.7913198  58.8663155 105.3090000  51.5579017  58.8519427 106.1413355
  51.7742631  59.7344065 105.8402183  51.0773084  58.4605640 105.4118997
  46.2978238  61.8105140 112.7184099  46.1522819  62.1245443 113.6108381
  45.8203442  62.4290041 112.1654998  48.1574621  58.8007688 112.7664989
  48.1436190  57.9048782 112.4297287  48.8747049  58.8078352 113.4003275
  50.0100752  59.2345028 114.8118116  49.7518530  60.1562099 114.8102447
  49.4785792  58.8375463 115.5018580  54.9546941  72.3395816 107.5908202
  55.1283818  71.7742238 106.8382054  55.4475832  73.1396710 107.4087692
  40.7723900  64.3510485 115.6571760  40.2277368  65.1270293 115.7892035
  41.6503250  64.6981289 115.4990882  47.5611517  57.6822069 108.0352559
  47.6827428  56.7538715 108.2343446  47.2713559  57.6960754 107.1230874
  50.4302707  55.3676979 111.1719279  50.4524404  55.4316312 110.2171258
  50.8470766  54.5281488 111.3659785  41.5589922  63.4780381 118.5501917
  40.8171658  63.6263016 119.1366548  41.2382667  63.7388647 117.6868667
  49.5033585  73.0196359 118.3482307  49.8120711  72.7745506 119.2205007
  50.3009067  73.2242998 117.8601178  49.5254197  75.1734269 110.5787684
  49.0859187  74.6810647 111.2720541  50.2762314  74.6307236 110.3379759
  42.0046536  71.3645810 110.5812312  42.8304556  71.0649581 110.2010955
  41.6540588  70.5953432 111.0302101  46.9728069  70.7172278 112.6509986
  46.3508078  70.0542983 112.3512213  47.6432936  70.7433410 111.9683633
  40.2055141  69.2832136 111.5401246  39.3687049  68.8554310 111.3585247
  40.1778786  69.4764579 112.4772037  47.0452597  59.1954066 122.2442492
  47.0940752  60.0716189 121.8620261  47.5875111  58.6531459 121.6714135
  57.5307442  69.7395189 121.5243629  56.7402986  69.7219328 120.9848128
  57.2940797  70.2783483 122.2792665  57.6505317  66.5887656 118.8376357
  57.7003322  66.4237663 119.7791880  57.5419241  65.7214915 118.4474238
  46.5341576  69.2676201 106.1268446  46.6829696  69.9511666 105.4735119
  47.3408019  69.2481291 106.6417902  54.9409080  62.5718584 120.1535664
  55.8418942  62.4325048 119.8619662  55.0157054  62.7373038 121.0933841
  49.2751885  59.9485438 118.9988850  48.4055194  60.2419004 118.7271439
  49.5111365  60.5325883 119.7196114  59.1523514  69.0084597 119.0818379
  58.8608322  69.3714578 119.9181840  58.5395645  68.2951605 118.9031711
  57.4010702  64.1317212 117.5498437  57.8764824  64.3244858 116.7417288
  56.4776268  64.1876397 117.3041820  44.2894209  65.2941379 107.1329515
  44.0440251  64.3903709 107.3309725  44.4590123  65.2958529 106.1908993
  51.9790919  56.1665055 116.5154271  52.4972863  56.9026082 116.1900759
  51.6246052  56.4729049 117.3501030  43.5589856  61.0269736 104.6315676
  42.8659101  61.1014091 103.9755712  43.3141608  60.2630080 105.1537193
  52.2303513  52.5865338 112.0355167  52.5105267  51.9188527 112.6615594
  53.0154120  52.7794433 111.5229831  50.0336981  71.7624332 103.5980194
  49.4610949  72.3814519 103.1450665  50.6069775  72.3123693 104.1320115
  56.1012371  61.0082972 115.7826742  57.0529794  61.1081069 115.8038966
  55.9315822  60.2161240 116.2924827  54.1226751  58.0938555 115.9686143
  53.5276683  58.3743568 115.2732632  53.8376448  58.5832456 116.7402884
  58.5800449  64.2289091 114.8969042  58.5476769  63.2905092 115.0828726
  59.1901073  64.3073128 114.1634867  58.7294938  61.0200135 114.9427325
  58.2133986  60.2358591 114.7557254  59.6134886  60.6918851 115.1073845
  56.3905665  54.7641150 110.9023138  56.1930486  54.4556239 111.7866470
  57.0005370  55.4902789 111.0321068  64.3976999  65.2905098 114.0375079
  65.1280387  65.0290386 114.5982782  63.7883944  64.5533820 114.0777147
  62.4792296  63.4312961 114.6349530  61.7525460  63.2968926 114.0266022
  62.0639583  63.7389789 115.4406248  50.3022473  67.1502891 122.3996903
  51.2225482  67.3281490 122.5936950  50.2672056  66.2058936 122.2476602
  48.6026697  61.0235121 100.8751131  47.6958153  60.7268233 100.9513845
  48.8802678  60.7264939 100.0085417  39.5204638  62.3441484 111.3250178
  39.2007422  61.4906792 111.0324552  38.9738066  62.5590062 112.0808145
  43.2984545  65.0603925 115.0419684  43.5170555  65.9921033 115.0607718
  43.7110319  64.7011900 115.8274488  50.2188763  55.5672010 107.0295373
  49.4089491  55.2219095 107.4050619  50.9073180  55.2579554 107.6182984
  52.1479311  54.6450057 108.6519669  52.7010350  55.0645511 109.3109692
  52.3849398  53.7185805 108.6942625  48.1712410  60.6337131 124.4322433
  48.0709137  61.5831488 124.3634524  47.9533952  60.3055370 123.5598503
  39.3892898  65.9644396 113.2943299  38.6956369  65.5498348 112.7813254
  40.1365889  66.0064932 112.6976718  53.9761685  56.1555640 110.3619654
  54.4761463  56.2672175 109.5533973  54.6197293  55.8516693 111.0020462
  48.0343680  64.0634270 123.2487495  47.5510762  64.8634630 123.4551384
  48.1204619  64.0742215 122.2954939  41.3029640  65.8962649 111.1709314
  41.2800328  65.9950337 110.2191197  41.6130277  66.7427800 111.4926480
  43.9617018  67.9538804 115.2855929  44.9160271  67.9222747 115.2185860
  43.7629542  67.4929428 116.1006154  44.5516400  66.5239921 117.8526726
  45.3709289  67.0183999 117.8761563  44.8253208  65.6071889 117.8244294
  57.6597532  58.9397194 110.9309021  58.4357923  59.4293646 111.2033638
  56.9345667  59.3655248 111.3880890  60.0970091  59.6524813 111.9882962
  60.6914582  59.4120549 111.2776270  60.1696675  58.9331944 112.6156498
  42.3167247  73.4958424 112.3026126  42.1821715  72.7358825 111.7364124
  41.8999309  74.2199324 111.8354915  62.4041164  62.9591014 110.7626383
  61.8440722  63.0284203 111.5357945  61.7984667  62.7831999 110.0425879
  45.4736373  74.3927741 112.5144569  45.3568757  75.3373173 112.4123259
  44.6528819  74.0901303 112.9030368  39.8051314  60.8578054 118.5518923
  40.4510178  60.3477008 119.0406148  39.5968465  61.5946736 119.1262349
  52.3304707  67.9258902 124.0511064  53.1995866  68.0999554 123.6897699
  51.8511458  68.7453319 123.9286793  46.4990887  75.0456003 115.7300497
  47.4018133  75.0779613 116.0466992  46.2728257  74.1156454 115.7446833
  48.2544489  73.7986989 112.3910576  47.3040120  73.7988851 112.2774948
  48.5576975  73.0519724 111.8746611  52.1407044  51.7160876 108.5588756
  51.3739440  51.1619362 108.7045439  52.5517749  51.7882744 109.4202908
  44.1448805  58.0045671 122.6493937  45.0080267  57.6482476 122.8597262
  43.5714216  57.6659566 123.3369342  63.9897182  79.6347528 113.4556338
  64.6275592  79.5154275 112.7519679  63.8718025  80.5828372 113.5144291
  60.7986889  79.5874956 113.3917863  60.4605400  79.4716021 112.5038398
  61.6676657  79.1866121 113.3718869  61.2806672  80.7409808 119.3504069
  61.2695312  80.3462606 118.4784572  61.4427311  80.0075880 119.9437840
  54.2038136  82.9361624 112.2198975  54.9959428  82.5952449 111.8045274
  54.4434786  83.0456599 113.1401128  58.0013933  83.5246919 118.2983253
  57.7103799  84.4292550 118.1829919  58.6370917  83.5663447 119.0127322
  58.9270140  80.9023768 114.8884612  59.5233712  80.6779790 114.1741575
  58.9845111  80.1608513 115.4910060  63.5438451  77.3598982 110.5309547
  64.3301540  76.9418405 110.1799964  63.8077155  78.2645074 110.6991195
  68.9446878  77.2974215 111.4342525  69.6772050  76.7273432 111.6680355
  68.1886234  76.9095815 111.8749031  66.4672298  71.0095789 115.8937134
  66.1355623  71.8791200 115.6698349  65.8717912  70.6932073 116.5731164
  60.2028485  74.7491356 103.6267216  60.3702887  75.6171592 103.9937687
  60.0125654  74.9118638 102.7028505  56.4116299  79.6622132 111.3269751
  55.4866796  79.5298346 111.5347443  56.6600712  80.4416351 111.8239693
  66.3600962  75.7290875 112.9730484  65.4517839  75.6606284 112.6789245
  66.3088557  76.2062820 113.8012309  60.1817705  77.2049014 104.6113883
  60.0617331  77.6506064 105.4499363  59.4870294  77.5534331 104.0527421
  53.7725110  79.3055405 112.1613540  53.9017491  79.5589884 113.0752952
  53.0922562  79.8983113 111.8418195  60.4341827  77.1480521 120.9165381
  59.6575161  77.7074441 120.9068246  61.0732390  77.6337304 121.4380251
  68.2262608  73.9307314 114.7508358  67.5836988  74.2239847 114.1048152
  67.7217536  73.8160234 115.5561554  65.8802772  77.6770487 105.4394217
  66.7920628  77.9097874 105.2641914  65.3712419  78.2607531 104.8769295
  58.6888200  79.9565974 120.4783348  59.4302884  80.4951018 120.2018172
  57.9825185  80.5832263 120.6354900  60.5174609  77.0367721 116.4489066
  61.3635804  77.4607135 116.5923715  60.4573247  76.3801346 117.1427630
  63.6674055  74.6972090 118.1070240  63.4234987  75.4514150 117.5704516
  63.9433985  75.0757437 118.9417487  63.2238746  73.8528523 113.6884078
  62.3623225  74.1509776 113.9800815  63.2501181  74.0698922 112.7565110
  56.9324397  81.9442195 113.0337647  57.5025754  82.3729463 112.3955131
  57.5232509  81.6624780 113.7321832  57.4249563  77.1105622 121.2798658
  56.7948224  77.7921903 121.5134055  57.3185651  76.9988704 120.3351796
  52.7194536  76.7777418 112.2064582  51.9293590  77.0334947 111.7304693
  53.2105783  77.5925756 112.3116623  54.6709281  77.1421998 109.1648059
  53.8740444  77.2540692 109.6831555  54.4434873  77.4808650 108.2988949
  60.5014949  83.6666701 117.1130573  60.5659381  84.1287108 117.9488745
  59.7925873  83.0364066 117.2412883  51.0032239  77.0307909 114.6379573
  51.2540277  77.9154919 114.9037149  51.5391787  76.8512510 113.8654665
  74.8264338  80.4621406 111.3054834  74.0728047  79.8928804 111.1498839
  74.9611880  80.4284070 112.2525469  56.7030306  71.4126388 123.6423909
  56.3097252  70.8592587 124.3171553  57.5196446  71.7236967 124.0330427
  59.6198267  72.8284267 121.2344166  60.3607980  73.4291420 121.1548628
  59.8516190  72.0861905 120.6762208  54.7639605  78.0140634 119.5122395
  54.6493120  77.1125892 119.8129494  53.9084123  78.2604331 119.1607212
  61.8431443  85.9558375 121.1109896  61.3995297  85.1694753 120.7930800
  62.5048656  86.1437525 120.4453787  56.6018564  87.4854176 115.6370574
  57.1525989  87.3571240 114.8647568  55.7630040  87.7849065 115.2865467
  60.3985735  83.7505304 119.9814806  60.9314072  82.9893592 119.7514113
  59.8699816  83.4578956 120.7238960  58.8894856  71.3108755 112.4823862
  59.7547853  71.1151564 112.1229752  58.9572365  71.0819107 113.4093219
  63.3192016  76.7201073 105.8440664  63.0142151  77.0347223 106.6950807
  64.2722458  76.7982493 105.8867997  56.4957175  73.5410963 109.8540229
  57.0700927  73.3186144 109.1213422  57.0828158  73.6099657 110.6068830
  65.5536753  79.4284690 110.6604606  66.0668634  80.0614682 111.1626315
  66.2037976  78.8285885 110.2947966  62.0317583  76.9034145 112.9062946
  61.1140145  77.1249092 112.7484634  62.4477727  76.9780456 112.0474653
  62.8152631  78.3025561 108.0365626  63.5624450  78.8146958 107.7272748
  63.0844221  77.9809614 108.8970020  65.2631468  75.3382677 110.0184416
  64.5254225  74.8260064 110.3494658  65.5158242  74.8983059 109.2067693
  51.6567452  78.5189616 109.0007783  51.4591852  77.9258977 108.2758849
  51.1014116  78.2141826 109.7183722  59.6364175  78.4112722 111.1202376
  59.6912785  77.4586559 111.0444853  58.8255377  78.5672162 111.6043674
  57.5756535  77.0289782 108.8792755  56.7624401  77.3283953 109.2857947
  58.0715530  76.6345471 109.5967237  63.1730747  77.4931607 117.7107649
  63.5280135  77.7203080 118.5702115  63.8202878  77.8249983 117.0884904
  68.9028484  80.6150043 108.4156978  68.7646383  80.8051638 107.4878167
  68.5464703  81.3769425 108.8725029  57.0670610  74.6008138 114.4953990
  57.7069989  74.4596897 113.7976953  56.2348141  74.3142651 114.1192592
  54.1513677  78.0453650 106.6848735  53.2211266  77.9838105 106.9018697
  54.2471149  77.5229603 105.8885376  54.0699227  74.5708463 109.2726977
  54.3306044  75.4853796 109.1636137  54.8916399  74.1032905 109.4223589
  55.5424152  75.9846220 116.4425801  56.2147205  75.7763582 115.7938450
  54.7153938  75.7868306 116.0031033  61.4449724  72.6108161 118.4591462
  60.7977639  73.3098110 118.3655938  62.2150739  73.0444305 118.8267710
  61.6213858  80.4488926 116.5188282  62.5505918  80.6000085 116.3457249
  61.2004888  80.5372946 115.6636928  61.9707405  83.8521193 111.6775657
  61.6357238  83.8121963 112.5733307  61.4711351  83.1865909 111.2046067
  55.9451649  79.2588823 117.2028238  55.8071447  78.5269062 117.8039777
  56.8556573  79.1697723 116.9212426  58.5733950  78.9708782 116.6911918
  59.2833568  78.3301974 116.6498536  58.5303258  79.2221677 117.6138099
  57.2862884  75.9574000 118.5107557  56.7500241  75.5064738 119.1629154
  56.6979592  76.0919909 117.7678022  48.2167283  80.2039811 111.1675528
  48.9038323  79.8901541 110.5796544  48.0615412  81.1081176 110.8942780
  53.0202005  75.0930008 115.5960552  52.9360194  74.4855677 114.8610962
  52.1984711  75.5839026 115.5970048  63.1925719  73.5783571 110.9630747
  63.6894418  72.8253534 110.6431817  62.4212700  73.6147888 110.3973956
  71.0455476  79.2823937 112.6049039  71.0345352  80.1648652 112.2342972
  70.1772856  78.9295488 112.4103576  64.2755500  82.3355258 108.5369170
  63.3411778  82.4556721 108.3673875  64.4532168  81.4327725 108.2729180
  59.7760688  75.7200954 110.6902432  59.4058475  75.1671995 111.3783337
  60.2719780  75.1159088 110.1377432  67.6628051  78.1772578 109.0719205
  68.1288503  79.0100569 108.9979507  68.1135551  77.7117559 109.7764463
  57.6049886  86.1798449 117.7857450  58.3059346  86.8134932 117.9386844
  57.1345001  86.5213181 117.0253089  65.4051172  78.7343057 115.6110000
  64.7522622  78.9818964 114.9562453  65.7831552  77.9207195 115.2772477
  61.4538745  79.4762868 122.0976037  60.7779382  79.3756997 122.7678412
  62.2766379  79.3202082 122.5612034  53.2017604  85.7134804 114.7188552
  53.7871041  84.9678492 114.8516456  53.0042443  86.0238761 115.6025216
  47.7935259  78.2840405 113.4392995  47.8319358  77.7503995 114.2330113
  47.2875552  77.7575610 112.8203973  55.1726021  73.1304945 116.9355538
  55.2367348  73.9919776 116.5232935  55.1093142  72.5178947 116.2027896
  54.6478294  75.2028078 120.5828572  55.2750333  74.8205155 121.1966096
  53.7906213  74.9842280 120.9484264  51.4243837  77.0104507 106.5146927
  51.7197278  76.1015185 106.4613980  50.5231872  76.9892246 106.1927929
  54.9538084  75.0860503 112.4974475  54.2324669  75.6996471 112.3581949
  55.7431339  75.6218268 112.4191121  57.7564397  72.4214930 118.7715127
  58.2798799  72.6677226 119.5341436  57.5376730  73.2534965 118.3518264
  53.1531678  74.6918604 106.6386252  52.8244384  73.8115983 106.4561358
  53.5071049  74.6366273 107.5262641  58.9616942  73.3628625 116.4564798
  58.6213762  72.5636438 116.8585478  58.2555948  73.6630336 115.8841631
  59.6133414  70.4477937 114.9092121  60.4359483  69.9738415 114.7871011
  59.8571477  71.2268421 115.4090807  57.1371993  77.1397058 112.7184099
  56.9916573  77.4537361 113.6108381  56.6597196  77.7581958 112.1654998
  58.9968376  74.1299606 112.7664989  58.9829944  73.2340699 112.4297287
  59.7140804  74.1370270 113.4003275  60.8494506  74.5636946 114.8118116
  60.5912284  75.4854017 114.8102447  60.3179547  74.1667381 115.5018580
  51.6117655  79.6802402 115.6571760  51.0671123  80.4562210 115.7892035
  52.4897005  80.0273207 115.4990882  58.4005272  73.0113986 108.0352559
  58.5221183  72.0830632 108.2343446  58.1107314  73.0252672 107.1230874
  71.6480086  80.4324156 109.2098501  72.0911232  79.6831481 108.8117625
  70.7706597  80.4234293 108.8272233  52.3983677  78.8072299 118.5501917
  51.6565413  78.9554934 119.1366548  52.0776421  79.0680564 117.6868667
  51.0448895  84.6124054 111.5401246  50.2080804  84.1846228 111.3585247
  51.0172541  84.8056497 112.4772037  57.8846351  74.5245984 122.2442492
  57.9334507  75.4008106 121.8620261  58.4268865  73.9823377 121.6714135
  65.7802834  77.9010501 120.1535664  66.6812697  77.7616966 119.8619662
  65.8550809  78.0664956 121.0933841  60.1145639  75.2777356 118.9988850
  59.2448949  75.5710922 118.7271439  60.3505120  75.8617801 119.7196114
  62.8184673  71.4956973 116.5154271  63.3366617  72.2318000 116.1900759
  62.4639806  71.8020966 117.3501030  66.9406126  76.3374889 115.7826742
  67.8923549  76.4372987 115.8038966  66.7709576  75.5453158 116.2924827
  64.9620505  73.4230473 115.9686143  64.3670437  73.7035485 115.2732632
  64.6770202  73.9124374 116.7402884  69.5688692  76.3492053 114.9427325
  69.0527741  75.5650509 114.7557254  70.4528641  76.0210769 115.1073845
  75.2370753  80.6197016 114.0375079  75.9674142  80.3582304 114.5982782
  74.6277699  79.8825738 114.0777147  73.3186051  78.7604879 114.6349530
  72.5919214  78.6260843 114.0266022  72.9033337  79.0681707 115.4406248
  61.1416227  82.4794808 122.3996903  62.0619236  82.6573407 122.5936950
  61.1065810  81.5350854 122.2476602  50.3598392  77.6733402 111.3250178
  50.0401176  76.8198710 111.0324552  49.8131820  77.8881980 112.0808145
  54.1378300  80.3895843 115.0419684  54.3564309  81.3212951 115.0607718
  54.5504073  80.0303817 115.8274488  59.0106165  75.9629049 124.4322433
  58.9102892  76.9123406 124.3634524  58.7927707  75.6347288 123.5598503
  50.2286652  81.2936313 113.2943299  49.5350123  80.8790266 112.7813254
  50.9759643  81.3356850 112.6976718  66.3651873  72.0842500 108.1598333
  65.7850542  72.7427304 107.7776386  66.0987805  71.2619845 107.7485751
  58.8737435  79.3926187 123.2487495  58.3904517  80.1926548 123.4551384
  58.9598374  79.4034132 122.2954939  52.1423395  81.2254567 111.1709314
  52.1194083  81.3242254 110.2191197  52.4524031  82.0719718 111.4926480
  54.8010772  83.2830722 115.2855929  55.7554026  83.2514665 115.2185860
  54.6023296  82.8221346 116.1006154  55.3910155  81.8531838 117.8526726
  56.2103044  82.3475917 117.8761563  55.6646962  80.9363806 117.8244294
  65.1476751  74.2442591 107.2154682  64.2602606  74.5292241 106.9974876
  65.5630740  74.0836354 106.3681959  68.4991287  74.2689112 110.9309021
  69.2751677  74.7585564 111.2033638  67.7739421  74.6947166 111.3880890
  70.9363846  74.9816731 111.9882962  71.5308336  74.7412467 111.2776270
  71.0090429  74.2623861 112.6156498  53.1561001  88.8250342 112.3026126
  53.0215469  88.0650743 111.7364124  52.7393063  89.5491242 111.8354915
  65.1217774  79.7597126 107.4304972  65.0652976  80.2165678 106.5912604
  65.6746117  78.9987811 107.2527815  68.9322580  75.5486858 108.2555091
  68.6759515  75.1483494 109.0863299  68.3075448  76.2630652 108.1305231
  73.2434918  78.2882932 110.7626383  72.6834476  78.3576121 111.5357945
  72.6378422  78.1123916 110.0425879  50.6445069  76.1869972 118.5518923
  51.2903932  75.6768926 119.0406148  50.4362220  76.9238654 119.1262349
  63.1698461  83.2550820 124.0511064  64.0389621  83.4291472 123.6897699
  62.6905212  84.0745236 123.9286793  54.9842560  73.3337589 122.6493937
  55.8474021  72.9774394 122.8597262  54.4107970  72.9951484 123.3369342
  72.1200426  96.0701725 119.3504069  72.1089067  95.6754524 118.4784572
  72.2821065  95.3367798 119.9437840  68.8407687  98.8538837 118.2983253
  68.5497553  99.7584468 118.1829919  69.4764671  98.8955365 119.0127322
  73.7997572  98.5400253 115.2933046  73.4998295  99.4425291 115.1848854
  73.4548632  98.2732436 116.1454199  68.7818352 105.3044573 108.2604014
  68.7042382 106.2552398 108.3392495  68.1779996 104.9590446 108.9178940
  71.2735582  92.4772438 120.9165381  70.4968916  93.0366359 120.9068246
  71.9126145  92.9629221 121.4380251  69.5281954  95.2857892 120.4783348
  70.2696638  95.8242936 120.2018172  68.8218940  95.9124181 120.6354900
  75.0037294  97.4287032 119.0755509  75.4120650  96.9869443 118.3310142
  74.2814555  96.8539660 119.3289702  79.2055340  98.9242661 110.1852162
  78.5206378  99.3041562 109.6349195  79.2899190  99.5337987 110.9184110
  74.5067809  90.0264007 118.1070240  74.2628741  90.7806068 117.5704516
  74.7827740  90.4049355 118.9417487  76.4606272  96.5702620 116.7847506
  76.6723167  97.2134380 116.1081887  76.4136020  95.7364936 116.3169436
  77.5752100  99.4474575 114.9569863  78.3969544  99.0454762 114.6752545
  77.5714503  99.3442809 115.9085979  71.3408703  98.9958618 117.1130573
  71.4053136  99.4579026 117.9488745  70.6319627  98.3655983 117.2412883
  85.6658093  95.7913324 111.3054834  84.9121801  95.2220722 111.1498839
  85.8005634  95.7575988 112.2525469  67.5424061  86.7418306 123.6423909
  67.1491006  86.1884504 124.3171553  68.3590201  87.0528884 124.0330427
  65.6033360  93.3432552 119.5122395  65.4886875  92.4417809 119.8129494
  64.7477877  93.5896249 119.1607212  72.6825197 101.2850292 121.1109896
  72.2389052 100.4986671 120.7930800  73.3442411 101.4729443 120.4453787
  67.4412318 102.8146094 115.6370574  67.9919744 102.6863157 114.8647568
  66.6023794 103.1140983 115.2865467  74.7806435 101.5653092 119.1391297
  74.7624911 102.3861973 118.6471566  75.7026355 101.4407168 119.3641438
  71.2379490  99.0797222 119.9814806  71.7707826  98.3185510 119.7514113
  70.7093571  98.7870874 120.7238960  77.1592303  99.7382609 108.7883748
  76.7054630  98.8973519 108.8448939  76.5286270 100.3744007 109.1258528
  75.6025243 101.5759106 109.7233566  75.8948217 102.1364163 109.0045932
  76.1123863 101.8687667 110.4786725  70.5658868 102.3539457 110.8127020
  70.5235047 102.5800303 109.8835552  71.4821567 102.1202831 110.9612821
  73.5019513 101.6120581 114.9601350  73.5556535 102.1811518 115.7279066
  72.6334294 101.7822466 114.5955387  80.6307168  98.0542188 115.9601135
  80.8243058  98.9587998 116.2060410  80.5307786  97.5949607 116.7939720
  75.6922276  98.2048931 121.5342015  75.5407783  97.9759482 120.6172099
  75.6826956  99.1619532 121.5473360  71.2595944  99.8031508 114.2886819
  71.1207030  99.4350292 115.1612757  70.4710541 100.3179147 114.1170777
  72.8101160  99.1813110 111.6775657  72.4750992  99.1413880 112.5733307
  72.3105105  98.5157826 111.2046067  66.7845404  94.5880740 117.2028238
  66.6465202  93.8560979 117.8039777  67.6950327  94.4989641 116.9212426
  75.7460351  96.5269145 101.9512717  75.1289522  95.8015973 101.8545770
  75.2776840  97.2878505 101.6079791  77.4014483 101.2368053 119.6118497
  77.3427029 100.5527273 118.9449080  77.8034001 101.9787043 119.1599123
  66.4205182 108.0529967 112.4052216  66.6601780 108.6848491 113.0831235
  65.5774378 107.7018007 112.6917575  77.4031890  99.2007637 117.8432477
  76.5158669  98.8633559 117.9658876  77.9730441  98.4690668 118.0801242
  70.9333044 103.8609089 114.8093720  70.8603215 104.6664061 115.3213025
  70.4910437 104.0601055 113.9841741  73.3931727 103.7595923 116.9651879
  74.1059699 104.3943388 116.8927780  72.9021756 103.8559789 116.1491881
  68.4443641 101.5090367 117.7857450  69.1453100 102.1426850 117.9386844
  67.9738756 101.8505098 117.0253089  73.2052100 104.0994668 109.7138170
  73.3874495 103.2816323 110.1765923  74.0285087 104.3162360 109.2763060
  72.2932500  94.8054785 122.0976037  71.6173137  94.7048915 122.7678412
  73.1160134  94.6493999 122.5612034  64.0411359 101.0426722 114.7188552
  64.6264796 100.2970410 114.8516456  63.8436197 101.3530679 115.6025216
  66.8950014 104.0777969 109.7350995  66.2260389 104.5624097 109.2515035
  66.7562884 104.3247190 110.6494373  71.0355283 106.1121713 116.3333653
  71.5873591 106.2753334 117.0982738  71.3761476 106.7026151 115.6613678
  75.8866157 100.9382970 122.1882307  76.4306061 101.5512929 121.6937262
  75.3053002 101.4962549 122.7049320  74.1723670 104.0603688 113.3197335
  74.0474809 103.2593428 112.8108281  74.8302761 104.5549882 112.8311305
  76.2358578 101.8612709 114.9476885  75.2888914 101.7418060 114.8755212
  76.5841351 100.9735207 115.0303147  73.2405011 101.6565425 111.1481237
  73.0929974 100.7282132 111.3288807  74.0658505 101.6785515 110.6638313
  76.8439133 102.4793983 112.2346110  77.7685681 102.2736845 112.0970561
  76.6754437 102.2310385 113.1435452  63.2377431  94.1364216 118.5501917
  62.4959167  94.2846852 119.1366548  62.9170175  94.3972482 117.6868667
  79.5201045  99.7646121 106.2192431  80.0452369 100.1033394 105.4941751
  79.4323398  98.8293136 106.0355565  71.1821094 103.6780194 118.3482307
  71.4908220 103.4329341 119.2205007  71.9796576 103.8826833 117.8601178
  71.2041706 105.8318104 110.5787684  70.7646696 105.3394483 111.2720541
  71.9549823 105.2891072 110.3379759  68.6515578 101.3756113 112.6509986
  68.0295587 100.7126818 112.3512213  69.3220445 101.4017245 111.9683633
  79.2094951 100.3979024 121.5243629  78.4190495 100.3803163 120.9848128
  78.9728306 100.9367318 122.2792665  79.3292826  97.2471491 118.8376357
  79.3790831  97.0821498 119.7791880  79.2206750  96.3798750 118.4474238
  76.6196589  93.2302419 120.1535664  77.5206451  93.0908884 119.8619662
  76.6944563  93.3956874 121.0933841  80.8311023  99.6668432 119.0818379
  80.5395831 100.0298413 119.9181840  80.2183154  98.9535441 118.9031711
  79.0798211  94.7901047 117.5498437  79.5552333  94.9828693 116.7417288
  78.1563777  94.8460233 117.3041820  77.5609767 102.0211187 101.6892723
  77.4823398 101.6871051 102.5828481  78.3819434 102.5132955 101.6884196
  86.0764508  95.9488934 114.0375079  86.8067896  95.6874222 114.5982782
  85.4671453  95.2117656 114.0777147  84.1579805  94.0896796 114.6349530
  83.4312969  93.9552761 114.0266022  83.7427092  94.3973625 115.4406248
  71.9809982  97.8086726 122.3996903  72.9012991  97.9865325 122.5936950
  71.9459565  96.8642771 122.2476602  64.9772054  95.7187761 115.0419684
  65.1958064  96.6504868 115.0607718  65.3897828  95.3595735 115.8274488
  69.8499919  91.2920966 124.4322433  69.7496646  92.2415323 124.3634524
  69.6321461  90.9639205 123.5598503  69.7131189  94.7218105 123.2487495
  69.2298271  95.5218465 123.4551384  69.7992128  94.7326050 122.2954939
  65.6404527  98.6122640 115.2855929  66.5947780  98.5806582 115.2185860
  65.4417050  98.1513264 116.1006154  66.2303909  97.1823756 117.8526726
  67.0496798  97.6767835 117.8761563  66.5040717  96.2655724 117.8244294
  75.1313719  99.3379183 101.3102702  75.8349569  99.5429185 101.9260357
  74.4076367  99.9055945 101.5751785  67.1523882 105.0511576 112.5144569
  67.0356266 105.9957009 112.4123259  66.3316328 104.7485138 112.9030368
  77.0400416  99.7761712 103.3601162  77.8746020  99.3442911 103.1778637
  76.8784759  99.6043726 104.2878056  61.4838823  91.5161890 118.5518923
  62.1297687  91.0060844 119.0406148  61.2755974  92.2530571 119.1262349
  74.0092215  98.5842737 124.0511064  74.8783375  98.7583390 123.6897699
  73.5298967  99.4037154 123.9286793  68.1778396 105.7039838 115.7300497
  69.0805642 105.7363449 116.0466992  67.9515766 104.7740289 115.7446833
  69.9331998 104.4570825 112.3910576  68.9827629 104.4572686 112.2774948
  70.2364484 103.7103559 111.8746611  65.8236314  88.6629507 122.6493937
  66.6867776  88.3066312 122.8597262  65.2501725  88.3243402 123.3369342
  85.6684691 110.2931363 113.4556338  86.3063101 110.1738111 112.7519679
  85.5505534 111.2412207 113.5144291  82.4774397 110.2458791 113.3917863
  82.1392909 110.1299856 112.5038398  83.3464166 109.8449956 113.3718869
  78.3361213 112.0994268 109.3814754  77.7726078 112.0084205 108.6131042
  78.2213608 111.2794172 109.8617247  82.9594180 111.3993643 119.3504069
  82.9482821 111.0046441 118.4784572  83.1214820 110.6659716 119.9437840
  75.8825645 113.5945459 112.2198975  76.6746937 113.2536284 111.8045274
  76.1222295 113.7040434 113.1401128  83.9160772 115.7665235 104.6929219
  83.2648752 116.3519316 104.3063233  84.7105135 116.2971430 104.7524257
  77.8416399 112.8554373 105.0916353  78.6147275 112.3083360 104.9529229
  78.1941798 113.7198622 105.3030815  79.6801442 114.1830755 118.2983253
  79.3891308 115.0876386 118.1829919  80.3158426 114.2247282 119.0127322
  80.6057648 111.5607603 114.8884612  81.2021221 111.3363626 114.1741575
  80.6632620 110.8192349 115.4910060  80.1782677 109.0147039 102.7234803
  80.4308198 108.4928560 101.9618266  79.2407236 108.8513184 102.8261487
  85.2225960 108.0182817 110.5309547  86.0089049 107.6002240 110.1799964
  85.4864664 108.9228909 110.6991195  85.3936037 113.4555667 105.2298203
  84.7581870 113.5290294 105.9419108  85.0633443 114.0449266 104.5517283
  90.6234387 107.9558050 111.4342525  91.3559559 107.3857267 111.6680355
  89.8673743 107.5679651 111.8749031  79.8978966 110.9175145 104.9259178
  79.7815224 110.2420048 105.5940263  80.0081226 110.4307519 104.1091331
  82.2410507 110.3785292 108.6305867  81.8768714 109.8515913 109.3418789
  83.0977622 109.9883761 108.4572353  88.1459807 101.6679624 115.8937134
  87.8143132 102.5375035 115.6698349  87.5505421 101.3515908 116.5731164
  81.8815994 105.4075191 103.6267216  82.0490396 106.2755428 103.9937687
  81.6913163 105.5702473 102.7028505  84.6391327 113.8692170 115.2933046
  84.3392050 114.7717209 115.1848854  84.2942386 113.6024354 116.1454199
  78.0903808 110.3205967 111.3269751  77.1654305 110.1882181 111.5347443
  78.3388221 111.1000186 111.8239693  88.0388471 106.3874711 112.9730484
  87.1305348 106.3190119 112.6789245  87.9876066 106.8646655 113.8012309
  81.8605214 107.8632849 104.6113883  81.7404840 108.3089900 105.4499363
  81.1657803 108.2118167 104.0527421  75.4512619 109.9639241 112.1613540
  75.5805000 110.2173720 113.0752952  74.7710071 110.5566949 111.8418195
  79.6212107 120.6336491 108.2604014  79.5436136 121.5844316 108.3392495
  79.0173750 120.2882363 108.9178940  82.1129336 107.8064356 120.9165381
  81.3362670 108.3658276 120.9068246  82.7519899 108.2921139 121.4380251
  89.9050117 104.5891149 114.7508358  89.2624497 104.8823682 114.1048152
  89.4005045 104.4744069 115.5561554  87.5590281 108.3354322 105.4394217
  88.4708137 108.5681709 105.2641914  87.0499928 108.9191366 104.8769295
  80.3675709 110.6149809 120.4783348  81.1090393 111.1534853 120.2018172
  79.6612694 111.2416098 120.6354900  85.8431048 112.7578950 119.0755509
  86.2514404 112.3161360 118.3310142  85.1208310 112.1831577 119.3289702
  82.1962118 107.6951557 116.4489066  83.0423313 108.1190970 116.5923715
  82.1360756 107.0385181 117.1427630  86.1659863 113.3180141 112.8307798
  85.5368725 113.4825855 112.1283866  85.7785525 113.7321750 113.6018762
  90.0449095 114.2534578 110.1852162  89.3600133 114.6333480 109.6349195
  90.1292944 114.8629905 110.9184110  85.3461564 105.3555925 118.1070240
  85.1022495 106.1097986 117.5704516  85.6221494 105.7341273 118.9417487
  87.3000026 111.8994537 116.7847506  87.5116922 112.5426297 116.1081887
  87.2529775 111.0656854 116.3169436  84.9026255 104.5112358 113.6884078
  84.0410734 104.8093612 113.9800815  84.9288690 104.7282757 112.7565110
  81.7187825 113.0554549 110.0957883  82.1826170 113.3342252 109.3062506
  81.4544623 112.1537993 109.9130974  78.6111906 112.6026030 113.0337647
  79.1813263 113.0313299 112.3955131  79.2020018 112.3208615 113.7321832
  80.6556711 109.1777701 106.9047449  81.3580754 109.6298745 107.3721375
  80.3237339 108.5361520 107.5327342  79.1037072 107.7689458 121.2798658
  78.4735733 108.4505738 121.5134055  78.9973160 107.6572539 120.3351796
  74.3982045 107.4361254 112.2064582  73.6081099 107.6918782 111.7304693
  74.8893292 108.2509592 112.3116623  88.4145854 114.7766493 114.9569863
  89.2363298 114.3746680 114.6752545  88.4108257 114.6734727 115.9085979
  76.3496790 107.8005833 109.1648059  75.5527953 107.9124527 109.6831555
  76.1222382 108.1392485 108.2988949  82.1802458 114.3250536 117.1130573
  82.2446890 114.7870943 117.9488745  81.4713382 113.6947901 117.2412883
  72.6819748 107.6891744 114.6379573  72.9327786 108.5738754 114.9037149
  73.2179296 107.5096346 113.8654665  96.5051847 111.1205241 111.3054834
  95.7515556 110.5512639 111.1498839  96.6399389 111.0867906 112.2525469
  81.8950475 115.9918644 106.9809554  81.7596150 116.8370179 107.4094402
  82.4360288 116.1937921 106.2175488  78.3817815 102.0710223 123.6423909
  77.9884761 101.5176422 124.3171553  79.1983955 102.3820802 124.0330427
  75.3479873 113.5094082 107.5537479  75.8604393 114.3037332 107.7043044
  76.0002586 112.8120372 107.4871080  77.1574758 116.6259838 109.6360232
  77.3341386 117.5477803 109.4481216  77.9531591 116.3118257 110.0654612
  81.2985776 103.4868103 121.2344166  82.0395489 104.0875256 121.1548628
  81.5303699 102.7445740 120.6762208  76.4427114 108.6724470 119.5122395
  76.3280629 107.7709727 119.8129494  75.5871632 108.9188167 119.1607212
  83.5218952 116.6142210 121.1109896  83.0782806 115.8278589 120.7930800
  84.1836165 116.8021361 120.4453787  78.2806073 118.1438012 115.6370574
  78.8313498 118.0155075 114.8647568  77.4417549 118.4432901 115.2865467
  85.6200190 116.8945010 119.1391297  85.6018665 117.7153891 118.6471566
  86.5420110 116.7699085 119.3641438  82.0773244 114.4089140 119.9814806
  82.6101581 113.6477428 119.7514113  81.5487325 114.1162791 120.7238960
  85.2442939  99.5149206 115.5108447  84.9007208 100.4050847 115.4347558
  85.6121902  99.3250863 114.6478032  73.3128790 111.8382736 108.3297049
  74.1504012 112.2479744 108.1130757  73.4907057 110.8982178 108.2997243
  85.2093222 109.5057817 104.0180882  84.6939845 110.2762421 104.2569270
  84.9370530 108.8322953 104.6413944  82.7940333 104.3507517 109.0766121
  81.9381929 103.9614368 108.8971759  83.2067285 104.4299478 108.2165906
  84.3239479 101.8853861 113.4757681  83.8204275 101.8483996 112.6625486
  84.6170086 102.7946603 113.5354337  80.5682365 101.9692590 112.4823862
  81.4335362 101.7735399 112.1229752  80.6359874 101.7402942 113.4093219
  90.1827496 112.2590171 105.9534056  89.4056939 111.9201331 105.5089218
  90.8618977 112.2642794 105.2789021  84.9979525 107.3784909 105.8440664
  84.6929660 107.6931058 106.6950807  85.9509967 107.4566329 105.8867997
  83.4425957 113.5375132 107.4933618  82.9147318 112.8027892 107.1806855
  82.9413459 114.3149808 107.2473586  88.4218803 111.7324153 112.6100664
  87.7642477 112.4223414 112.6980792  89.2259202 112.1220584 112.9534650
  78.1744684 104.1994798 109.8540229  78.7488436 103.9769980 109.1213422
  78.7615667 104.2683493 110.6068830  87.2324262 110.0868525 110.6604606
  87.7456143 110.7198517 111.1626315  87.8825485 109.4869721 110.2947966
  78.5014271 106.2299259 103.8736114  77.6651584 106.5673946 104.1945389
  78.3619041 106.0948239 102.9363251  80.4767352 101.0736047 108.5815298
  79.8231764 100.7585064 107.9571913  80.4347826 100.4511788 109.3075121
  81.5878557 111.3555342 100.4968591  80.6805619 111.1244596 100.6959740
  82.0849589 110.5592962 100.6842572  84.4946636 120.0652849 103.4165277
  83.8208335 120.3684546 104.0250235  84.8812458 120.8681930 103.0670734
  83.7105092 107.5617981 112.9062946  82.7927654 107.7832928 112.7484634
  84.1265236 107.6364291 112.0474653  84.4940140 108.9609396 108.0365626
  85.2411959 109.4730794 107.7272748  84.7631730 108.6393449 108.8970020
  82.7666790 111.4567937 105.0192581  81.8578010 111.1726970 105.1165050
  82.7961874 111.8767016 104.1595888  87.9986058 115.0674527 108.7883748
  87.5448385 114.2265437 108.8448939  87.3680024 115.7035925 109.1258528
  86.9418977 105.9966513 110.0184416  86.2041734 105.4843899 110.3494658
  87.1945751 105.5566894 109.2067693  86.4418997 116.9051023 109.7233566
  86.7341971 117.4656080 109.0045932  86.9517618 117.1979584 110.4786725
  87.0430605  98.7742765 110.6126185  87.3489481  97.9140128 110.3252100
  87.7683209  99.3660385 110.4125179  73.3354961 109.1773451 109.0007783
  73.1379361 108.5842812 108.2758849  72.7801625 108.8725661 109.7183722
  81.3151684 109.0696558 111.1202376  81.3700294 108.1170394 111.0444853
  80.5042886 109.2255997 111.6043674  82.4642878 112.9976681 102.3580659
  82.0262308 112.2812540 101.8986297  83.2053319 113.2252796 101.7965751
  79.2544044 107.6873618 108.8792755  78.4411910 107.9867788 109.2857947
  79.7503038 107.2929306 109.5967237  81.4052622 117.6831374 110.8127020
  81.3628801 117.9092221 109.8835552  82.3215321 117.4494749 110.9612821
  84.8518256 108.1515442 117.7107649  85.2067644 108.3786915 118.5702115
  85.4990387 108.4833819 117.0884904  90.5815993 111.2733878 108.4156978
  90.4433892 111.4635474 107.4878167  90.2252212 112.0353261 108.8725029
  78.7458119 105.2591973 114.4953990  79.3857498 105.1180732 113.7976953
  77.9135650 104.9726486 114.1192592  90.6085373 113.3410405 113.4268249
  91.0421879 113.2485694 114.2751303  91.3216953 113.3167905 112.7888265
  79.5218423 114.5594403 110.6088982  80.3159021 114.0644724 110.4071557
  78.8110115 114.0312267 110.2456688  84.3413267 116.9412499 114.9601350
  84.3950290 117.5103435 115.7279066  83.4728049 117.1114384 114.5955387
  75.8301186 108.7037485 106.6848735  74.8998775 108.6421941 106.9018697
  75.9258658 108.1813438 105.8885376  75.7486735 105.2292298 109.2726977
  76.0093553 106.1437631 109.1636137  76.5703908 104.7616741 109.4223589
  77.2211661 106.6430055 116.4425801  77.8934714 106.4347417 115.7938450
  76.3941447 106.4452141 116.0031033  91.4700922 113.3834106 115.9601135
  91.6636812 114.2879916 116.2060410  91.3701540 112.9241525 116.7939720
  83.1237233 103.2691996 118.4591462  82.4765148 103.9681946 118.3655938
  83.8938248 103.7028140 118.8267710  86.5316031 113.5340848 121.5342015
  86.3801537 113.3051400 120.6172099  86.5220710 114.4911450 121.5473360
  83.3001367 111.1072761 116.5188282  84.2293427 111.2583921 116.3457249
  82.8792397 111.1956782 115.6636928  82.0989699 115.1323425 114.2886819
  81.9600785 114.7642210 115.1612757  81.3104295 115.6471065 114.1170777
  82.6937851 120.2332522 105.6312356  82.8689607 119.7620565 106.4457979
  82.0070639 120.8598288 105.8593617  83.6494914 114.5105028 111.6775657
  83.3144747 114.4705798 112.5733307  83.1498860 113.8449744 111.2046067
  77.6239158 109.9172658 117.2028238  77.4858956 109.1852897 117.8039777
  78.5344082 109.8281558 116.9212426  86.5854106 111.8561062 101.9512717
  85.9683276 111.1307891 101.8545770  86.1170594 112.6170423 101.6079791
  80.2521459 109.6292617 116.6911918  80.9621077 108.9885810 116.6498536
  80.2090767 109.8805512 117.6138099  88.2408237 116.5659971 119.6118497
  88.1820784 115.8819191 118.9449080  88.6427756 117.3078961 119.1599123
  78.9650393 106.6157835 118.5107557  78.4287750 106.1648574 119.1629154
  78.3767101 106.7503744 117.7678022  77.2598936 123.3821885 112.4052216
  77.4995534 124.0140409 113.0831235  76.4168133 123.0309925 112.6917575
  78.3752652 106.0746487 101.0734021  77.4982118 105.9535288 100.7096268
  78.8510405 105.2832565 100.8212910  88.2425645 114.5299555 117.8432477
  87.3552423 114.1925477 117.9658876  88.8124196 113.7982586 118.0801242
  69.8954792 110.8623647 111.1675528  70.5825832 110.5485377 110.5796544
  69.7402921 111.7665011 110.8942780  74.6989514 105.7513843 115.5960552
  74.6147703 105.1439513 114.8610962  73.8772220 106.2422861 115.5970048
  81.7726798 119.1901007 114.8093720  81.6996970 119.9955979 115.3213025
  81.3304191 119.3892973 113.9841741  81.5616578 118.4272777 108.3196542
  80.7784100 118.9694457 108.4134766  82.2609323 118.9446757 108.7190783
  84.8713228 104.2367407 110.9630747  85.3681927 103.4837369 110.6431817
  84.1000209 104.2731723 110.3973956  92.7242985 109.9407772 112.6049039
  92.7132861 110.8232488 112.2342972  91.8560365 109.5879323 112.4103576
  84.2325482 119.0887841 116.9651879  84.9453454 119.7235306 116.8927780
  83.7415510 119.1851707 116.1491881  85.9543009 112.9939094 108.5369170
  85.0199287 113.1140556 108.3673875  86.1319677 112.0911561 108.2729180
  81.4548197 106.3784790 110.6902432  81.0845984 105.8255830 111.3783337
  81.9507289 105.7742923 110.1377432  89.3415560 108.8356413 109.0719205
  89.8076012 109.6684405 108.9979507  89.7923060 108.3701395 109.7764463
  79.2837395 116.8382285 117.7857450  79.9846855 117.4718768 117.9386844
  78.8132510 117.1797016 117.0253089  87.4091791 115.1800234 106.0705357
  87.6851635 115.0656829 106.9799231  86.5396290 114.7817719 106.0317530
  87.3132223 101.2037000 113.1110106  86.3995302 101.4341227 113.2792313
  87.7425324 101.2875444 113.9624138  87.0838681 109.3926892 115.6110000
  86.4310131 109.6402800 114.9562453  87.4619061 108.5791030 115.2772477
  84.0445855 119.4286585 109.7138170  84.2268250 118.6108241 110.1765923
  84.8678841 119.6454277 109.2763060  84.3788020 118.3554770 106.9753219
  84.9075787 117.8447225 106.3623381  84.6416240 118.0397301 107.8398752
  83.1326254 110.1346703 122.0976037  82.4566891 110.0340832 122.7678412
  83.9553888 109.9785917 122.5612034  74.8805113 116.3718640 114.7188552
  75.4658550 115.6262328 114.8516456  74.6829952 116.6822596 115.6025216
  77.7343768 119.4069887 109.7350995  77.0654144 119.8916015 109.2515035
  77.5956638 119.6539108 110.6494373  69.4722768 108.9424240 113.4392995
  69.5106867 108.4087831 114.2330113  68.9663061 108.4159445 112.8203973
  81.8749037 121.4413631 116.3333653  82.4267345 121.6045252 117.0982738
  82.2155230 122.0318068 115.6613678  76.8513530 103.7888780 116.9355538
  76.9154857 104.6503611 116.5232935  76.7880650 103.1762782 116.2027896
  76.3265803 105.8611913 120.5828572  76.9537842 105.4788990 121.1966096
  75.4693722 105.6426115 120.9484264  86.7259911 116.2674888 122.1882307
  87.2699815 116.8804846 121.6937262  86.1446756 116.8254466 122.7049320
  73.1031346 107.6688342 106.5146927  73.3984787 106.7599020 106.4613980
  72.2019381 107.6476081 106.1927929  85.0117424 119.3895606 113.3197335
  84.8868564 118.5885346 112.8108281  85.6696515 119.8841799 112.8311305
  76.6325593 105.7444339 112.4974475  75.9112178 106.3580306 112.3581949
  77.4218848 106.2802103 112.4191121  87.0752333 117.1904626 114.9476885
  86.1282668 117.0709977 114.8755212  87.4235106 116.3027124 115.0303147
  79.4351906 103.0798765 118.7715127  79.9586308 103.3261062 119.5341436
  79.2164239 103.9118800 118.3518264  84.0798766 116.9857342 111.1481237
  83.9323728 116.0574050 111.3288807  84.9052259 117.0077433 110.6638313
  77.9461010 105.6375409 107.0061730  78.2857083 106.1661331 106.2840338
  78.3933131 105.9755816 107.7820296  87.6832888 117.8085901 112.2346110
  88.6079435 117.6028762 112.0970561  87.5148191 117.5602302 113.1435452
  80.6404451 104.0212460 116.4564798  80.3001271 103.2220273 116.8585478
  79.9343457 104.3214171 115.8841631  81.2920923 101.1061773 114.9092121
  82.1146992 100.6322251 114.7871011  81.5358986 101.8852256 115.4090807
  79.9329157 104.1350031 105.2055022  80.6537520 104.5131284 104.7018739
  79.3094462 104.8538908 105.3090000  84.0760280 104.8395180 106.1413355
  84.2923895 105.7219818 105.8402183  83.5954347 104.4481393 105.4118997
  78.8159502 107.7980893 112.7184099  78.6704082 108.1121196 113.6108381
  78.3384705 108.4165794 112.1654998  80.6755885 104.7883441 112.7664989
  80.6617453 103.8924535 112.4297287  81.3928313 104.7954105 113.4003275
  82.5282015 105.2220781 114.8118116  82.2699793 106.1437852 114.8102447
  81.9967056 104.8251216 115.5018580  87.4728204 118.3271569 107.5908202
  87.6465082 117.7617991 106.8382054  87.9657095 119.1272463 107.4087692
  73.2905164 110.3386238 115.6571760  72.7458632 111.1146046 115.7892035
  74.1684514 110.6857042 115.4990882  80.0792780 103.6697822 108.0352559
  80.2008692 102.7414468 108.2343446  79.7894823 103.6836508 107.1230874
  82.9483971 101.3552732 111.1719279  82.9705668 101.4192065 110.2171258
  83.3652030 100.5157241 111.3659785  93.3267595 111.0907992 109.2098501
  93.7698741 110.3415317 108.8117625  92.4494105 111.0818128 108.8272233
  88.4603377 117.6438333 104.6905100  89.1554281 118.2645026 104.9092415
  88.8026527 116.7933684 104.9657478  74.0771186 109.4656134 118.5501917
  73.3352922 109.6138769 119.1366548  73.7563930 109.7264400 117.6868667
  90.3594800 115.0938039 106.2192431  90.8846124 115.4325311 105.4941751
  90.2717152 114.1585054 106.0355565  82.0214848 119.0072112 118.3482307
  82.3301975 118.7621259 119.2205007  82.8190330 119.2118751 117.8601178
  82.0435460 121.1610022 110.5787684  81.6040451 120.6686400 111.2720541
  82.7943577 120.6182989 110.3379759  74.5227799 117.3521563 110.5812312
  75.3485819 117.0525335 110.2010955  74.1721851 116.5829185 111.0302101
  79.4909333 116.7048031 112.6509986  78.8689342 116.0418736 112.3512213
  80.1614199 116.7309163 111.9683633  72.7236404 115.2707889 111.5401246
  71.8868313 114.8430063 111.3585247  72.6960050 115.4640332 112.4772037
  79.5633860 105.1829819 122.2442492  79.6122015 106.0591942 121.8620261
  80.1056374 104.6407212 121.6714135  90.0488706 115.7270942 121.5243629
  89.2584249 115.7095081 120.9848128  89.8122060 116.2659236 122.2792665
  90.1686581 112.5763409 118.8376357  90.2184586 112.4113416 119.7791880
  90.0600504 111.7090668 118.4474238  79.0522839 115.2551954 106.1268446
  79.2010960 115.9387419 105.4735119  79.8589283 115.2357044 106.6417902
  87.4590343 108.5594337 120.1535664  88.3600206 108.4200801 119.8619662
  87.5338318 108.7248791 121.0933841  81.7933148 105.9361191 118.9988850
  80.9236458 106.2294757 118.7271439  82.0292629 106.5201636 119.7196114
  91.6704778 114.9960350 119.0818379  91.3789586 115.3590331 119.9181840
  91.0576909 114.2827358 118.9031711  92.8700460 112.5613230 111.6020949
  93.7047351 113.0003034 111.7658509  93.0059589 112.0851883 110.7829195
  89.9191966 110.1192965 117.5498437  90.3946087 110.3120611 116.7417288
  88.9957531 110.1752151 117.3041820  76.8075472 111.2817132 107.1329515
  76.5621514 110.3779462 107.3309725  76.9771387 111.2834282 106.1908993
  84.4972182 102.1540808 116.5154271  85.0154126 102.8901835 116.1900759
  84.1427315 102.4604802 117.3501030  76.0771120 107.0145489 104.6315676
  75.3840365 107.0889844 103.9755712  75.8322872 106.2505833 105.1537193
  84.7484776  98.5741091 112.0355167  85.0286530  97.9064280 112.6615594
  85.5335383  98.7670186 111.5229831  82.5518245 117.7500085 103.5980194
  81.9792212 118.3690272 103.1450665  83.1251039 118.2999446 104.1320115
  88.6193635 106.9958725 115.7826742  89.5711058 107.0956822 115.8038966
  88.4497085 106.2036993 116.2924827  86.6408014 104.0814308 115.9686143
  86.0457946 104.3619321 115.2732632  86.3557711 104.5708209 116.7402884
  85.7715505 118.0337235 104.7288776  86.7046178 117.9682796 104.9321651
  85.6838718 118.8693502 104.2703308  88.4003521 117.3503105 101.6892723
  88.3217153 117.0162969 102.5828481  89.2213188 117.8424873 101.6884196
  91.0981713 110.2164844 114.8969042  91.0658033 109.2780845 115.0828726
  91.7082336 110.2948881 114.1634867  82.9365043 109.0860897 100.9396246
  83.8824148 108.9567106 101.0084664  82.5579288 108.3475559 101.4165674
  91.2476201 107.0075888 114.9427325  90.7315250 106.2234345 114.7557254
  92.1316150 106.6794605 115.1073845  88.9086928 100.7516903 110.9023138
  88.7111749 100.4431992 111.7866470  89.5186634 101.4778542 111.0321068
  96.9158262 111.2780851 114.0375079  97.6461651 111.0166139 114.5982782
  96.3065208 110.5409573 114.0777147  94.9973560 109.4188714 114.6349530
  94.2706723 109.2844679 114.0266022  94.5820846 109.7265542 115.4406248
  82.8203736 113.1378644 122.3996903  83.7406745 113.3157243 122.5936950
  82.7853319 112.1934689 122.2476602  81.1207961 107.0110874 100.8751131
  80.2139416 106.7143987 100.9513845  81.3983942 106.7140692 100.0085417
  72.0385901 108.3317237 111.3250178  71.7188685 107.4782545 111.0324552
  71.4919329 108.5465815 112.0808145  75.8165809 111.0479678 115.0419684
  76.0351818 111.9796786 115.0607718  76.2291582 110.6887653 115.8274488
  82.7370026 101.5547764 107.0295373  81.9270755 101.2094849 107.4050619
  83.4254443 101.2455307 107.6182984  84.6660575 100.6325810 108.6519669
  85.2191613 101.0521264 109.3109692  84.9030661  99.7061558 108.6942625
  80.6893674 106.6212884 124.4322433  80.5890401 107.5707241 124.3634524
  80.4715216 106.2931123 123.5598503  79.8906745 103.8697809 101.0163110
  80.7525909 104.1952707 101.2758928  80.0757089 103.0829305 100.5036176
  71.9074161 111.9520149 113.2943299  71.2137632 111.5374102 112.7813254
  72.6547152 111.9940685 112.6976718  88.0439382 102.7426335 108.1598333
  87.4638051 103.4011140 107.7776386  87.7775314 101.9203680 107.7485751
  86.4942948 102.1431393 110.3619654  86.9942726 102.2547928 109.5533973
  87.1378556 101.8392446 111.0020462  80.5524944 110.0510023 123.2487495
  80.0692026 110.8510383 123.4551384  80.6385883 110.0617968 122.2954939
  73.8210904 111.8838402 111.1709314  73.7981592 111.9826090 110.2191197
  74.1311540 112.7303553 111.4926480  76.4798281 113.9414558 115.2855929
  77.4341535 113.9098500 115.2185860  76.2810805 113.4805181 116.1006154
  77.0697664 112.5115674 117.8526726  77.8890553 113.0059752 117.8761563
  77.3434471 111.5947642 117.8244294  86.8264260 104.9026426 107.2154682
  85.9390115 105.1876076 106.9974876  87.2418249 104.7420189 106.3681959
  90.1778796 104.9272947 110.9309021  90.9539186 105.4169399 111.2033638
  89.4526930 105.3531001 111.3880890  92.6151354 105.6400566 111.9882962
  93.2095845 105.3996302 111.2776270  92.6877938 104.9207697 112.6156498
  74.8348510 119.4834177 112.3026126  74.7002978 118.7234578 111.7364124
  74.4180572 120.2075077 111.8354915  85.9707473 114.6671101 101.3102702
  86.6743323 114.8721103 101.9260357  85.2470122 115.2347862 101.5751785
  86.8005283 110.4180962 107.4304972  86.7440485 110.8749513 106.5912604
  87.3533626 109.6571646 107.2527815  90.6110089 106.2070694 108.2555091
  90.3547024 105.8067329 109.0863299  89.9862957 106.9214488 108.1305231
  94.9222427 108.9466767 110.7626383  94.3621985 109.0159956 111.5357945
  94.3165931 108.7707752 110.0425879  77.9917636 120.3803494 112.5144569
  77.8750020 121.3248927 112.4123259  77.1710082 120.0777056 112.9030368
  87.8794171 115.1053630 103.3601162  88.7139775 114.6734828 103.1778637
  87.7178514 114.9335643 104.2878056  87.5340063 111.6085743 104.7257501
  87.4788867 111.4430014 103.7845945  86.9086118 112.3161776 104.8819691
  72.3232578 106.8453807 118.5518923  72.9691441 106.3352761 119.0406148
  72.1149729 107.5822489 119.1262349  84.8485970 113.9134655 124.0511064
  85.7177130 114.0875307 123.6897699  84.3692721 114.7329072 123.9286793
  80.8436188 101.1093852 104.3042819  80.8314858 102.0535692 104.4611090
  81.7359610 100.9263997 104.0102281  79.0172150 121.0331756 115.7300497
  79.9199397 121.0655366 116.0466992  78.7909520 120.1032207 115.7446833
  80.7725752 119.7862742 112.3910576  79.8221383 119.7864604 112.2774948
  81.0758238 119.0395477 111.8746611  84.6588308  97.7036629 108.5588756
  83.8920704  97.1495115 108.7045439  85.0699013  97.7758497 109.4202908
  76.6630069 103.9921425 122.6493937  77.5261530 103.6358229 122.8597262
  76.0895479 103.6535319 123.3369342  96.5078446 125.6223281 113.4556338
  97.1456856 125.5030028 112.7519679  96.3899289 126.5704125 113.5144291
  93.3168152 125.5750709 113.3917863  92.9786664 125.4591774 112.5038398
  94.1857920 125.1741874 113.3718869  89.1754968 127.4286185 109.3814754
  88.6119833 127.3376122 108.6131042  89.0607363 126.6086090 109.8617247
  86.7219400 128.9237377 112.2198975  87.5140692 128.5828202 111.8045274
  86.9616050 129.0332352 113.1401128  94.7554526 131.0957153 104.6929219
  94.1042506 131.6811233 104.3063233  95.5498889 131.6263348 104.7524257
  88.6810154 128.1846290 105.0916353  89.4541030 127.6375277 104.9529229
  89.0335552 129.0490540 105.3030815  91.4451403 126.8899521 114.8884612
  92.0414975 126.6655543 114.1741575  91.5026375 126.1484266 115.4910060
  91.0176431 124.3438956 102.7234803  91.2701952 123.8220478 101.9618266
  90.0800990 124.1805102 102.8261487  96.0619714 123.3474735 110.5309547
  96.8482803 122.9294158 110.1799964  96.3258419 124.2520827 110.6991195
  96.2329792 128.7847585 105.2298203  95.5975625 128.8582212 105.9419108
  95.9027198 129.3741184 104.5517283 101.4628141 123.2849968 111.4342525
 102.1953313 122.7149185 111.6680355 100.7067497 122.8971568 111.8749031
  90.7372720 126.2467062 104.9259178  90.6208978 125.5711966 105.5940263
  90.8474980 125.7599436 104.1091331  93.0804261 125.7077209 108.6305867
  92.7162468 125.1807830 109.3418789  93.9371377 125.3175678 108.4572353
  98.9853562 116.9971542 115.8937134  98.6536886 117.8666953 115.6698349
  98.3899175 116.6807826 116.5731164  92.7209748 120.7367109 103.6267216
  92.8884150 121.6047346 103.9937687  92.5306917 120.8994391 102.7028505
  95.4785081 129.1984088 115.2933046  95.1785804 130.1009127 115.1848854
  95.1336141 128.9316271 116.1454199  88.9297563 125.6497885 111.3269751
  88.0048059 125.5174099 111.5347443  89.1781976 126.4292104 111.8239693
  98.8782225 121.7166628 112.9730484  97.9699102 121.6482037 112.6789245
  98.8269821 122.1938573 113.8012309  92.6998969 123.1924767 104.6113883
  92.5798594 123.6381817 105.4499363  92.0051557 123.5410084 104.0527421
  86.2906374 125.2931158 112.1613540  86.4198755 125.5465637 113.0752952
  85.6103825 125.8858866 111.8418195  90.4605861 135.9628408 108.2604014
  90.3829891 136.9136233 108.3392495  89.8567505 135.6174281 108.9178940
 100.7443871 119.9183067 114.7508358 100.1018252 120.2115600 114.1048152
 100.2398800 119.8035987 115.5561554  98.3984035 123.6646240 105.4394217
  99.3101891 123.8973627 105.2641914  97.8893682 124.2483284 104.8769295
  91.2069463 125.9441727 120.4783348  91.9484147 126.4826771 120.2018172
  90.5006449 126.5708016 120.6354900  93.0355873 123.0243474 116.4489066
  93.8817068 123.4482888 116.5923715  92.9754510 122.3677099 117.1427630
  97.0053617 128.6472058 112.8307798  96.3762480 128.8117772 112.1283866
  96.6179279 129.0613668 113.6018762 100.8842849 129.5826496 110.1852162
 100.1993887 129.9625397 109.6349195 100.9686699 130.1921823 110.9184110
  96.1855318 120.6847843 118.1070240  95.9416250 121.4389903 117.5704516
  96.4615249 121.0633190 118.9417487  98.1393781 127.2286455 116.7847506
  98.3510676 127.8718215 116.1081887  98.0923529 126.3948772 116.3169436
  95.7420010 119.8404276 113.6884078  94.8804489 120.1385529 113.9800815
  95.7682444 120.0574675 112.7565110  92.5581579 128.3846466 110.0957883
  93.0219925 128.6634169 109.3062506  92.2938377 127.4829911 109.9130974
  89.4505660 127.9317948 113.0337647  90.0207017 128.3605216 112.3955131
  90.0413772 127.6500533 113.7321832  91.4950465 124.5069619 106.9047449
  92.1974509 124.9590662 107.3721375  91.1631094 123.8653438 107.5327342
  89.9430827 123.0981375 121.2798658  89.3129487 123.7797656 121.5134055
  89.8366915 122.9864457 120.3351796  85.2375799 122.7653171 112.2064582
  84.4474853 123.0210700 111.7304693  85.7287047 123.5801509 112.3116623
  87.1890545 123.1297751 109.1648059  86.3921708 123.2416445 109.6831555
  86.9616137 123.4684403 108.2988949  83.5213502 123.0183662 114.6379573
  83.7721541 123.9030672 114.9037149  84.0573051 122.8388263 113.8654665
 107.3445602 126.4497159 111.3054834 106.5909310 125.8804557 111.1498839
 107.4793143 126.4159824 112.2525469  92.7344230 131.3210561 106.9809554
  92.5989905 132.1662097 107.4094402  93.2754042 131.5229839 106.2175488
  89.2211570 117.4002141 123.6423909  88.8278515 116.8468340 124.3171553
  90.0377710 117.7112720 124.0330427  86.1873627 128.8385999 107.5537479
  86.6998148 129.6329250 107.7043044  86.8396340 128.1412290 107.4871080
  87.9968512 131.9551756 109.6360232  88.1735140 132.8769720 109.4481216
  88.7925346 131.6410175 110.0654612  92.1379531 118.8160020 121.2344166
  92.8789244 119.4167173 121.1548628  92.3697453 118.0737658 120.6762208
  87.2820869 124.0016388 119.5122395  87.1674384 123.1001645 119.8129494
  86.4265386 124.2480084 119.1607212  89.1199827 133.4729929 115.6370574
  89.6707253 133.3446993 114.8647568  88.2811303 133.7724818 115.2865467
  96.0836693 114.8441123 115.5108447  95.7400963 115.7342765 115.4347558
  96.4515656 114.6542781 114.6478032  84.1522544 127.1674654 108.3297049
  84.9897766 127.5771662 108.1130757  84.3300812 126.2274096 108.2997243
  96.0486976 124.8349734 104.0180882  95.5333600 125.6054339 104.2569270
  95.7764285 124.1614870 104.6413944  93.6334087 119.6799435 109.0766121
  92.7775684 119.2906285 108.8971759  94.0461039 119.7591396 108.2165906
  95.1633234 117.2145778 113.4757681  94.6598029 117.1775914 112.6625486
  95.4563841 118.1238521 113.5354337  91.4076120 117.2984508 112.4823862
  92.2729117 117.1027317 112.1229752  91.4753629 117.0694860 113.4093219
 101.0221250 127.5882089 105.9534056 100.2450693 127.2493248 105.5089218
 101.7012731 127.5934712 105.2789021  95.8373279 122.7076826 105.8440664
  95.5323415 123.0222976 106.6950807  96.7903722 122.7858246 105.8867997
  94.2819711 128.8667050 107.4933618  93.7541073 128.1319809 107.1806855
  93.7807214 129.6441726 107.2473586  99.2612557 127.0616070 112.6100664
  98.6036232 127.7515332 112.6980792 100.0652956 127.4512502 112.9534650
  89.0138439 119.5286716 109.8540229  89.5882191 119.3061897 109.1213422
  89.6009421 119.5975411 110.6068830  98.0718016 125.4160443 110.6604606
  98.5849898 126.0490435 111.1626315  98.7219240 124.8161638 110.2947966
  89.3408026 121.5591177 103.8736114  88.5045338 121.8965864 104.1945389
  89.2012796 121.4240157 102.9363251  91.3161107 116.4027965 108.5815298
  90.6625519 116.0876982 107.9571913  91.2741581 115.7803705 109.3075121
  92.4272311 126.6847260 100.4968591  91.5199373 126.4536513 100.6959740
  92.9243343 125.8884879 100.6842572  95.3340390 135.3944767 103.4165277
  94.6602089 135.6976464 104.0250235  95.7206212 136.1973848 103.0670734
  94.5498847 122.8909898 112.9062946  93.6321408 123.1124845 112.7484634
  94.9658991 122.9656209 112.0474653  95.3333895 124.2901314 108.0365626
  96.0805714 124.8022711 107.7272748  95.6025484 123.9685367 108.8970020
  93.6060545 126.7859855 105.0192581  92.6971764 126.5018888 105.1165050
  93.6355629 127.2058933 104.1595888  98.8379812 130.3966444 108.7883748
  98.3842139 129.5557354 108.8448939  98.2073779 131.0327843 109.1258528
  97.7812732 121.3258430 110.0184416  97.0435489 120.8135817 110.3494658
  98.0339505 120.8858812 109.2067693  97.2812752 132.2342941 109.7233566
  97.5735726 132.7947998 109.0045932  97.7911372 132.5271502 110.4786725
  97.8824359 114.1034682 110.6126185  98.1883236 113.2432046 110.3252100
  98.6076964 114.6952303 110.4125179  84.1748715 124.5065369 109.0007783
  83.9773115 123.9134730 108.2758849  83.6195379 124.2017579 109.7183722
  92.1545439 124.3988475 111.1202376  92.2094049 123.4462312 111.0444853
  91.3436641 124.5547915 111.6043674  93.3036633 128.3268599 102.3580659
  92.8656063 127.6104457 101.8986297  94.0447074 128.5544713 101.7965751
  90.0937799 123.0165535 108.8792755  89.2805664 123.3159706 109.2857947
  90.5896793 122.6221224 109.5967237  92.2446377 133.0123292 110.8127020
  92.2022555 133.2384138 109.8835552  93.1609076 132.7786667 110.9612821
  95.6912010 123.4807360 117.7107649  96.0461398 123.7078833 118.5702115
  96.3384142 123.8125736 117.0884904 101.4209747 126.6025796 108.4156978
 101.2827646 126.7927392 107.4878167 101.0645966 127.3645178 108.8725029
  89.5851874 120.5883891 114.4953990  90.2251253 120.4472650 113.7976953
  88.7529404 120.3018404 114.1192592 101.4479127 128.6702323 113.4268249
 101.8815634 128.5777612 114.2751303 102.1610708 128.6459823 112.7888265
  90.3612177 129.8886321 110.6088982  91.1552776 129.3936641 110.4071557
  89.6503870 129.3604184 110.2456688  86.6694941 124.0329403 106.6848735
  85.7392529 123.9713858 106.9018697  86.7652413 123.5105356 105.8885376
  86.5880490 120.5584216 109.2726977  86.8487307 121.4729549 109.1636137
  87.4097662 120.0908658 109.4223589  88.0605415 121.9721973 116.4425801
  88.7328469 121.7639335 115.7938450  87.2335202 121.7744059 116.0031033
  93.9630987 118.5983914 118.4591462  93.3158902 119.2973863 118.3655938
  94.7332003 119.0320058 118.8267710  94.1395122 126.4364679 116.5188282
  95.0687182 126.5875838 116.3457249  93.7186152 126.5248699 115.6636928
  92.9383453 130.4615343 114.2886819  92.7994539 130.0934128 115.1612757
  92.1498050 130.9762983 114.1170777  93.5331605 135.5624440 105.6312356
  93.7083361 135.0912483 106.4457979  92.8464393 136.1890206 105.8593617
  94.4888669 129.8396946 111.6775657  94.1538501 129.7997716 112.5733307
  93.9892614 129.1741662 111.2046067  88.4632913 125.2464576 117.2028238
  88.3252711 124.5144815 117.8039777  89.3737836 125.1573476 116.9212426
  97.4247860 127.1852980 101.9512717  96.8077031 126.4599808 101.8545770
  96.9564349 127.9462340 101.6079791  91.0915213 124.9584535 116.6911918
  91.8014832 124.3177727 116.6498536  91.0484521 125.2097430 117.6138099
  89.8044147 121.9449753 118.5107557  89.2681504 121.4940492 119.1629154
  89.2160856 122.0795662 117.7678022  88.0992691 138.7113802 112.4052216
  88.3389289 139.3432327 113.0831235  87.2561887 138.3601842 112.6917575
  89.2146406 121.4038404 101.0734021  88.3375872 121.2827205 100.7096268
  89.6904159 120.6124483 100.8212910  80.7348546 126.1915564 111.1675528
  81.4219586 125.8777294 110.5796544  80.5796675 127.0956929 110.8942780
  85.5383268 121.0805761 115.5960552  85.4541457 120.4731430 114.8610962
  84.7165975 121.5714779 115.5970048  92.4010332 133.7564695 108.3196542
  91.6177854 134.2986375 108.4134766  93.1003077 134.2738674 108.7190783
  95.7106982 119.5659324 110.9630747  96.2075682 118.8129287 110.6431817
  94.9393964 119.6023641 110.3973956 103.5636740 125.2699690 112.6049039
 103.5526616 126.1524405 112.2342972 102.6954119 124.9171241 112.4103576
  96.7936763 128.3231012 108.5369170  95.8593042 128.4432474 108.3673875
  96.9713431 127.4203478 108.2729180  92.2941951 121.7076707 110.6902432
  91.9239739 121.1547748 111.3783337  92.7901044 121.1034841 110.1377432
 100.1809314 124.1648331 109.0719205 100.6469767 124.9976322 108.9979507
 100.6316815 123.6993312 109.7764463  98.2485545 130.5092152 106.0705357
  98.5245389 130.3948747 106.9799231  97.3790044 130.1109637 106.0317530
  98.1525977 116.5328918 113.1110106  97.2389057 116.7633145 113.2792313
  98.5819079 116.6167362 113.9624138  97.9232436 124.7218810 115.6110000
  97.2703886 124.9694717 114.9562453  98.3012816 123.9082948 115.2772477
  94.8839609 134.7578503 109.7138170  95.0662004 133.9400159 110.1765923
  95.7072595 134.9746195 109.2763060  95.2181775 133.6846688 106.9753219
  95.7469541 133.1739143 106.3623381  95.4809995 133.3689218 107.8398752
  85.7198868 131.7010557 114.7188552  86.3052305 130.9554245 114.8516456
  85.5223706 132.0114514 115.6025216  88.5737523 134.7361805 109.7350995
  87.9047898 135.2207932 109.2515035  88.4350393 134.9831025 110.6494373
  80.3116522 124.2716158 113.4392995  80.3500622 123.7379748 114.2330113
  79.8056815 123.7451363 112.8203973  87.6907285 119.1180698 116.9355538
  87.7548611 119.9795529 116.5232935  87.6274405 118.5054700 116.2027896
  87.1659557 121.1903831 120.5828572  87.7931596 120.8080908 121.1966096
  86.3087476 120.9718033 120.9484264  83.9425100 122.9980260 106.5146927
  84.2378541 122.0890938 106.4613980  83.0413136 122.9767999 106.1927929
  95.8511179 134.7187524 113.3197335  95.7262318 133.9177264 112.8108281
  96.5090270 135.2133717 112.8311305  87.4719347 121.0736256 112.4974475
  86.7505933 121.6872224 112.3581949  88.2612603 121.6094021 112.4191121
  90.2745661 118.4090683 118.7715127  90.7980062 118.6552979 119.5341436
  90.0557994 119.2410718 118.3518264  85.6712942 120.6794357 106.6386252
  85.3425648 119.7991736 106.4561358  86.0252312 120.6242026 107.5262641
  94.9192520 132.3149260 111.1481237  94.7717483 131.3865967 111.3288807
  95.7446014 132.3369351 110.6638313  88.7854765 120.9667327 107.0061730
  89.1250837 121.4953248 106.2840338  89.2326885 121.3047733 107.7820296
  98.5226642 133.1377819 112.2346110  99.4473190 132.9320680 112.0970561
  98.3541946 132.8894220 113.1435452  91.4798206 119.3504378 116.4564798
  91.1395026 118.5512191 116.8585478  90.7737212 119.6506089 115.8841631
  92.1314677 116.4353690 114.9092121  92.9540747 115.9614169 114.7871011
  92.3752741 117.2144174 115.4090807  90.7722912 119.4641949 105.2055022
  91.4931274 119.8423202 104.7018739  90.1488216 120.1830826 105.3090000
  94.9154035 120.1687098 106.1413355  95.1317649 121.0511736 105.8402183
  94.4348102 119.7773311 105.4118997  89.6553256 123.1272811 112.7184099
  89.5097837 123.4413114 113.6108381  89.1778460 123.7457711 112.1654998
  91.5149639 120.1175359 112.7664989  91.5011208 119.2216452 112.4297287
  92.2322067 120.1246023 113.4003275  93.3675770 120.5512699 114.8118116
  93.1093548 121.4729770 114.8102447  92.8360810 120.1543134 115.5018580
  98.3121959 133.6563486 107.5908202  98.4858836 133.0909909 106.8382054
  98.8050850 134.4564381 107.4087692  84.1298918 125.6678155 115.6571760
  83.5852386 126.4437963 115.7892035  85.0078268 126.0148960 115.4990882
  90.9186535 118.9989739 108.0352559  91.0402446 118.0706385 108.2343446
  90.6288577 119.0128425 107.1230874  93.7877725 116.6844650 111.1719279
  93.8099422 116.7483983 110.2171258  94.2045784 115.8449158 111.3659785
 104.1661350 126.4199909 109.2098501 104.6092496 125.6707234 108.8117625
 103.2887860 126.4110046 108.8272233  99.2997131 132.9730251 104.6905100
  99.9948036 133.5936943 104.9092415  99.6420281 132.1225602 104.9657478
  84.9164940 124.7948052 118.5501917  84.1746676 124.9430687 119.1366548
  84.5957684 125.0556317 117.6868667 101.1988554 130.4229956 106.2192431
 101.7239878 130.7617229 105.4941751 101.1110907 129.4876972 106.0355565
  92.8829215 136.4901939 110.5787684  92.4434205 135.9978318 111.2720541
  93.6337332 135.9474907 110.3379759  85.3621554 132.6813480 110.5812312
  86.1879574 132.3817252 110.2010955  85.0115606 131.9121103 111.0302101
  90.3303087 132.0339949 112.6509986  89.7083096 131.3710654 112.3512213
  91.0007954 132.0601080 111.9683633  83.5630159 130.5999807 111.5401246
  82.7262067 130.1721981 111.3585247  83.5353804 130.7932250 112.4772037
  90.4027615 120.5121737 122.2442492  90.4515770 121.3883859 121.8620261
  90.9450129 119.9699130 121.6714135  89.8916594 130.5843872 106.1268446
  90.0404714 131.2679336 105.4735119  90.6983037 130.5648962 106.6417902
  92.6326903 121.2653109 118.9988850  91.7630212 121.5586675 118.7271439
  92.8686383 121.8493554 119.7196114 103.7094214 127.8905148 111.6020949
 104.5441106 128.3294952 111.7658509 103.8453343 127.4143801 110.7829195
  87.6469227 126.6109050 107.1329515  87.4015269 125.7071380 107.3309725
  87.8165141 126.6126200 106.1908993  95.3365937 117.4832726 116.5154271
  95.8547881 118.2193753 116.1900759  94.9821070 117.7896719 117.3501030
  86.9164874 122.3437407 104.6315676  86.2234119 122.4181762 103.9755712
  86.6716626 121.5797751 105.1537193  95.5878531 113.9033008 112.0355167
  95.8680285 113.2356198 112.6615594  96.3729138 114.0962104 111.5229831
  93.3911999 133.0792002 103.5980194  92.8185967 133.6982189 103.1450665
  93.9644793 133.6291364 104.1320115  99.4587389 122.3250642 115.7826742
 100.4104812 122.4248740 115.8038966  99.2890840 121.5328911 116.2924827
  97.4801769 119.4106226 115.9686143  96.8851701 119.6911238 115.2732632
  97.1951465 119.9000127 116.7402884  96.6109259 133.3629152 104.7288776
  97.5439932 133.2974714 104.9321651  96.5232472 134.1985419 104.2703308
  99.2397276 132.6795023 101.6892723  99.1610907 132.3454886 102.5828481
 100.0606943 133.1716791 101.6884196 101.9375467 125.5456762 114.8969042
 101.9051787 124.6072763 115.0828726 102.5476091 125.6240799 114.1634867
  93.7758798 124.4152815 100.9396246  94.7217903 124.2859023 101.0084664
  93.3973043 123.6767477 101.4165674 102.0869956 122.3367806 114.9427325
 101.5709004 121.5526262 114.7557254 102.9709904 122.0086522 115.1073845
  99.7480682 116.0808821 110.9023138  99.5505504 115.7723909 111.7866470
 100.3580388 116.8070460 111.0321068 105.8367314 124.7480632 114.6349530
 105.1100478 124.6136596 114.0266022 105.4214601 125.0557460 115.4406248
  91.9601715 122.3402791 100.8751131  91.0533171 122.0435904 100.9513845
  92.2377696 122.0432610 100.0085417  82.8779655 123.6609155 111.3250178
  82.5582440 122.8074463 111.0324552  82.3313084 123.8757733 112.0808145
  86.6559563 126.3771596 115.0419684  86.8745573 127.3088704 115.0607718
  87.0685337 126.0179570 115.8274488  93.5763781 116.8839681 107.0295373
  92.7664509 116.5386766 107.4050619  94.2648198 116.5747225 107.6182984
  95.5054329 115.9617728 108.6519669  96.0585368 116.3813181 109.3109692
  95.7424415 115.0353476 108.6942625  90.7300500 119.1989727 101.0163110
  91.5919664 119.5244625 101.2758928  90.9150844 118.4121223 100.5036176
  82.7467915 127.2812066 113.2943299  82.0531387 126.8666019 112.7813254
  83.4940906 127.3232603 112.6976718  98.8833136 118.0718253 108.1598333
  98.3031805 118.7303057 107.7776386  98.6169069 117.2495598 107.7485751
  97.3336703 117.4723311 110.3619654  97.8336481 117.5839845 109.5533973
  97.9772311 117.1684364 111.0020462  84.6604658 127.2130320 111.1709314
  84.6375346 127.3118007 110.2191197  84.9705295 128.0595471 111.4926480
  87.3192036 129.2706475 115.2855929  88.2735289 129.2390418 115.2185860
  87.1204559 128.8097099 116.1006154  87.9091418 127.8407591 117.8526726
  88.7284307 128.3351670 117.8761563  88.1828226 126.9239559 117.8244294
  97.6658014 120.2318344 107.2154682  96.7783869 120.5167994 106.9974876
  98.0812003 120.0712107 106.3681959 101.0172550 120.2564865 110.9309021
 101.7932940 120.7461317 111.2033638 100.2920685 120.6822919 111.3880890
 103.4545109 120.9692484 111.9882962 104.0489600 120.7288220 111.2776270
 103.5271693 120.2499614 112.6156498  85.6742265 134.8126095 112.3026126
  85.5396733 134.0526496 111.7364124  85.2574327 135.5366995 111.8354915
  96.8101228 129.9963018 101.3102702  97.5137078 130.2013021 101.9260357
  96.0863876 130.5639780 101.5751785  97.6399038 125.7472879 107.4304972
  97.5834239 126.2041431 106.5912604  98.1927380 124.9863564 107.2527815
 101.4503844 121.5362611 108.2555091 101.1940778 121.1359247 109.0863299
 100.8256712 122.2506405 108.1305231 105.7616182 124.2758685 110.7626383
 105.2015740 124.3451874 111.5357945 105.1559685 124.0999669 110.0425879
  88.8311391 135.7095412 112.5144569  88.7143775 136.6540844 112.4123259
  88.0103837 135.4068973 112.9030368  98.7187925 130.4345547 103.3601162
  99.5533529 130.0026746 103.1778637  98.5572268 130.2627561 104.2878056
  98.3733817 126.9377661 104.7257501  98.3182621 126.7721932 103.7845945
  97.7479873 127.6453694 104.8819691  83.1626332 122.1745725 118.5518923
  83.8085196 121.6644679 119.0406148  82.9543483 122.9114407 119.1262349
  91.6829943 116.4385770 104.3042819  91.6708613 117.3827610 104.4611090
  92.5753365 116.2555915 104.0102281  91.6119507 135.1154660 112.3910576
  90.6615138 135.1156522 112.2774948  91.9151993 134.3687395 111.8746611
  95.4982062 113.0328546 108.5588756  94.7314458 112.4787033 108.7045439
  95.9092767 113.1050415 109.4202908  87.5023823 119.3213342 122.6493937
  88.3655285 118.9650147 122.8597262  86.9289234 118.9827237 123.3369342
  99.5203908 143.5138208 105.0916353 100.2934784 142.9667195 104.9529229
  99.8729307 144.3782457 105.3030815 101.8570186 139.6730874 102.7234803
 102.1095707 139.1512395 101.9618266 100.9194745 139.5097019 102.8261487
 101.5766475 141.5758980 104.9259178 101.4602733 140.9003883 105.5940263
 101.6868734 141.0891354 104.1091331 103.5603503 136.0659027 103.6267216
 103.7277905 136.9339263 103.9937687 103.3700672 136.2286308 102.7028505
 103.5392723 138.5216684 104.6113883 103.4192349 138.9673735 105.4499363
 102.8445312 138.8702002 104.0527421 109.2377790 138.9938157 105.4394217
 110.1495646 139.2265544 105.2641914 108.7287437 139.5775202 104.8769295
 102.3344220 139.8361536 106.9047449 103.0368263 140.2882580 107.3721375
 102.0024848 139.1945355 107.5327342  98.0284299 138.4589668 109.1648059
  97.2315462 138.5708363 109.6831555  97.8009891 138.7976320 108.2988949
  94.9916299 142.4966571 108.3297049  95.8291521 142.9063580 108.1130757
  95.1694566 141.5566013 108.2997243 106.8880731 140.1641652 104.0180882
 106.3727354 140.9346257 104.2569270 106.6158039 139.4906788 104.6413944
 104.4727842 135.0091353 109.0766121 103.6169438 134.6198203 108.8971759
 104.8854793 135.0883314 108.2165906 106.6767034 138.0368744 105.8440664
 106.3717169 138.3514893 106.6950807 107.6297476 138.1150164 105.8867997
  99.8532193 134.8578634 109.8540229 100.4275945 134.6353815 109.1213422
 100.4403176 134.9267328 110.6068830 100.1801780 136.8883095 103.8736114
  99.3439093 137.2257781 104.1945389 100.0406550 136.7532074 102.9363251
 102.1554861 131.7319883 108.5815298 101.5019273 131.4168900 107.9571913
 102.1135335 131.1095623 109.3075121 103.2666066 142.0139178 100.4968591
 102.3593128 141.7828431 100.6959740 103.7637098 141.2176797 100.6842572
 104.4454299 142.1151773 105.0192581 103.5365519 141.8310805 105.1165050
 104.4749383 142.5350851 104.1595888 108.7218114 129.4326600 110.6126185
 109.0276990 128.5723963 110.3252100 109.4470718 130.0244220 110.4125179
  95.0142470 139.8357287 109.0007783  94.8166870 139.2426647 108.2758849
  94.4589134 139.5309497 109.7183722 104.1430387 143.6560516 102.3580659
 103.7049817 142.9396375 101.8986297 104.8840828 143.8836631 101.7965751
 100.9331553 138.3457453 108.8792755 100.1199419 138.6451623 109.2857947
 101.4290547 137.9513142 109.5967237  97.5088695 139.3621321 106.6848735
  96.5786284 139.3005776 106.9018697  97.6046167 138.8397273 105.8885376
  97.4274244 135.8876133 109.2726977  97.6881062 136.8021467 109.1636137
  98.2491417 135.4200576 109.4223589 108.2641615 142.5144898 101.9512717
 107.6470785 141.7891726 101.8545770 107.7958103 143.2754258 101.6079791
 100.0540161 136.7330322 101.0734021  99.1769627 136.6119123 100.7096268
 100.5297914 135.9416400 100.8212910  91.5742301 141.5207482 111.1675528
  92.2613341 141.2069212 110.5796544  91.4190429 142.4248847 110.8942780
  94.7818855 138.3272177 106.5146927  95.0772296 137.4182856 106.4613980
  93.8806890 138.3059917 106.1927929  96.5106696 136.0086275 106.6386252
  96.1819402 135.1283654 106.4561358  96.8646067 135.9533944 107.5262641
  99.6248519 136.2959245 107.0061730  99.9644592 136.8245166 106.2840338
 100.0720640 136.6339651 107.7820296 101.6116666 134.7933866 105.2055022
 102.3325029 135.1715119 104.7018739 100.9881971 135.5122743 105.3090000
 105.7547789 135.4979015 106.1413355 105.9711404 136.3803653 105.8402183
 105.2741856 135.1065229 105.4118997 101.7580289 134.3281657 108.0352559
 101.8796201 133.3998303 108.2343446 101.4682332 134.3420343 107.1230874
 104.6271480 132.0136567 111.1719279 104.6493177 132.0775900 110.2171258
 105.0439539 131.1741076 111.3659785  98.4862981 141.9400967 107.1329515
  98.2409023 141.0363297 107.3309725  98.6558896 141.9418118 106.1908993
  97.7558629 137.6729325 104.6315676  97.0627874 137.7473680 103.9755712
  97.5110381 136.9089668 105.1537193 106.4272285 129.2324926 112.0355167
 106.7074039 128.5648115 112.6615594 107.2122892 129.4254022 111.5229831
 104.6152552 139.7444733 100.9396246 105.5611657 139.6150941 101.0084664
 104.2366797 139.0059395 101.4165674 102.7995470 137.6694709 100.8751131
 101.8926925 137.3727822 100.9513845 103.0771451 137.3724527 100.0085417
  93.7173410 138.9901073 111.3250178  93.3976194 138.1366381 111.0324552
  93.1706838 139.2049651 112.0808145 104.4157535 132.2131599 107.0295373
 103.6058264 131.8678684 107.4050619 105.1041952 131.9039143 107.6182984
 106.3448084 131.2909646 108.6519669 106.8979122 131.7105099 109.3109692
 106.5818170 130.3645394 108.6942625 101.5694254 134.5281644 101.0163110
 102.4313418 134.8536543 101.2758928 101.7544598 133.7413140 100.5036176
 109.7226891 133.4010171 108.1598333 109.1425560 134.0594975 107.7776386
 109.4562823 132.5787515 107.7485751 108.5051769 135.5610261 107.2154682
 107.6177624 135.8459912 106.9974876 108.9205758 135.4004025 106.3681959
 107.6494982 145.3254936 101.3102702 108.3530832 145.5304938 101.9260357
 106.9257631 145.8931698 101.5751785 102.5223697 131.7677687 104.3042819
 102.5102367 132.7119527 104.4611090 103.4147119 131.5847833 104.0102281
 106.3375817 128.3620464 108.5588756 105.5708212 127.8078951 108.7045439
 106.7486522 128.4342333 109.4202908  31.4715920  10.6533897 100.1801645
  32.1094330  10.5340645  99.4764985  31.3536763  11.6014741 100.2389597
  28.2805626  10.6061326 100.1163170  27.9424138  10.4902390  99.2283705
  29.1495394  10.2052491 100.0964176  24.1392442  12.4596802  96.1060061
  23.5757307  12.3686739  95.3376349  24.0244837  11.6396706  96.5862553
  28.7625409  11.7596177 106.0749375  28.7514050  11.3648976 105.2029879
  28.9246049  11.0262250 106.6683147  21.6856874  13.9547994  98.9444281
  22.4778166  13.6138818  98.5290581  21.9253524  14.0642969  99.8646435
  29.7192001  16.1267770  91.4174526  29.0679980  16.7121850  91.0308539
  30.5136364  16.6573965  91.4769563  23.6447628  13.2156907  91.8161660
  24.4178504  12.6685894  91.6774536  23.9973027  14.0801156  92.0276121
  25.4832670  14.5433289 105.0228559  25.1922536  15.4478920 104.9075226
  26.1189655  14.5849817 105.7372629  26.4088877  11.9210138 101.6129919
  27.0052450  11.6966160 100.8986882  26.4663849  11.1794883 102.2155367
  25.9813906   9.3749573  89.4480110  26.2339426   8.8531094  88.6863573
  25.0438465   9.2115718  89.5506794  31.0257188   8.3785351  97.2554853
  31.8120278   7.9604774  96.9045270  31.2895893   9.2831443  97.4236502
  31.1967266  13.8158202  91.9543510  30.5613099  13.8892828  92.6664415
  30.8664672  14.4051800  91.2762589  36.4265616   8.3160584  98.1587832
  37.1590788   7.7459801  98.3925661  35.6704971   7.9282185  98.5994337
  25.7010194  11.2777679  91.6504485  25.5846453  10.6022582  92.3185569
  25.8112454  10.7910053  90.8336638  28.0441735  10.7387826  95.3551174
  27.6799943  10.2118447  96.0664096  28.9008851  10.3486295  95.1817660
  33.9491036   2.0282159 102.6182440  33.6174361   2.8977570 102.3943655
  33.3536649   1.7118443 103.2976471  27.6847222   5.7677726  90.3512523
  27.8521625   6.6357962  90.7182994  27.4944391   5.9305007  89.4273812
  30.4422556  14.2294705 102.0178353  30.1423279  15.1319743 101.9094160
  30.0973615  13.9626888 102.8699506  23.8935037  10.6808501  98.0515057
  22.9685533  10.5484715  98.2592749  24.1419450  11.4602721  98.5485000
  33.8419699   6.7477245  99.6975790  32.9336577   6.6792653  99.4034551
  33.7907295   7.2249190 100.5257616  27.6636443   8.2235383  91.3359189
  27.5436068   8.6692434  92.1744670  26.9689032   8.5720701  90.7772728
  21.2543848  10.3241775  98.8858847  21.3836229  10.5776254  99.7998258
  20.5741299  10.9169483  98.5663502  25.4243335  20.9939025  94.9849321
  25.3467365  21.9446850  95.0637801  24.8204979  20.6484897  95.6424247
  35.7081346   4.9493683 101.4753664  35.0655726   5.2426216 100.8293459
  35.2036274   4.8346603 102.2806861  33.3621509   8.6956856  92.1639524
  34.2739365   8.9284243  91.9887221  32.8531156   9.2793901  91.6014602
  31.6462277  13.1181484 105.8000816  32.0545633  12.6763895 105.0555448
  30.9239539  12.5434112 106.0535009  27.9993347   8.0554091 103.1734373
  28.8454542   8.4793504 103.3169022  27.9391985   7.3987715 103.8672936
  31.9691092  13.6782675  99.5553105  31.3399954  13.8428389  98.8529173
  31.5816754  14.0924284 100.3264069  35.8480324  14.6137113  96.9097469
  35.1631362  14.9936014  96.3594502  35.9324173  15.2232439  97.6429416
  33.1031255  12.2597072 103.5092812  33.3148150  12.9028832 102.8327193
  33.0561003  11.4259388 103.0414742  30.7057484   4.8714892 100.4129384
  29.8441963   5.1696146 100.7046122  30.7319919   5.0885291  99.4810417
  27.5219054  13.4157083  96.8203190  27.9857399  13.6944786  96.0307813
  27.2575852  12.5140527  96.6376281  24.4143135  12.9628564  99.7582953
  24.9844492  13.3915833  99.1200438  25.0051246  12.6811149 100.4567139
  26.4587940   9.5380235  93.6292755  27.1611983   9.9901279  94.0966682
  26.1268568   8.8964054  94.2572648  20.2013274   7.7963788  98.9309889
  19.4112328   8.0521316  98.4549999  20.6924521   8.6112126  99.0361929
  34.2177083  15.1369027 101.6815170  35.0394527  14.7349214 101.3997851
  34.2139486  15.0337261 102.6331285  22.1528019   8.1608367  95.8893365
  21.3559182   8.2727061  96.4076861  21.9253611   8.4995019  95.0234256
  27.9833687  14.6853070 103.8375880  28.0478119  15.1473478 104.6734052
  27.2744610  14.0550435 103.9658190  42.3083076  11.4807776  98.0300141
  41.5546785  10.9115174  97.8744146  42.4430617  11.4470440  98.9770776
  27.6981704  16.3521178  93.7054860  27.5627379  17.1972714  94.1339708
  28.2391517  16.5540455  92.9420794  21.1511102  13.8696616  94.2782786
  21.6635622  14.6639866  94.4288350  21.8033814  13.1722906  94.2116387
  22.9605986  16.9862372  96.3605539  23.1372615  17.9080337  96.1726523
  23.7562820  16.6720791  96.7899918  29.3250181  16.9744744 107.8355203
  28.8814035  16.1881123 107.5176107  29.9867394  17.1623895 107.1699093
  24.0837302  18.5040546 102.3615881  24.6344727  18.3757609 101.5892875
  23.2448778  18.8035435 102.0110774  31.4231419  17.2547544 105.8636604
  31.4049894  18.0756425 105.3716873  32.3451339  17.1301620 106.0886745
  27.8804473  14.7691674 106.7060112  28.4132810  14.0079962 106.4759420
  27.3518554  14.4765326 107.4484267  19.1160018  12.1985270  95.0542356
  19.9535240  12.6082279  94.8376064  19.2938286  11.2584712  95.0242550
  31.0124451   9.8660351  90.7426189  30.4971074  10.6364955  90.9814576
  30.7401759   9.1925487  91.3659250  28.5971562   4.7110052  95.8011427
  27.7413158   4.3216902  95.6217066  29.0098513   4.7902012  94.9411213
  30.1270708   2.2456395 100.2002987  29.6235504   2.2086530  99.3870792
  30.4201315   3.1549138 100.2599644  35.9858725  12.6192705  92.6779362
  35.2088167  12.2803865  92.2334525  36.6650206  12.6245329  92.0034328
  30.8010754   7.7387443  92.5685970  30.4960889   8.0533592  93.4196113
  31.7541196   7.8168863  92.6113303  29.2457186  13.8977666  94.2178924
  28.7178547  13.1630426  93.9052162  28.7444688  14.6752343  93.9718893
  34.2250032  12.0926687  99.3345970  33.5673706  12.7825948  99.4226099
  35.0290431  12.4823119  99.6779957  33.0355490  10.4471059  97.3849912
  33.5487372  11.0801051  97.8871622  33.6856714   9.8472255  97.0193272
  24.3045500   6.5901794  90.5981421  23.4682813   6.9276480  90.9190696
  24.1650270   6.4550773  89.6608558  27.3909786  11.7157877  87.2213897
  26.4836847  11.4847130  87.4205046  27.8880818  10.9195496  87.4087879
  30.2977865  20.4255384  90.1410583  29.6239563  20.7287080  90.7495541
  30.6843687  21.2284464  89.7916040  29.5136321   7.9220515  99.6308253
  28.5958883   8.1435462  99.4729941  29.9296465   7.9966825  98.7719960
  30.2971369   9.3211931  94.7610933  31.0443188   9.8333328  94.4518055
  30.5662959   8.9995983  95.6215327  28.5698019  11.8170471  91.7437887
  27.6609238  11.5329504  91.8410357  28.5993103  12.2369550  90.8841194
  33.8017287  15.4277061  95.5129055  33.3479614  14.5867971  95.5694245
  33.1711253  16.0638459  95.8503835  32.7450206   6.3569047  96.7429722
  32.0072963   5.8446433  97.0739965  32.9976980   5.9169429  95.9312999
  32.2450226  17.2653558  96.4478873  32.5373200  17.8258615  95.7291239
  32.7548846  17.5582119  97.2032032  32.8461833  -0.8654701  97.3371492
  33.1520710  -1.7257338  97.0497407  33.5714438  -0.2737081  97.1370485
  19.1386190   9.5375986  95.7253090  18.9410589   8.9445346  95.0004156
  18.5832854   9.2328196  96.4429028  27.1182913   9.4299092  97.8447683
  27.1731523   8.4772928  97.7690159  26.3074115   9.5858531  98.3288981
  28.2674107  13.3579215  89.0825966  27.8293537  12.6415074  88.6231603
  29.0084548  13.5855330  88.5211057  25.0575273   8.0476152  95.6038062
  24.2443139   8.3470322  96.0103254  25.5534267   7.6531841  96.3212544
  27.2083851  18.0433909  97.5372326  27.1660030  18.2694755  96.6080858
  28.1246550  17.8097283  97.6858127  30.6549485   8.5117976 104.4352955
  31.0098873   8.7389449 105.2947421  31.3021616   8.8436353 103.8130211
  36.3847222  11.6336412  95.1402284  36.2465120  11.8238008  94.2123474
  36.0283441  12.3955795  95.5970336  24.5489348   5.6194507 101.2199296
  25.1888727   5.4783266 100.5222260  23.7166878   5.3329021 100.8437898
  36.4116601  13.7012939 100.1513556  36.8453108  13.6088228 100.9996610
  37.1248182  13.6770440  99.5133572  25.3249652  14.9196938  97.3334289
  26.1190250  14.4247258  97.1316864  24.6141344  14.3914801  96.9701994
  30.1444496  17.3015033 101.6846657  30.1981519  17.8705970 102.4524372
  29.2759278  17.4716918 101.3200694  21.6332415   9.0640019  93.4094042
  20.7030003   9.0024475  93.6264004  21.7289887   8.5415972  92.6130683
  37.2732151  13.7436640 102.6846441  37.4668041  14.6482450 102.9305716
  37.1732769  13.2844059 103.5185026  32.3347260  13.8943383 108.2587322
  32.1832766  13.6653934 107.3417406  32.3251939  14.8513984 108.2718667
  29.1032596  11.4675295 103.2433588  30.0324656  11.6186455 103.0702556
  28.6823626  11.5559316 102.3882235  27.9020928  15.4925960 101.0132126
  27.7632013  15.1244744 101.8858064  27.1135524  16.0073599 100.8416084
  28.4969080  20.5935056  92.3557663  28.6720835  20.1223099  93.1703285
  27.8101868  21.2200822  92.5838923  29.4526143  14.8707562  98.4020964
  29.1175976  14.8308332  99.2978614  28.9530089  14.2052278  97.9291374
  32.3885335  12.2163597  88.6758023  31.7714505  11.4910425  88.5791076
  31.9201823  12.9772957  88.3325098  26.0552688   9.9895152 103.4157225
  26.7652306   9.3488344 103.3743843  26.0121996  10.2408047 104.3383405
  34.0439466  16.9262505 106.3363804  33.9852012  16.2421725 105.6694387
  34.4458985  17.6681495 105.8844430  23.0630165  23.7424419  99.1297523
  23.3026763  24.3742943  99.8076541  22.2199362  23.3912459  99.4162882
  24.1783880   6.4349021  87.7979328  23.3013347   6.3137822  87.4341574
  24.6541634   5.6435099  87.5458216  34.0456874  14.8902089 104.5677783
  33.1583652  14.5528011 104.6904182  34.6155425  14.1585120 104.8046549
  15.6986021  11.2226181  97.8920835  16.3857060  10.9087911  97.3041850
  15.5434149  12.1267545  97.6188086  27.5758027  19.5503541 101.5339027
  27.5028198  20.3558513 102.0458331  27.1335420  19.7495507 100.7087048
  27.3647807  18.7875311  95.0441848  26.5815328  19.3296992  95.1380073
  28.0640552  19.3049291  95.4436089  30.6744457   4.5969941  97.6876054
  31.1713156   3.8439903  97.3677124  29.9031438   4.6334257  97.1219263
  38.5274214  10.3010306  99.3294345  38.5164090  11.1835022  98.9588278
  37.6591593   9.9481857  99.1348882  30.0356710  19.4490375 103.6897185
  30.7484683  20.0837840 103.6173087  29.5446739  19.5454241 102.8737187
  31.7574237  13.3541628  95.2614477  30.8230516  13.4743091  95.0919181
  31.9350906  12.4514095  94.9974487  27.2579425   6.7387324  97.4147738
  26.8877213   6.1858364  98.1028644  27.7538518   6.1345457  96.8622738
  35.1446789   9.1958947  95.7964511  35.6107241  10.0286939  95.7224814
  35.5954289   8.7303929  96.5009770  25.0868624  17.1984819 104.5102756
  25.7878083  17.8321302 104.6632150  24.6163739  17.5399550 103.7498395
  33.2123020  15.5402769  92.7950663  33.4882864  15.4259363  93.7044537
  32.3427519  15.1420253  92.7562836  33.1163451   1.5639534  99.8355413
  32.2026531   1.7943761 100.0037619  33.5456553   1.6477978 100.6869445
  32.8869910   9.7529426 102.3355307  32.2341360  10.0005334 101.6807759
  33.2650290   8.9393564 102.0017784  29.8477084  19.7889119  96.4383477
  30.0299478  18.9710775  96.9011229  30.6710070  20.0056812  96.0008367
  30.1819249  18.7157305  93.6998525  30.7107016  18.2049759  93.0868687
  30.4447469  18.3999835  94.5644058  20.6836342  16.7321174 101.4433859
  21.2689779  15.9864862 101.5761763  20.4861180  17.0425131 102.3270523
  23.5374997  19.7672421  96.4596301  22.8685372  20.2518549  95.9760341
  23.3987867  20.0141642  97.3739680  27.6780266  21.8016165 103.0578960
  28.2298574  21.9647786 103.8228045  28.0186459  22.3920603 102.3858984
  32.5291140  16.6277422 108.9127614  33.0731044  17.2407381 108.4182569
  31.9477985  17.1857001 109.4294627  30.8148653  19.7498140 100.0442642
  30.6899793  18.9487880  99.5353587  31.4727744  20.2444334  99.5556612
  22.4356821   6.1046873  99.2219782  21.7143407   6.7182841  99.0827255
  23.2250077   6.6404638  99.1436428  32.8783561  17.5507160 101.6722192
  31.9313897  17.4312512 101.6000519  33.2266335  16.6629658 101.7548453
  29.8829995  17.3459877  97.8726544  29.7354957  16.4176584  98.0534114
  30.7083488  17.3679967  97.3883619  23.7492239   5.9977944  93.7307036
  24.0888312   6.5263865  93.0085645  24.1964360   6.3358350  94.5065603
  33.4864117  18.1688435  98.9591417  34.4110664  17.9631297  98.8215868
  33.3179420  17.9204837  99.8680758  25.7360386   4.4952565  91.9300329
  26.4568749   4.8733818  91.4264046  25.1125690   5.2141442  92.0335307
  29.8791509   5.1997714  92.8658661  30.0955123   6.0822352  92.5647489
  29.3985576   4.8083928  92.1364303  24.6190730   8.1583427  99.4429406
  24.4735311   8.4723731 100.3353687  24.1415934   8.7768328  98.8900305
  26.4787113   5.1485975  99.4910295  26.4648682   4.2527069  99.1542593
  27.1959541   5.1556639 100.1248582  28.3313244   5.5823316 101.5363423
  28.0731022   6.5040386 101.5347753  27.7998284   5.1853750 102.2263887
  33.2759433  18.6874103  94.3153508  33.4496310  18.1220525  93.5627361
  33.7688324  19.4874998  94.1332998  19.0936393  10.6988772 102.3817067
  18.5489861  11.4748580 102.5137341  19.9715742  11.0459576 102.2236189
  39.1298824  11.4510526  95.9343808  39.5729970  10.7017851  95.5362931
  38.2525334  11.4420662  95.5517540  34.2634605  18.0040867  91.4150407
  34.9585510  18.6247560  91.6337721  34.6057755  17.1536218  91.6902784
  36.1626028  15.4540573  92.9437737  36.6877353  15.7927845  92.2187057
  36.0748381  14.5187588  92.7600872  27.8246077  19.3674646 105.0727614
  28.1333204  19.1223793 105.9450314  28.6221559  19.5721285 104.5846484
  27.8466689  21.5212556  97.3032991  27.4071679  21.0288935  97.9965847
  28.5974806  20.9785524  97.0625066  20.3259028  17.7124097  97.3057619
  21.1517048  17.4127869  96.9256262  19.9753080  16.9431719  97.7547407
  25.2940561  17.0650565  99.3755292  24.6720571  16.4021270  99.0757520
  25.9645428  17.0911697  98.6928940  18.5267633  15.6310423  98.2646552
  17.6899542  15.2032598  98.0830553  18.4991279  15.8242867  99.2017343
  35.8519935  16.0873476 108.2488935  35.0615478  16.0697615 107.7093435
  35.6153289  16.6261770 109.0037972  35.9717810  12.9365943 105.5621664
  36.0215814  12.7715950 106.5037187  35.8631733  12.0693202 105.1719545
  24.8554068  15.6154488  92.8513753  25.0042189  16.2989953  92.1980425
  25.6620512  15.5959579  93.3663208  37.4736006  15.3562884 105.8063685
  37.1820815  15.7192865 106.6427146  36.8608138  14.6429893 105.6277017
  38.6731689  12.9215764  98.3266256  39.5078580  13.3605568  98.4903816
  38.8090817  12.4454417  97.5074501  35.7223195  10.4795499 104.2743743
  36.1977316  10.6723145 103.4662595  34.7988760  10.5354685 104.0287127
  22.6106701  11.6419666  93.8574822  22.3652743  10.7381996  94.0555032
  22.7802616  11.6436817  92.9154300  21.8802349   7.3748024  91.3560983
  21.1871594   7.4492379  90.7001019  21.6354101   6.6108367  91.8782500
  28.3549474  18.1102619  90.3225500  27.7823441  18.7292806  89.8695972
  28.9282267  18.6601981  90.8565422  34.4224864   7.3561259 102.5072049
  35.3742287   7.4559357 102.5284273  34.2528314   6.5639528 103.0170133
  32.4439243   4.4416842 102.6931450  31.8489175   4.7221855 101.9977939
  32.1588940   4.9310743 103.4648191  31.5746734  18.3939769  91.4534082
  32.5077407  18.3285331  91.6566958  31.4869946  19.2296036  90.9948615
  34.2034750  17.7105639  88.4138030  34.1248382  17.3765503  89.3073788
  35.0244417  18.2027407  88.4129502  36.9012941  10.5767379 101.6214349
  36.8689262   9.6383379 101.8074032  37.5113565  10.6551415 100.8880173
  28.7396272   9.4463432  87.6641553  29.6855377   9.3169640  87.7329971
  28.3610517   8.7078094  88.1410981  37.0507430   7.3678422 101.6672632
  36.5346479   6.5836879 101.4802561  37.9347378   7.0397139 101.8319151
  34.7118157   1.1119438  97.6268444  34.5142978   0.8034526  98.5111776
  35.3217862   1.8381077  97.7566374  42.7189491  11.6383386 100.7620385
  43.4492880  11.3768674 101.3228089  42.1096437  10.9012107 100.8022453
  40.8004788   9.7791248 101.3594837  40.0737952   9.6447213 100.7511328
  40.3852075  10.0868077 102.1651555  26.9239189   7.3713408  87.5996438
  26.0170645   7.0746521  87.6759151  27.2015170   7.0743226  86.7330724
  21.6197037  11.4082212 101.7664991  21.8383047  12.3399320 101.7853025
  22.0322811  11.0490187 102.5519795  30.4691803   0.9928345  95.3764976
  31.0222842   1.4123798  96.0354999  30.7061890   0.0664093  95.4187932
  25.6937974   4.2300343  87.7408417  26.5557138   4.5555242  88.0004234
  25.8788318   3.4431839  87.2281483  17.7105390  12.3122683 100.0188606
  17.0168861  11.8976636  99.5058560  18.4578381  12.3543219  99.4222025
  33.8470611   3.1028870  94.8843640  33.2669280   3.7613674  94.5021692
  33.5806543   2.2806214  94.4731058  32.2974177   2.5033927  97.0864960
  32.7973955   2.6150462  96.2779279  32.9409785   2.1994980  97.7265769
  19.6242132  12.2440937  97.8954621  19.6012820  12.3428624  96.9436504
  19.9342769  13.0906088  98.2171787  22.2829510  14.3017092 102.0101235
  23.2372764  14.2701034 101.9431167  22.0842034  13.8407715 102.8251461
  22.8728892  12.8718208 104.5772033  23.6921781  13.3662286 104.6006870
  23.1465700  11.9550176 104.5489600  32.6295489   5.2628960  93.9399988
  31.7421344   5.5478611  93.7220183  33.0449478   5.1022723  93.0927265
  35.9810025   5.2875481  97.6554328  36.7570415   5.7771934  97.9278944
  35.2558159   5.7133535  98.1126197  38.4182583   6.0003100  98.7128268
  39.0127074   5.7598836  98.0021576  38.4909167   5.2810231  99.3401804
  20.6379739  19.8436711  99.0271433  20.5034207  19.0837112  98.4609431
  20.2211801  20.5677611  98.5600222  31.7738702  15.0273635  88.0348008
  32.4774552  15.2323637  88.6505664  31.0501351  15.5950397  88.2997092
  32.6036512  10.7783496  94.1550278  32.5471714  11.2352047  93.3157911
  33.1564855  10.0174181  93.9773121  36.4141318   6.5673228  94.9800398
  36.1578252   6.1669864  95.8108606  35.7894186   7.2817022  94.8550537
  40.7253656   9.3069301  97.4871689  40.1653214   9.3762490  98.2603251
  40.1197159   9.1310286  96.7671186  23.7948865  20.7406028  99.2389876
  23.6781249  21.6851461  99.1368566  22.9741311  20.4379590  99.6275675
  33.6825399  15.4656164  90.0846468  34.5171003  15.0337362  89.9023943
  33.5209742  15.2938178  91.0123363  33.3371292  11.9688277  91.4502808
  33.2820095  11.8032549  90.5091252  32.7117347  12.6764310  91.6064997
  24.8203379  21.3934290 102.4545804  25.7230626  21.4257900 102.7712299
  24.5940749  20.4634741 102.4692140  26.5756981  20.1465277  99.1155883
  25.6252612  20.1467138  99.0020255  26.8789467  19.3998011  98.5991917
  42.3109675  25.9825815 100.1801645  42.9488084  25.8632562  99.4764985
  42.1930517  26.9306659 100.2389597  39.1199381  25.9353243 100.1163170
  38.7817892  25.8194308  99.2283705  39.9889149  25.5344408 100.0964176
  34.9786196  27.7888720  96.1060061  34.4151062  27.6978657  95.3376349
  34.8638592  26.9688624  96.5862553  39.6019164  27.0888095 106.0749375
  39.5907805  26.6940893 105.2029879  39.7639803  26.3554168 106.6683147
  32.5250628  29.2839911  98.9444281  33.3171920  28.9430736  98.5290581
  32.7647279  29.3934886  99.8646435  40.5585755  31.4559687  91.4174526
  39.9073735  32.0413768  91.0308539  41.3530118  31.9865882  91.4769563
  34.4841382  28.5448824  91.8161660  35.2572258  27.9977812  91.6774536
  34.8366781  29.4093074  92.0276121  36.3226425  29.8725207 105.0228559
  36.0316291  30.7770838 104.9075226  36.9583409  29.9141734 105.7372629
  37.2482632  27.2502055 101.6129919  37.8446204  27.0258078 100.8986882
  37.3057603  26.5086801 102.2155367  36.8207660  24.7041491  89.4480110
  37.0733181  24.1823012  88.6863573  35.8832219  24.5407636  89.5506794
  41.8650943  23.7077269  97.2554853  42.6514032  23.2896692  96.9045270
  42.1289647  24.6123361  97.4236502  42.0361020  29.1450119  91.9543510
  41.4006853  29.2184746  92.6664415  41.7058427  29.7343718  91.2762589
  47.2659370  23.6452502  98.1587832  47.9984542  23.0751719  98.3925661
  46.5098726  23.2574103  98.5994337  36.5403949  26.6069597  91.6504485
  36.4240207  25.9314500  92.3185569  36.6506209  26.1201970  90.8336638
  38.8835490  26.0679744  95.3551174  38.5193697  25.5410365  96.0664096
  39.7402606  25.6778213  95.1817660  44.7884790  17.3574076 102.6182440
  44.4568115  18.2269487 102.3943655  44.1930404  17.0410360 103.2976471
  38.5240977  21.0969643  90.3512523  38.6915379  21.9649880  90.7182994
  38.3338146  21.2596925  89.4273812  41.2816310  29.5586622 102.0178353
  40.9817033  30.4611661 101.9094160  40.9367370  29.2918805 102.8699506
  34.7328791  26.0100419  98.0515057  33.8079288  25.8776633  98.2592749
  34.9813205  26.7894638  98.5485000  44.6813454  22.0769162  99.6975790
  43.7730331  22.0084571  99.4034551  44.6301050  22.5541107 100.5257616
  38.5030198  23.5527301  91.3359189  38.3829823  23.9984352  92.1744670
  37.8082786  23.9012618  90.7772728  32.0937603  25.6533693  98.8858847
  32.2229984  25.9068172  99.7998258  31.4135054  26.2461401  98.5663502
  36.2637090  36.3230943  94.9849321  36.1861119  37.2738768  95.0637801
  35.6598733  35.9776815  95.6424247  38.7554320  23.4958808 107.6410688
  37.9787654  24.0552728 107.6313552  39.3944883  23.9815591 108.1625558
  46.5475100  20.2785601 101.4753664  45.9049480  20.5718134 100.8293459
  46.0430029  20.1638521 102.2806861  44.2015264  24.0248774  92.1639524
  45.1133120  24.2576161  91.9887221  43.6924911  24.6085818  91.6014602
  37.0100692  26.3044261 107.2028655  37.7515376  26.8429305 106.9263478
  36.3037677  26.9310550 107.3600206  42.4856032  28.4473402 105.8000816
  42.8939388  28.0055812 105.0555448  41.7633293  27.8726029 106.0535009
  38.8387102  23.3846009 103.1734373  39.6848297  23.8085422 103.3169022
  38.7785739  22.7279633 103.8672936  42.8084846  29.0074592  99.5553105
  42.1793709  29.1720307  98.8529173  42.4210508  29.4216202 100.3264069
  46.6874078  29.9429030  96.9097469  46.0025116  30.3227932  96.3594502
  46.7717927  30.5524357  97.6429416  41.9886547  21.0450377 104.8315547
  41.7447479  21.7992437 104.2949822  42.2646477  21.4235725 105.6662794
  43.9425010  27.5888989 103.5092812  44.1541905  28.2320749 102.8327193
  43.8954758  26.7551306 103.0414742  41.5451239  20.2006810 100.4129384
  40.6835718  20.4988064 100.7046122  41.5713673  20.4177209  99.4810417
  38.3612808  28.7449001  96.8203190  38.8251154  29.0236704  96.0307813
  38.0969606  27.8432445  96.6376281  35.2536889  28.2920482  99.7582953
  35.8238246  28.7207750  99.1200438  35.8445001  28.0103067 100.4567139
  37.2981694  24.8672153  93.6292755  38.0005737  25.3193197  94.0966682
  36.9662323  24.2255972  94.2572648  35.7462056  23.4583910 108.0043965
  35.1160716  24.1400190 108.2379361  35.6398144  23.3466991 107.0597103
  31.0407028  23.1255706  98.9309889  30.2506082  23.3813234  98.4549999
  31.5318275  23.9404043  99.0361929  45.0570838  30.4660945 101.6815170
  45.8788281  30.0641132 101.3997851  45.0533240  30.3629179 102.6331285
  32.9921773  23.4900285  95.8893365  32.1952937  23.6018979  96.4076861
  32.7647366  23.8286937  95.0234256  38.8227441  30.0144988 103.8375880
  38.8871874  30.4765395 104.6734052  38.1138365  29.3842353 103.9658190
  29.3244731  23.3786196 101.3624880  29.5752769  24.2633206 101.6282456
  29.8604279  23.1990798 100.5899971  53.1476831  26.8099693  98.0300141
  52.3940539  26.2407091  97.8744146  53.2824372  26.7762358  98.9770776
  38.5375459  31.6813096  93.7054860  38.4021134  32.5264631  94.1339708
  39.0785271  31.8832373  92.9420794  35.0242798  17.7604675 110.3669216
  34.6309744  17.2070874 111.0416860  35.8408939  18.0715254 110.7575733
  31.9904856  29.1988534  94.2782786  32.5029377  29.9931784  94.4288350
  32.6427569  28.5014824  94.2116387  33.7999741  32.3154290  96.3605539
  33.9766369  33.2372255  96.1726523  34.5956574  32.0012709  96.7899918
  37.9410759  19.1762554 107.9589472  38.6820473  19.7769708 107.8793935
  38.1728682  18.4340192 107.4007515  33.0852097  24.3618922 106.2367702
  32.9705612  23.4604179 106.5374801  32.2296615  24.6082618 105.8852518
  40.1643935  32.3036662 107.8355203  39.7207789  31.5173041 107.5176107
  40.8261149  32.4915813 107.1699093  34.9231056  33.8332464 102.3615881
  35.4738481  33.7049527 101.5892875  34.0842532  34.1327353 102.0110774
  42.2625173  32.5839462 105.8636604  42.2443649  33.4048343 105.3716873
  43.1845093  32.4593537 106.0886745  38.7198227  30.0983591 106.7060112
  39.2526564  29.3371880 106.4759420  38.1912308  29.8057243 107.4484267
  41.8867922  15.2043657 102.2353754  41.5432192  16.0945299 102.1592864
  42.2546885  15.0145315 101.3723339  29.9553773  27.5277188  95.0542356
  30.7928995  27.9374196  94.8376064  30.1332041  26.5876630  95.0242550
  41.8518205  25.1952269  90.7426189  41.3364828  25.9656873  90.9814576
  41.5795513  24.5217405  91.3659250  39.4365316  20.0401969  95.8011427
  38.5806912  19.6508820  95.6217066  39.8492268  20.1193930  94.9411213
  40.9664463  17.5748313 100.2002987  40.4629258  17.5378448  99.3870792
  41.2595070  18.4841055 100.2599644  37.2107349  17.6587042  99.2069169
  38.0760345  17.4629851  98.8475058  37.2784857  17.4297394 100.1338526
  46.8252479  27.9484623  92.6779362  46.0481922  27.6095783  92.2334525
  47.5043960  27.9537246  92.0034328  41.6404508  23.0679361  92.5685970
  41.3354644  23.3825510  93.4196113  42.5934950  23.1460781  92.6113303
  40.0850940  29.2269584  94.2178924  39.5572302  28.4922344  93.9052162
  39.5838443  30.0044260  93.9718893  45.0643786  27.4218604  99.3345970
  44.4067460  28.1117866  99.4226099  45.8684185  27.8115036  99.6779957
  34.8169668  19.8889250  96.5785536  35.3913420  19.6664432  95.8458729
  35.4040650  19.9577945  97.3314137  43.8749245  25.7762977  97.3849912
  44.3881127  26.4092969  97.8871622  44.5250469  25.1764173  97.0193272
  35.1439255  21.9193711  90.5981421  34.3076567  22.2568398  90.9190696
  35.0044024  21.7842691  89.6608558  37.1192335  16.7630499  95.3060605
  36.4656748  16.4479516  94.6817220  37.0772809  16.1406240  96.0320428
  38.2303540  27.0449794  87.2213897  37.3230602  26.8139048  87.4205046
  38.7274572  26.2487413  87.4087879  41.1371619  35.7547301  90.1410583
  40.4633318  36.0578998  90.7495541  41.5237441  36.5576382  89.7916040
  40.3530076  23.2512433  99.6308253  39.4352637  23.4727380  99.4729941
  40.7690219  23.3258743  98.7719960  41.1365123  24.6503848  94.7610933
  41.8836942  25.1625246  94.4518055  41.4056713  24.3287901  95.6215327
  39.4091774  27.1462389  91.7437887  38.5002993  26.8621422  91.8410357
  39.4386857  27.5661468  90.8841194  44.6411041  30.7568979  95.5129055
  44.1873368  29.9159888  95.5694245  44.0105008  31.3930377  95.8503835
  43.5843961  21.6860965  96.7429722  42.8466717  21.1738351  97.0739965
  43.8370734  21.2461346  95.9312999  43.0843980  32.5945475  96.4478873
  43.3766955  33.1550532  95.7291239  43.5942601  32.8874036  97.2032032
  43.6855588  14.4637217  97.3371492  43.9914465  13.6034580  97.0497407
  44.4108193  15.0554837  97.1370485  29.9779944  24.8667903  95.7253090
  29.7804344  24.2737264  95.0004156  29.4226608  24.5620113  96.4429028
  37.9576668  24.7591010  97.8447683  38.0125277  23.8064846  97.7690159
  37.1467870  24.9150449  98.3288981  39.1067861  28.6871133  89.0825966
  38.6687291  27.9706992  88.6231603  39.8478302  28.9147248  88.5211057
  35.8969028  23.3768069  95.6038062  35.0836893  23.6762240  96.0103254
  36.3928022  22.9823758  96.3212544  38.0477605  33.3725826  97.5372326
  38.0053784  33.5986673  96.6080858  38.9640304  33.1389201  97.6858127
  41.4943239  23.8409894 104.4352955  41.8492627  24.0681367 105.2947421
  42.1415371  24.1728271 103.8130211  47.2240976  26.9628330  95.1402284
  47.0858875  27.1529926  94.2123474  46.8677195  27.7247713  95.5970336
  35.3883102  20.9486425 101.2199296  36.0282482  20.8075184 100.5222260
  34.5560633  20.6620938 100.8437898  47.2510356  29.0304857 100.1513556
  47.6846863  28.9380146 100.9996610  47.9641937  29.0062357  99.5133572
  36.1643406  30.2488855  97.3334289  36.9584005  29.7539175  97.1316864
  35.4535099  29.7206718  96.9701994  40.9838251  32.6306951 101.6846657
  41.0375273  33.1997887 102.4524372  40.1153032  32.8008836 101.3200694
  32.4726170  24.3931937  93.4094042  31.5423758  24.3316393  93.6264004
  32.5683642  23.8707890  92.6130683  32.3911719  20.9186750  95.9972283
  32.6518536  21.8332083  95.8881444  33.2128891  20.4511192  96.1468896
  33.8636644  22.3324507 103.1671108  34.5359698  22.1241869 102.5183757
  33.0366431  22.1346593 102.7276340  48.1125905  29.0728557 102.6846441
  48.3061795  29.9774368 102.9305716  48.0126524  28.6135977 103.5185026
  39.7662216  18.9586448 105.1836769  39.1190131  19.6576398 105.0901245
  40.5363232  19.3922592 105.5513017  43.1741014  29.2235300 108.2587322
  43.0226520  28.9945852 107.3417406  43.1645694  30.1805902 108.2718667
  39.9426350  26.7967213 103.2433588  40.8718410  26.9478373 103.0702556
  39.5217380  26.8851234 102.3882235  38.7414682  30.8217877 101.0132126
  38.6025768  30.4536662 101.8858064  37.9529278  31.3365517 100.8416084
  39.3362834  35.9226974  92.3557663  39.5114590  35.4515017  93.1703285
  38.6495622  36.5492740  92.5838923  40.2919897  30.1999480  98.4020964
  39.9569730  30.1600250  99.2978614  39.7923843  29.5344196  97.9291374
  34.2664141  25.6067110 103.9273545  34.1283939  24.8747349 104.5285084
  35.1769065  25.5176010 103.6457733  43.2279089  27.5455514  88.6758023
  42.6108260  26.8202343  88.5791076  42.7595578  28.3064875  88.3325098
  36.8946442  25.3187069 103.4157225  37.6046061  24.6780262 103.3743843
  36.8515750  25.5699964 104.3383405  44.8833221  32.2554423 106.3363804
  44.8245767  31.5713643 105.6694387  45.2852739  32.9973413 105.8844430
  35.6075376  22.3052287 105.2352864  35.0712733  21.8543026 105.8874460
  35.0192084  22.4398196 104.4923328  33.9023920  39.0716337  99.1297523
  34.1420518  39.7034861  99.8076541  33.0593116  38.7204377  99.4162882
  35.0177635  21.7640939  87.7979328  34.1407101  21.6429739  87.4341574
  35.4935388  20.9727017  87.5458216  44.8850628  30.2194007 104.5677783
  43.9977407  29.8819928 104.6904182  45.4549179  29.4877038 104.8046549
  26.5379775  26.5518098  97.8920835  27.2250815  26.2379828  97.3041850
  26.3827904  27.4559463  97.6188086  31.3414497  21.4408295 102.3205859
  31.2572686  20.8333965 101.5856269  30.5197204  21.9317313 102.3215355
  38.4151781  34.8795459 101.5339027  38.3421953  35.6850431 102.0458331
  37.9729174  35.0787425 100.7087048  38.2041561  34.1167229  95.0441848
  37.4209083  34.6588909  95.1380073  38.9034306  34.6341209  95.4436089
  41.5138211  19.9261859  97.6876054  42.0106911  19.1731821  97.3677124
  40.7425193  19.9626175  97.1219263  49.3667969  25.6302224  99.3294345
  49.3557845  26.5126939  98.9588278  48.4985348  25.2773775  99.1348882
  40.8750465  34.7782293 103.6897185  41.5878437  35.4129758 103.6173087
  40.3840494  34.8746159 102.8737187  42.5967992  28.6833546  95.2614477
  41.6624271  28.8035008  95.0919181  42.7744660  27.7806012  94.9974487
  38.0973180  22.0679241  97.4147738  37.7270967  21.5150282  98.1028644
  38.5932272  21.4637375  96.8622738  45.9840543  24.5250865  95.7964511
  46.4500995  25.3578857  95.7224814  46.4348044  24.0595847  96.5009770
  35.9262378  32.5276737 104.5102756  36.6271838  33.1613219 104.6632150
  35.4557493  32.8691468 103.7498395  44.0516774  30.8694686  92.7950663
  44.3276618  30.7551281  93.7044537  43.1821273  30.4712171  92.7562836
  43.9557206  16.8931452  99.8355413  43.0420286  17.1235679 100.0037619
  44.3850307  16.9769896 100.6869445  43.7263664  25.0821344 102.3355307
  43.0735115  25.3297251 101.6807759  44.1044044  24.2685482 102.0017784
  40.6870838  35.1181037  96.4383477  40.8693233  34.3002693  96.9011229
  41.5103824  35.3348729  96.0008367  41.0213004  34.0449222  93.6998525
  41.5500770  33.5341677  93.0868687  41.2841223  33.7291752  94.5644058
  39.7751237  25.8241155 108.8221344  39.0991874  25.7235284 109.4923719
  40.5978871  25.6680369 109.2857341  31.5230096  32.0613092 101.4433859
  32.1083533  31.3156779 101.5761763  31.3254935  32.3717048 102.3270523
  34.3768752  35.0964339  96.4596301  33.7079127  35.5810467  95.9760341
  34.2381621  35.3433559  97.3739680  26.1147751  24.6318692 100.1638302
  26.1531851  24.0982282 100.9575420  25.6088044  24.1053897  99.5449279
  38.5174020  37.1308082 103.0578960  39.0692328  37.2939704 103.8228045
  38.8580214  37.7212520 102.3858984  33.4938514  19.4783232 103.6600844
  33.5579840  20.3398063 103.2478242  33.4305634  18.8657234 102.9273203
  32.9690786  21.5506365 107.3073879  33.5962825  21.1683442 107.9211403
  32.1118705  21.3320567 107.6729571  43.3684895  31.9569340 108.9127614
  43.9124799  32.5699298 108.4182569  42.7871739  32.5148918 109.4294627
  29.7456329  23.3582794  93.2392233  30.0409770  22.4493472  93.1859287
  28.8444365  23.3370533  92.9173236  41.6542408  35.0790058 100.0442642
  41.5293547  34.2779798  99.5353587  42.3121499  35.5736251  99.5556612
  33.2750576  21.4338790  99.2219782  32.5537162  22.0474758  99.0827255
  34.0643832  21.9696555  99.1436428  43.7177316  32.8799078 101.6722192
  42.7707651  32.7604429 101.6000519  44.0660089  31.9921576 101.7548453
  36.0776889  18.7693217 105.4960434  36.6011291  19.0155514 106.2586743
  35.8589223  19.6013252 105.0763571  31.4744170  21.0396892  93.3631559
  31.1456877  20.1594271  93.1806664  31.8283541  20.9844560  94.2507948
  40.7223749  32.6751794  97.8726544  40.5748712  31.7468502  98.0534114
  41.5477243  32.6971885  97.3883619  34.5885994  21.3269861  93.7307036
  34.9282066  21.8555783  93.0085645  35.0358114  21.6650267  94.5065603
  44.3257871  33.4980353  98.9591417  45.2504419  33.2923214  98.8215868
  44.1573174  33.2496754  99.8680758  37.2829434  19.7106912 103.1810104
  36.9426255  18.9114725 103.5830784  36.5768441  20.0108623 102.6086937
  37.9345906  16.7956225 101.6337427  38.7571976  16.3216703 101.5116318
  38.1783970  17.5746708 102.1336114  36.5754141  19.8244483  91.9300329
  37.2962503  20.2025736  91.4264046  35.9519445  20.5433360  92.0335307
  40.7185264  20.5289632  92.8658661  40.9348878  21.4114270  92.5647489
  40.2379331  20.1375845  92.1364303  35.4584485  23.4875345  99.4429406
  35.3129066  23.8015648 100.3353687  34.9809689  24.1060245  98.8900305
  37.3180868  20.4777893  99.4910295  37.3042437  19.5818986  99.1542593
  38.0353296  20.4848557 100.1248582  39.1706999  20.9115233 101.5363423
  38.9124776  21.8332304 101.5347753  38.6392039  20.5145668 102.2263887
  44.1153187  34.0166020  94.3153508  44.2890065  33.4512443  93.5627361
  44.6082079  34.8166915  94.1332998  29.9330147  26.0280690 102.3817067
  29.3883615  26.8040498 102.5137341  30.8109497  26.3751494 102.2236189
  36.7217764  19.3592273  94.7597866  36.8433675  18.4308920  94.9588753
  36.4319806  19.3730959  93.8476181  39.5908954  17.0447184  97.8964585
  39.6130651  17.1086517  96.9416565  40.0077013  16.2051693  98.0905092
  49.9692578  26.7802443  95.9343808  50.4123725  26.0309769  95.5362931
  49.0919089  26.7712580  95.5517540  45.1028360  33.3332785  91.4150407
  45.7979264  33.9539478  91.6337721  45.4451510  32.4828136  91.6902784
  30.7196169  25.1550586 105.2747224  29.9777905  25.3033221 105.8611854
  30.3988913  25.4158851 104.4113973  47.0019783  30.7832490  92.9437737
  47.5271107  31.1219763  92.2187057  46.9142135  29.8479506  92.7600872
  38.6639832  34.6966564 105.0727614  38.9726958  34.4515711 105.9450314
  39.4615314  34.9013203 104.5846484  38.6860444  36.8504474  97.3032991
  38.2465434  36.3580852  97.9965847  39.4368561  36.3077441  97.0625066
  31.1652783  33.0416015  97.3057619  31.9910803  32.7419786  96.9256262
  30.8146835  32.2723637  97.7547407  36.1334316  32.3942483  99.3755292
  35.5114325  31.7313188  99.0757520  36.8039183  32.4203615  98.6928940
  29.3661388  30.9602341  98.2646552  28.5293296  30.5324515  98.0830553
  29.3385033  31.1534784  99.2017343  36.2058843  20.8724271 108.9687798
  36.2546999  21.7486394 108.5865568  36.7481358  20.3301664 108.3959441
  46.6913689  31.4165394 108.2488935  45.9009233  31.3989533 107.7093435
  46.4547044  31.9553688 109.0037972  46.8111564  28.2657860 105.5621664
  46.8609569  28.1007868 106.5037187  46.7025487  27.3985119 105.1719545
  35.6947823  30.9446406  92.8513753  35.8435943  31.6281871  92.1980425
  36.5014266  30.9251496  93.3663208  44.1015326  24.2488788 106.8780971
  45.0025189  24.1095253 106.5864968  44.1763301  24.4143243 107.8179148
  38.4358132  21.6255643 105.7234157  37.5661441  21.9189209 105.4516745
  38.6717612  22.2096088 106.4441420  48.3129761  30.6854802 105.8063685
  48.0214569  31.0484782 106.6427146  47.7001892  29.9721810 105.6277017
  49.5125443  28.2507682  98.3266256  50.3472335  28.6897486  98.4903816
  49.6484572  27.7746335  97.5074501  46.5616949  25.8087417 104.2743743
  47.0371071  26.0015063 103.4662595  45.6382514  25.8646602 104.0287127
  33.4500456  26.9711584  93.8574822  33.2046498  26.0673914  94.0555032
  33.6196370  26.9728734  92.9154300  41.1397166  17.8435260 103.2399577
  41.6579109  18.5796287 102.9146066  40.7852298  18.1499253 104.0746336
  32.7196103  22.7039941  91.3560983  32.0265348  22.7784296  90.7001019
  32.4747855  21.9400285  91.8782500  41.3909760  14.2635543  98.7600474
  41.6711514  13.5958732  99.3860900  42.1760367  14.4564638  98.2475138
  39.1943228  33.4394537  90.3225500  38.6217195  34.0584724  89.8695972
  39.7676022  33.9893898  90.8565422  45.2618618  22.6853177 102.5072049
  46.2136041  22.7851274 102.5284273  45.0922069  21.8931445 103.0170133
  43.2832998  19.7708760 102.6931450  42.6882930  20.0513773 101.9977939
  42.9982694  20.2602661 103.4648191  42.4140488  33.7231687  91.4534082
  43.3471161  33.6577248  91.6566958  42.3263701  34.5587954  90.9948615
  45.0428505  33.0397557  88.4138030  44.9642136  32.7057421  89.3073788
  45.8638172  33.5319325  88.4129502  47.7406696  25.9059296 101.6214349
  47.7083016  24.9675297 101.8074032  48.3507320  25.9843333 100.8880173
  39.5790027  24.7755349  87.6641553  40.5249131  24.6461557  87.7329971
  39.2004272  24.0370011  88.1410981  47.8901184  22.6970340 101.6672632
  47.3740233  21.9128796 101.4802561  48.7741133  22.3689056 101.8319151
  45.5511911  16.4411355  97.6268444  45.3536732  16.1326444  98.5111776
  46.1611617  17.1672994  97.7566374  53.5583246  26.9675303 100.7620385
  54.2886634  26.7060591 101.3228089  52.9490191  26.2304025 100.8022453
  51.6398543  25.1083166 101.3594837  50.9131706  24.9739131 100.7511328
  51.2245830  25.4159994 102.1651555  39.4628719  28.8273095 109.1242210
  40.3831729  29.0051694 109.3182256  39.4278302  27.8829141 108.9721909
  37.7632944  22.7005326  87.5996438  36.8564399  22.4038438  87.6759151
  38.0408925  22.4035144  86.7330724  28.6810884  24.0211689  98.0495484
  28.3613669  23.1676997  97.7569858  28.1344312  24.2360267  98.8053452
  32.4590792  26.7374130 101.7664991  32.6776802  27.6691238 101.7853025
  32.8716566  26.3782105 102.5519795  39.3795010  17.2442215  93.7540679
  38.5695738  16.8989300  94.1295925  40.0679427  16.9349759  94.3428291
  41.3085558  16.3220262  95.3764976  41.8616597  16.7415716  96.0354999
  41.5455644  15.3956010  95.4187932  37.3318657  22.3107336 111.1567740
  37.2315384  23.2601693 111.0879831  37.1140199  21.9825575 110.2843810
  36.5331729  19.5592261  87.7408417  37.3950893  19.8847159  88.0004234
  36.7182073  18.7723757  87.2281483  28.5499144  27.6414601 100.0188606
  27.8562616  27.2268553  99.5058560  29.2972135  27.6835137  99.4222025
  44.6864365  18.4320787  94.8843640  44.1063034  19.0905591  94.5021692
  44.4200298  17.6098132  94.4731058  43.1367931  17.8325845  97.0864960
  43.6367710  17.9442380  96.2779279  43.7803539  17.5286898  97.7265769
  37.1949927  25.7404475 109.9732801  36.7117009  26.5404835 110.1796690
  37.2810866  25.7512420 109.0200245  30.4635887  27.5732854  97.8954621
  30.4406575  27.6720542  96.9436504  30.7736523  28.4198005  98.2171787
  33.1223265  29.6309009 102.0101235  34.0766518  29.5992952 101.9431167
  32.9235788  29.1699633 102.8251461  33.7122647  28.2010125 104.5772033
  34.5315536  28.6954204 104.6006870  33.9859455  27.2842094 104.5489600
  43.4689243  20.5920878  93.9399988  42.5815098  20.8770528  93.7220183
  43.8843232  20.4314641  93.0927265  46.8203779  20.6167399  97.6554328
  47.5964169  21.1063851  97.9278944  46.0951913  21.0425453  98.1126197
  49.2576338  21.3295018  98.7128268  49.8520829  21.0890754  98.0021576
  49.3302921  20.6102149  99.3401804  31.4773493  35.1728629  99.0271433
  31.3427961  34.4129030  98.4609431  31.0605556  35.8969529  98.5600222
  42.6132456  30.3565552  88.0348008  43.3168307  30.5615555  88.6505664
  41.8895105  30.9242314  88.2997092  43.4430267  26.1075414  94.1550278
  43.3865468  26.5643965  93.3157911  43.9958609  25.3466098  93.9773121
  47.2535073  21.8965146  94.9800398  46.9972007  21.4961781  95.8108606
  46.6287941  22.6108940  94.8550537  51.5647411  24.6361219  97.4871689
  51.0046969  24.7054408  98.2603251  50.9590914  24.4602203  96.7671186
  34.6342619  36.0697946  99.2389876  34.5175004  37.0143378  99.1368566
  33.8135066  35.7671507  99.6275675  44.5219154  30.7948082  90.0846468
  45.3564758  30.3629280  89.9023943  44.3603497  30.6230095  91.0123363
  44.1765046  27.2980195  91.4502808  44.1213850  27.1324466  90.5091252
  43.5511101  28.0056228  91.6064997  28.9657561  22.5348259 105.2764230
  29.6116425  22.0247213 105.7651455  28.7574712  23.2716941 105.8507655
  41.4910953  29.6029107 110.7756370  42.3602113  29.7769759 110.4143005
  41.0117705  30.4223524 110.6532100  37.4861172  16.7988304  91.0288126
  37.4739841  17.7430144  91.1856397  38.3784593  16.6158449  90.7347587
  35.6597133  36.7226208 102.4545804  36.5624380  36.7549818 102.7712299
  35.4334504  35.7926659 102.4692140  37.4150736  35.4757194  99.1155883
  36.4646367  35.4759056  99.0020255  37.7183222  34.7289929  98.5991917
  41.3013291  13.3931081  95.2834063  40.5345687  12.8389567  95.4290745
  41.7123996  13.4652949  96.1448214  33.3055052  19.6815876 109.3739244
  34.1686514  19.3252681 109.5842569  32.7320463  19.3429771 110.0614648
  53.1503429  41.3117733 100.1801645  53.7881839  41.1924480  99.4764985
  53.0324272  42.2598577 100.2389597  49.9593135  41.2645161 100.1163170
  49.6211647  41.1486226  99.2283705  50.8282903  40.8636326 100.0964176
  45.8179951  43.1180637  96.1060061  45.2544816  43.0270574  95.3376349
  45.7032346  42.2980542  96.5862553  50.4412918  42.4180013 106.0749375
  50.4301559  42.0232811 105.2029879  50.6033558  41.6846085 106.6683147
  43.3644383  44.6131829  98.9444281  44.1565675  44.2722654  98.5290581
  43.6041033  44.7226804  99.8646435  45.3235137  43.8740742  91.8161660
  46.0966013  43.3269729  91.6774536  45.6760536  44.7384991  92.0276121
  47.1620179  45.2017124 105.0228559  46.8710045  46.1062755 104.9075226
  47.7977164  45.2433652 105.7372629  48.0876386  42.5793973 101.6129919
  48.6839959  42.3549995 100.8986882  48.1451358  41.8378718 102.2155367
  47.6601415  40.0333408  89.4480110  47.9126935  39.5114930  88.6863573
  46.7225974  39.8699554  89.5506794  52.7044697  39.0369187  97.2554853
  53.4907787  38.6188610  96.9045270  52.9683402  39.9415279  97.4236502
  58.1053125  38.9744420  98.1587832  58.8378297  38.4043637  98.3925661
  57.3492480  38.5866020  98.5994337  47.3797703  41.9361514  91.6504485
  47.2633962  41.2606418  92.3185569  47.4899963  41.4493888  90.8336638
  49.7229244  41.3971661  95.3551174  49.3587452  40.8702282  96.0664096
  50.5796360  41.0070130  95.1817660  55.6278545  32.6865994 102.6182440
  55.2961870  33.5561405 102.3943655  55.0324158  32.3702278 103.2976471
  49.3634731  36.4261561  90.3512523  49.5309134  37.2941797  90.7182994
  49.1731900  36.5888843  89.4273812  52.1210064  44.8878540 102.0178353
  51.8210788  45.7903579 101.9094160  51.7761124  44.6210723 102.8699506
  45.5722546  41.3392337  98.0515057  44.6473042  41.2068551  98.2592749
  45.8206959  42.1186556  98.5485000  55.5207208  37.4061080  99.6975790
  54.6124086  37.3376489  99.4034551  55.4694804  37.8833025 100.5257616
  49.3423952  38.8819218  91.3359189  49.2223577  39.3276269  92.1744670
  48.6476541  39.2304536  90.7772728  42.9331357  40.9825610  98.8858847
  43.0623738  41.2360089  99.7998258  42.2528808  41.5753318  98.5663502
  49.5948074  38.8250726 107.6410688  48.8181408  39.3844646 107.6313552
  50.2338637  39.3107509 108.1625558  57.3868855  35.6077518 101.4753664
  56.7443235  35.9010052 100.8293459  56.8823783  35.4930439 102.2806861
  55.0409018  39.3540692  92.1639524  55.9526874  39.5868078  91.9887221
  54.5318665  39.9377736  91.6014602  47.8494446  41.6336179 107.2028655
  48.5909131  42.1721223 106.9263478  47.1431432  42.2602468 107.3600206
  53.3249786  43.7765320 105.8000816  53.7333142  43.3347730 105.0555448
  52.6027048  43.2017947 106.0535009  49.6780856  38.7137926 103.1734373
  50.5242051  39.1377340 103.3169022  49.6179494  38.0571551 103.8672936
  52.8280301  36.3742295 104.8315547  52.5841233  37.1284355 104.2949822
  53.1040232  36.7527642 105.6662794  54.7818764  42.9180907 103.5092812
  54.9935659  43.5612667 102.8327193  54.7348512  42.0843224 103.0414742
  52.3844993  35.5298728 100.4129384  51.5229472  35.8279981 100.7046122
  52.4107428  35.7469127  99.4810417  46.0930644  43.6212400  99.7582953
  46.6632001  44.0499668  99.1200438  46.6838755  43.3394984 100.4567139
  48.1375449  40.1964071  93.6292755  48.8399492  40.6485114  94.0966682
  47.8056077  39.5547889  94.2572648  46.5855810  38.7875827 108.0043965
  45.9554471  39.4692108 108.2379361  46.4791898  38.6758909 107.0597103
  41.8800783  38.4547623  98.9309889  41.0899837  38.7105152  98.4549999
  42.3712030  39.2695961  99.0361929  43.8315528  38.8192202  95.8893365
  43.0346691  38.9310897  96.4076861  43.6041120  39.1578855  95.0234256
  49.6621196  45.3436906 103.8375880  49.7265628  45.8057313 104.6734052
  48.9532119  44.7134271 103.9658190  40.1638486  38.7078114 101.3624880
  40.4146524  39.5925124 101.6282456  40.6998034  38.5282715 100.5899971
  45.8636553  33.0896593 110.3669216  45.4703498  32.5362792 111.0416860
  46.6802693  33.4007172 110.7575733  42.8298611  44.5280451  94.2782786
  43.3423131  45.3223701  94.4288350  43.4821323  43.8306742  94.2116387
  48.7804514  34.5054472 107.9589472  49.5214227  35.1061625 107.8793935
  49.0122437  33.7632110 107.4007515  43.9245852  39.6910839 106.2367702
  43.8099367  38.7896097 106.5374801  43.0690370  39.9374536 105.8852518
  51.0037690  47.6328580 107.8355203  50.5601544  46.8464958 107.5176107
  51.6654903  47.8207730 107.1699093  45.7624811  49.1624381 102.3615881
  46.3132236  49.0341445 101.5892875  44.9236287  49.4619270 102.0110774
  53.1018928  47.9131380 105.8636604  53.0837403  48.7340261 105.3716873
  54.0238848  47.7885455 106.0886745  49.5591982  45.4275509 106.7060112
  50.0920319  44.6663797 106.4759420  49.0306063  45.1349161 107.4484267
  52.7261677  30.5335575 102.2353754  52.3825946  31.4237217 102.1592864
  53.0940639  30.3437233 101.3723339  40.7947527  42.8569106  95.0542356
  41.6322749  43.2666114  94.8376064  40.9725795  41.9168548  95.0242550
  52.6911959  40.5244186  90.7426189  52.1758583  41.2948791  90.9814576
  52.4189268  39.8509322  91.3659250  50.2759071  35.3693887  95.8011427
  49.4200667  34.9800737  95.6217066  50.6886022  35.4485848  94.9411213
  51.8058217  32.9040230 100.2002987  51.3023013  32.8670365  99.3870792
  52.0988824  33.8132973 100.2599644  48.0501103  32.9878960  99.2069169
  48.9154100  32.7921769  98.8475058  48.1178612  32.7589312 100.1338526
  52.4798263  38.3971278  92.5685970  52.1748398  38.7117427  93.4196113
  53.4328705  38.4752698  92.6113303  45.6563422  35.2181168  96.5785536
  46.2307174  34.9956349  95.8458729  46.2434405  35.2869862  97.3314137
  45.9833009  37.2485629  90.5981421  45.1470321  37.5860315  90.9190696
  45.8437779  37.1134609  89.6608558  47.9586090  32.0922417  95.3060605
  47.3050502  31.7771434  94.6817220  47.9166564  31.4698157  96.0320428
  49.0697295  42.3741712  87.2213897  48.1624356  42.1430965  87.4205046
  49.5668327  41.5779331  87.4087879  51.1923830  38.5804350  99.6308253
  50.2746392  38.8019297  99.4729941  51.6083974  38.6550661  98.7719960
  51.9758878  39.9795766  94.7610933  52.7230697  40.4917163  94.4518055
  52.2450468  39.6579819  95.6215327  50.2485528  42.4754307  91.7437887
  49.3396747  42.1913340  91.8410357  50.2780612  42.8953385  90.8841194
  54.4237715  37.0152882  96.7429722  53.6860472  36.5030268  97.0739965
  54.6764489  36.5753264  95.9312999  54.5249342  29.7929134  97.3371492
  54.8308219  28.9326498  97.0497407  55.2501947  30.3846754  97.1370485
  40.8173699  40.1959821  95.7253090  40.6198098  39.6029182  95.0004156
  40.2620363  39.8912031  96.4429028  48.7970422  40.0882927  97.8447683
  48.8519032  39.1356764  97.7690159  47.9861624  40.2442366  98.3288981
  49.9461616  44.0163050  89.0825966  49.5081046  43.2998909  88.6231603
  50.6872057  44.2439165  88.5211057  46.7362782  38.7059987  95.6038062
  45.9230648  39.0054158  96.0103254  47.2321776  38.3115676  96.3212544
  52.3336994  39.1701812 104.4352955  52.6886382  39.3973285 105.2947421
  52.9809125  39.5020188 103.8130211  46.2276857  36.2778343 101.2199296
  46.8676236  36.1367102 100.5222260  45.3954387  35.9912856 100.8437898
  51.8232005  47.9598869 101.6846657  51.8769028  48.5289805 102.4524372
  50.9546787  48.1300754 101.3200694  43.3119924  39.7223855  93.4094042
  42.3817512  39.6608310  93.6264004  43.4077396  39.1999808  92.6130683
  43.2305473  36.2478668  95.9972283  43.4912291  37.1624001  95.8881444
  44.0522646  35.7803110  96.1468896  44.7030399  37.6616425 103.1671108
  45.3753452  37.4533787 102.5183757  43.8760185  37.4638511 102.7276340
  50.6055971  34.2878366 105.1836769  49.9583886  34.9868315 105.0901245
  51.3756986  34.7214510 105.5513017  54.0134769  44.5527218 108.2587322
  53.8620275  44.3237770 107.3417406  54.0039448  45.5097819 108.2718667
  50.7820105  42.1259131 103.2433588  51.7112165  42.2770290 103.0702556
  50.3611135  42.2143151 102.3882235  49.5808437  46.1509795 101.0132126
  49.4419522  45.7828579 101.8858064  48.7923033  46.6657434 100.8416084
  45.1057896  40.9359028 103.9273545  44.9677694  40.2039267 104.5285084
  46.0162819  40.8467928 103.6457733  54.0672844  42.8747432  88.6758023
  53.4502014  42.1494260  88.5791076  53.5989332  43.6356792  88.3325098
  47.7340197  40.6478987 103.4157225  48.4439815  40.0072179 103.3743843
  47.6909505  40.8991882 104.3383405  55.7226975  47.5846340 106.3363804
  55.6639521  46.9005561 105.6694387  56.1246494  48.3265330 105.8844430
  46.4469131  37.6344205 105.2352864  45.9106488  37.1834943 105.8874460
  45.8585839  37.7690114 104.4923328  44.7417674  54.4008254  99.1297523
  44.9814272  55.0326778  99.8076541  43.8986870  54.0496294  99.4162882
  45.8571389  37.0932856  87.7979328  44.9800856  36.9721657  87.4341574
  46.3329143  36.3018935  87.5458216  37.3773530  41.8810016  97.8920835
  38.0644569  41.5671746  97.3041850  37.2221658  42.7851381  97.6188086
  42.1808252  36.7700213 102.3205859  42.0966440  36.1625882 101.5856269
  41.3590958  37.2609231 102.3215355  49.2545536  50.2087377 101.5339027
  49.1815707  51.0142348 102.0458331  48.8122929  50.4079343 100.7087048
  52.3531966  35.2553776  97.6876054  52.8500665  34.5023739  97.3677124
  51.5818947  35.2918093  97.1219263  60.2061723  40.9594142  99.3294345
  60.1951599  41.8418857  98.9588278  59.3379102  40.6065693  99.1348882
  51.7144219  50.1074211 103.6897185  52.4272192  50.7421676 103.6173087
  51.2234248  50.2038077 102.8737187  48.9366934  37.3971159  97.4147738
  48.5664722  36.8442200  98.1028644  49.4326027  36.7929293  96.8622738
  56.8234298  39.8542783  95.7964511  57.2894750  40.6870774  95.7224814
  57.2741798  39.3887764  96.5009770  46.7656133  47.8568654 104.5102756
  47.4665592  48.4905137 104.6632150  46.2951248  48.1983386 103.7498395
  54.7950960  32.2223370  99.8355413  53.8814040  32.4527597 100.0037619
  55.2244062  32.3061814 100.6869445  54.5657419  40.4113262 102.3355307
  53.9128869  40.6589169 101.6807759  54.9437799  39.5977400 102.0017784
  50.6144992  41.1533073 108.8221344  49.9385629  41.0527202 109.4923719
  51.4372626  40.9972286 109.2857341  42.3623851  47.3905009 101.4433859
  42.9477288  46.6448697 101.5761763  42.1648689  47.7008966 102.3270523
  36.9541506  39.9610609 100.1638302  36.9925605  39.4274200 100.9575420
  36.4481799  39.4345815  99.5449279  44.3332268  34.8075150 103.6600844
  44.3973595  35.6689981 103.2478242  44.2699388  34.1949152 102.9273203
  43.8084541  36.8798282 107.3073879  44.4356579  36.4975360 107.9211403
  42.9512459  36.6612484 107.6729571  54.2078649  47.2861258 108.9127614
  54.7518553  47.8991216 108.4182569  53.6265494  47.8440836 109.4294627
  40.5850083  38.6874712  93.2392233  40.8803524  37.7785390  93.1859287
  39.6838119  38.6662451  92.9173236  44.1144330  36.7630708  99.2219782
  43.3930916  37.3766676  99.0827255  44.9037586  37.2988473  99.1436428
  54.5571070  48.2090996 101.6722192  53.6101406  48.0896347 101.6000519
  54.9053844  47.3213494 101.7548453  46.9170644  34.0985135 105.4960434
  47.4405046  34.3447431 106.2586743  46.6982977  34.9305169 105.0763571
  42.3137925  36.3688809  93.3631559  41.9850631  35.4886188  93.1806664
  42.6677296  36.3136478  94.2507948  45.4279748  36.6561779  93.7307036
  45.7675821  37.1847700  93.0085645  45.8751869  36.9942185  94.5065603
  48.1223189  35.0398830 103.1810104  47.7820009  34.2406643 103.5830784
  47.4162195  35.3400541 102.6086937  48.7739661  32.1248142 101.6337427
  49.5965730  31.6508620 101.5116318  49.0177724  32.9038626 102.1336114
  47.4147895  35.1536401  91.9300329  48.1356258  35.5317653  91.4264046
  46.7913199  35.8725277  92.0335307  51.5579018  35.8581550  92.8658661
  51.7742632  36.7406187  92.5647489  51.0773085  35.4667763  92.1364303
  46.2978239  38.8167263  99.4429406  46.1522820  39.1307566 100.3353687
  45.8203443  39.4352163  98.8900305  48.1574622  35.8069811  99.4910295
  48.1436191  34.9110904  99.1542593  48.8747050  35.8140475 100.1248582
  50.0100753  36.2407151 101.5363423  49.7518531  37.1624222 101.5347753
  49.4785793  35.8437586 102.2263887  40.7723902  41.3572607 102.3817067
  40.2277370  42.1332415 102.5137341  41.6503251  41.7043412 102.2236189
  47.5611518  34.6884191  94.7597866  47.6827429  33.7600837  94.9588753
  47.2713561  34.7022877  93.8476181  50.4302709  32.3739102  97.8964585
  50.4524405  32.4378435  96.9416565  50.8470768  31.5343610  98.0905092
  41.5589923  40.4842504 105.2747224  40.8171660  40.6325139 105.8611854
  41.2382668  40.7450769 104.4113973  49.5033586  50.0258482 105.0727614
  49.8120713  49.7807628 105.9450314  50.3009068  50.2305120 104.5846484
  42.0046537  48.3707932  97.3057619  42.8304557  48.0711704  96.9256262
  41.6540589  47.6015555  97.7547407  46.9728070  47.7234400  99.3755292
  46.3508080  47.0605105  99.0757520  47.6432937  47.7495532  98.6928940
  40.2055142  46.2894259  98.2646552  39.3687051  45.8616433  98.0830553
  40.1778788  46.4826702  99.2017343  47.0452598  36.2016188 108.9687798
  47.0940753  37.0778311 108.5865568  47.5875112  35.6593582 108.3959441
  57.5307443  46.7457312 108.2488935  56.7402987  46.7281451 107.7093435
  57.2940798  47.2845605 109.0037972  46.5341577  46.2738324  92.8513753
  46.6829698  46.9573788  92.1980425  47.3408021  46.2543414  93.3663208
  54.9409081  39.5780706 106.8780971  55.8418944  39.4387171 106.5864968
  55.0157055  39.7435161 107.8179148  49.2751886  36.9547561 105.7234157
  48.4055196  37.2481127 105.4516745  49.5111367  37.5388006 106.4441420
  57.4010704  41.1379334 104.2743743  57.8764825  41.3306981 103.4662595
  56.4776269  41.1938520 104.0287127  44.2894210  42.3003501  93.8574822
  44.0440252  41.3965831  94.0555032  44.4590125  42.3020652  92.9154300
  51.9790920  33.1727178 103.2399577  52.4972864  33.9088205 102.9146066
  51.6246053  33.4791171 104.0746336  43.5589858  38.0331859  91.3560983
  42.8659103  38.1076214  90.7001019  43.3141610  37.2692203  91.8782500
  52.2303514  29.5927460  98.7600474  52.5105268  28.9250649  99.3860900
  53.0154121  29.7856556  98.2475138  56.1012373  38.0145094 102.5072049
  57.0529795  38.1143192 102.5284273  55.9315823  37.2223363 103.0170133
  54.1226752  35.1000678 102.6931450  53.5276684  35.3805690 101.9977939
  53.8376449  35.5894578 103.4648191  50.4183781  40.1047267  87.6641553
  51.3642886  39.9753475  87.7329971  50.0398026  39.3661929  88.1410981
  58.7294939  38.0262257 101.6672632  58.2133988  37.2420714 101.4802561
  59.6134887  37.6980974 101.8319151  56.3905666  31.7703273  97.6268444
  56.1930487  31.4618361  98.5111776  57.0005371  32.4964912  97.7566374
  64.3977000  42.2967221 100.7620385  65.1280389  42.0352509 101.3228089
  63.7883946  41.5595943 100.8022453  62.4792297  40.4375083 101.3594837
  61.7525461  40.3031048 100.7511328  62.0639584  40.7451912 102.1651555
  50.3022474  44.1565013 109.1242210  51.2225483  44.3343612 109.3182256
  50.2672057  43.2121058 108.9721909  48.6026698  38.0297243  87.5996438
  47.6958154  37.7330356  87.6759151  48.8802679  37.7327061  86.7330724
  39.5204639  39.3503607  98.0495484  39.2007423  38.4968915  97.7569858
  38.9738067  39.5652185  98.8053452  43.2984546  42.0666048 101.7664991
  43.5170556  42.9983156 101.7853025  43.7110320  41.7074022 102.5519795
  50.2188764  32.5734133  93.7540679  49.4089492  32.2281218  94.1295925
  50.9073181  32.2641677  94.3428291  52.1479312  31.6512180  95.3764976
  52.7010351  32.0707633  96.0354999  52.3849399  30.7247928  95.4187932
  48.1712412  37.6399254 111.1567740  48.0709139  38.5893611 111.0879831
  47.9533954  37.3117492 110.2843810  47.3725483  34.8884179  87.7408417
  48.2344647  35.2139077  88.0004234  47.5575827  34.1015675  87.2281483
  39.3892899  42.9706518 100.0188606  38.6956370  42.5560471  99.5058560
  40.1365890  43.0127055  99.4222025  55.5258119  33.7612705  94.8843640
  54.9456789  34.4197509  94.5021692  55.2594052  32.9390050  94.4731058
  53.9761686  33.1617763  97.0864960  54.4761464  33.2734297  96.2779279
  54.6197294  32.8578816  97.7265769  48.0343682  41.0696392 109.9732801
  47.5510763  41.8696752 110.1796690  48.1204621  41.0804337 109.0200245
  41.3029641  42.9024772  97.8954621  41.2800329  43.0012459  96.9436504
  41.6130278  43.7489923  98.2171787  43.9617019  44.9600927 102.0101235
  44.9160273  44.9284869 101.9431167  43.7629543  44.4991551 102.8251461
  44.5516401  43.5302043 104.5772033  45.3709290  44.0246122 104.6006870
  44.8253209  42.6134011 104.5489600  54.3082998  35.9212795  93.9399988
  53.4208853  36.2062446  93.7220183  54.7236987  35.7606559  93.0927265
  57.6597534  35.9459316  97.6554328  58.4357924  36.4355769  97.9278944
  56.9345668  36.3717371  98.1126197  60.0970092  36.6586936  98.7128268
  60.6914583  36.4182672  98.0021576  60.1696676  35.9394066  99.3401804
  42.3167248  50.5020547  99.0271433  42.1821716  49.7420947  98.4609431
  41.8999310  51.2261446  98.5600222  53.4526211  45.6857470  88.0348008
  54.1562061  45.8907473  88.6505664  52.7288860  46.2534232  88.2997092
  58.0928827  37.2257063  94.9800398  57.8365761  36.8253699  95.8108606
  57.4681695  37.9400857  94.8550537  39.8051316  37.8640177 105.2764230
  40.4510179  37.3539131 105.7651455  39.5968467  38.6008859 105.8507655
  52.3304708  44.9321024 110.7756370  53.1995867  45.1061677 110.4143005
  51.8511459  45.7515441 110.6532100  48.3254926  32.1280222  91.0288126
  48.3133596  33.0722062  91.1856397  49.2178348  31.9450367  90.7347587
  46.4990888  52.0518125 102.4545804  47.4018135  52.0841736 102.7712299
  46.2728258  51.1218576 102.4692140  52.1407045  28.7222998  95.2834063
  51.3739441  28.1681485  95.4290745  52.5517750  28.7944867  96.1448214
  44.1448807  35.0107794 109.3739244  45.0080268  34.6544599 109.5842569
  43.5714217  34.6721689 110.0614648  56.7030307  48.4188511 110.3669216
  56.3097253  47.8654709 111.0416860  57.5196448  48.7299089 110.7575733
  53.0202006  52.0992130 102.3205859  52.9360195  51.4917800 101.5856269
  52.1984713  52.5901149 102.3215355  54.6478295  52.2090200 107.3073879
  55.2750334  51.8267277 107.9211403  53.7906214  51.9904402 107.6729571
  61.1416228  59.4856931 109.1242210  62.0619238  59.6635530 109.3182256
  61.1065811  58.5412976 108.9721909  59.0106166  52.9691171 111.1567740
  58.9102893  53.9185528 111.0879831  58.7927708  52.6409410 110.2843810
  63.1698462  60.2612942 110.7756370  64.0389622  60.4353594 110.4143005
  62.6905214  61.0807359 110.6532100  54.9842561  50.3399712 109.3739244
  55.8474023  49.9836517 109.5842569  54.4107972  50.0013607 110.0614648
  68.8407688  75.8600960 105.0228559  68.5497554  76.7646591 104.9075226
  69.4764673  75.9017487 105.7372629  79.7840634  69.6328255  98.1587832
  80.5165806  69.0627472  98.3925661  79.0279989  69.2449856  98.5994337
  71.3408705  76.0020741 103.8375880  71.4053137  76.4641148 104.6734052
  70.6319628  75.3718106 103.9658190  85.6658094  72.7975446  98.0300141
  84.9121803  72.2282844  97.8744146  85.8005635  72.7638111  98.9770776
  72.6825199  78.2912415 107.8355203  72.2389053  77.5048794 107.5176107
  73.3442412  78.4791566 107.1699093  74.7806437  78.5715215 105.8636604
  74.7624912  79.3924096 105.3716873  75.7026357  78.4469290 106.0886745
  71.2379491  76.0859344 106.7060112  71.7707828  75.3247633 106.4759420
  70.7093572  75.7932996 107.4484267  81.8849232  71.6177977  99.3294345
  81.8739108  72.5002692  98.9588278  81.0166611  71.2649528  99.1348882
  73.3931728  80.7658046 103.6897185  74.1059701  81.4005511 103.6173087
  72.9021757  80.8621912 102.8737187  68.4443642  78.5152490 104.5102756
  69.1453101  79.1488973 104.6632150  67.9738757  78.8567221 103.7498395
  75.8866158  77.9445093 108.9127614  76.4306062  78.5575051 108.4182569
  75.3053003  78.5024671 109.4294627  82.4873842  72.7678196  95.9343808
  82.9304988  72.0185522  95.5362931  81.6100352  72.7588333  95.5517540
  82.0306707  74.2383435  98.3266256  82.8653598  74.6773239  98.4903816
  82.1665835  73.7622088  97.5074501  77.7799882  68.6728930 102.5072049
  78.7317304  68.7727027 102.5284273  77.6103332  67.8807198 103.0170133
  69.7131191  71.7280228 109.9732801  69.2298272  72.5280588 110.1796690
  69.7992130  71.7388173 109.0200245  66.2303910  74.1885878 104.5772033
  67.0496799  74.6829957 104.6006870  66.5040718  73.2717847 104.5489600
  81.7757601  67.3170771  98.7128268  82.3702092  67.0766507  98.0021576
  81.8484185  66.5977902  99.3401804  79.7716336  67.8840899  94.9800398
  79.5153270  67.4837534  95.8108606  79.1469204  68.5984693  94.8550537
  84.0828674  70.6236972  97.4871689  83.5228232  70.6930161  98.2603251
  83.4772177  70.4477956  96.7671186  85.6684692  87.2993486 100.1801645
  86.3063102  87.1800233  99.4764985  85.5505535  88.2474330 100.2389597
  82.4774399  87.2520914 100.1163170  82.1392910  87.1361979  99.2283705
  83.3464167  86.8512079 100.0964176  82.9594182  88.4055766 106.0749375
  82.9482823  88.0108564 105.2029879  83.1214821  87.6721838 106.6683147
  83.9160773  92.7727358  91.4174526  83.2648753  93.3581438  91.0308539
  84.7105136  93.3033553  91.4769563  85.3936038  90.4617790  91.9543510
  84.7581871  90.5352416  92.6664415  85.0633445  91.0511389  91.2762589
  90.6234388  84.9620173  98.1587832  91.3559560  84.3919390  98.3925661
  89.8673744  84.5741773  98.5994337  88.1459808  78.6741747 102.6182440
  87.8143133  79.5437158 102.3943655  87.5505422  78.3578031 103.2976471
  84.6391328  90.8754293 102.0178353  84.3392051  91.7779332 101.9094160
  84.2942387  90.6086476 102.8699506  88.0388472  83.3936833  99.6975790
  87.1305349  83.3252242  99.4034551  87.9876068  83.8708778 100.5257616
  79.6212108  97.6398613  94.9849321  79.5436137  98.5906438  95.0637801
  79.0173751  97.2944486  95.6424247  89.9050118  81.5953272 101.4753664
  89.2624498  81.8885805 100.8293459  89.4005047  81.4806192 102.2806861
  87.5590282  85.3416445  92.1639524  88.4708138  85.5743831  91.9887221
  87.0499929  85.9253489  91.6014602  85.8431049  89.7641073 105.8000816
  86.2514406  89.3223483 105.0555448  85.1208311  89.1893700 106.0535009
  86.1659864  90.3242263  99.5553105  85.5368727  90.4887977  98.8529173
  85.7785526  90.7383873 100.3264069  90.0449096  91.2596701  96.9097469
  89.3600134  91.6395602  96.3594502  90.1292945  91.8692028  97.6429416
  85.3461565  82.3618048 104.8315547  85.1022497  83.1160108 104.2949822
  85.6221495  82.7403395 105.6662794  87.3000028  88.9056660 103.5092812
  87.5116923  89.5488420 102.8327193  87.2529776  88.0718977 103.0414742
  84.9026257  81.5174481 100.4129384  84.0410736  81.8155734 100.7046122
  84.9288691  81.7344880  99.4810417  81.7187826  90.0616671  96.8203190
  82.1826172  90.3404374  96.0307813  81.4544624  89.1600116  96.6376281
  78.6111907  89.6088153  99.7582953  79.1813264  90.0375421  99.1200438
  79.2020019  89.3270737 100.4567139  88.4145856  91.7828615 101.6815170
  89.2363299  91.3808803 101.3997851  88.4108258  91.6796850 102.6331285
  82.1802459  91.3312659 103.8375880  82.2446892  91.7933066 104.6734052
  81.4713383  90.7010024 103.9658190  96.5051849  88.1267364  98.0300141
  95.7515557  87.5574762  97.8744146  96.6399390  88.0930028  98.9770776
  81.8950477  92.9980766  93.7054860  81.7596151  93.8432302  94.1339708
  82.4360289  93.2000044  92.9420794  75.3479874  90.5156204  94.2782786
  75.8604395  91.3099455  94.4288350  76.0002587  89.8182495  94.2116387
  77.1574759  93.6321961  96.3605539  77.3341387  94.5539925  96.1726523
  77.9531592  93.3180380  96.7899918  83.5218953  93.6204333 107.8355203
  83.0782807  92.8340711 107.5176107  84.1836167  93.8083483 107.1699093
  78.2806074  95.1500134 102.3615881  78.8313499  95.0217198 101.5892875
  77.4417550  95.4495023 102.0110774  85.6200191  93.9007133 105.8636604
  85.6018666  94.7216014 105.3716873  86.5420111  93.7761208 106.0886745
  82.0773245  91.4151262 106.7060112  82.6101582  90.6539550 106.4759420
  81.5487326  91.1224914 107.4484267  73.3128791  88.8444859  95.0542356
  74.1504013  89.2541867  94.8376064  73.4907059  87.9044301  95.0242550
  85.2093223  86.5119939  90.7426189  84.6939846  87.2824544  90.9814576
  84.9370531  85.8385075  91.3659250  84.3239481  78.8915983 100.2002987
  83.8204276  78.8546118  99.3870792  84.6170088  79.8008726 100.2599644
  90.1827497  89.2652294  92.6779362  89.4056940  88.9263453  92.2334525
  90.8618978  89.2704917  92.0034328  83.4425958  90.5437255  94.2178924
  82.9147320  89.8090014  93.9052162  82.9413461  91.3211931  93.9718893
  88.4218804  88.7386275  99.3345970  87.7642478  89.4285537  99.4226099
  89.2259203  89.1282707  99.6779957  87.2324263  87.0930648  97.3849912
  87.7456145  87.7260640  97.8871622  87.8825487  86.4931843  97.0193272
  80.4767353  78.0798170  95.3060605  79.8231766  77.7647187  94.6817220
  80.4347827  77.4573910  96.0320428  84.4946637  97.0714972  90.1410583
  83.8208336  97.3746669  90.7495541  84.8812459  97.8744052  89.7916040
  82.7666792  88.4630060  91.7437887  81.8578011  88.1789093  91.8410357
  82.7961875  88.8829138  90.8841194  87.9986059  92.0736649  95.5129055
  87.5448386  91.2327559  95.5694245  87.3680026  92.7098048  95.8503835
  86.4418998  93.9113146  96.4478873  86.7341973  94.4718203  95.7291239
  86.9517619  94.2041707  97.2032032  87.0430606  75.7804887  97.3371492
  87.3489483  74.9202251  97.0497407  87.7683211  76.3722507  97.1370485
  82.4642879  90.0038803  89.0825966  82.0262309  89.2874662  88.6231603
  83.2053320  90.2314918  88.5211057  81.4052623  94.6893497  97.5372326
  81.3628802  94.9154343  96.6080858  82.3215322  94.4556872  97.6858127
  84.8518257  85.1577565 104.4352955  85.2067645  85.3849038 105.2947421
  85.4990388  85.4895941 103.8130211  90.5815994  88.2796000  95.1402284
  90.4433893  88.4697596  94.2123474  90.2252213  89.0415383  95.5970336
  90.6085374  90.3472527 100.1513556  91.0421880  90.2547817 100.9996610
  91.3216954  90.3230028  99.5133572  79.5218424  91.5656526  97.3334289
  80.3159023  91.0706846  97.1316864  78.8110117  91.0374389  96.9701994
  84.3413269  93.9474622 101.6846657  84.3950291  94.5165558 102.4524372
  83.4728050  94.1176507 101.3200694  91.4700923  90.3896228 102.6846441
  91.6636813  91.2942039 102.9305716  91.3701542  89.9303647 103.5185026
  86.5316032  90.5402971 108.2587322  86.3801538  90.3113523 107.3417406
  86.5220712  91.4973572 108.2718667  83.3001368  88.1134884 103.2433588
  84.2293428  88.2646043 103.0702556  82.8792398  88.2018904 102.3882235
  82.0989700  92.1385548 101.0132126  81.9600786  91.7704332 101.8858064
  81.3104296  92.6533187 100.8416084  82.6937852  97.2394645  92.3557663
  82.8689608  96.7682688  93.1703285  82.0070640  97.8660411  92.5838923
  83.6494915  91.5167151  98.4020964  83.3144748  91.4767921  99.2978614
  83.1498861  90.8511867  97.9291374  86.5854107  88.8623185  88.6758023
  85.9683278  88.1370013  88.5791076  86.1170595  89.6232545  88.3325098
  88.2408239  93.5722093 106.3363804  88.1820785  92.8881314 105.6694387
  88.6427757  94.3141083 105.8844430  77.2598937 100.3884007  99.1297523
  77.4995536 101.0202531  99.8076541  76.4168134 100.0372047  99.4162882
  88.2425646  91.5361677 104.5677783  87.3552425  91.1987599 104.6904182
  88.8124197  90.8044709 104.8046549  81.7726799  96.1963130 101.5339027
  81.6996971  97.0018101 102.0458331  81.3304192  96.3955096 100.7087048
  81.5616579  95.4334900  95.0441848  80.7784101  95.9756580  95.1380073
  82.2609324  95.9508879  95.4436089  92.7242986  86.9469895  99.3294345
  92.7132863  87.8294610  98.9588278  91.8560366  86.5941446  99.1348882
  84.2325483  96.0949964 103.6897185  84.9453455  96.7297429 103.6173087
  83.7415512  96.1913830 102.8737187  85.9543010  90.0001216  95.2614477
  85.0199289  90.1202679  95.0919181  86.1319678  89.0973683  94.9974487
  89.3415561  85.8418536  95.7964511  89.8076013  86.6746527  95.7224814
  89.7923062  85.3763517  96.5009770  87.4091792  92.1862357  92.7950663
  87.6851636  92.0718952  93.7044537  86.5396291  91.7879842  92.7562836
  87.3132224  78.2099123  99.8355413  86.3995304  78.4403350 100.0037619
  87.7425325  78.2937567 100.6869445  87.0838682  86.3989015 102.3355307
  86.4310133  86.6464922 101.6807759  87.4619062  85.5853153 102.0017784
  84.0445856  96.4348708  96.4383477  84.2268251  95.6170364  96.9011229
  84.8678842  96.6516400  96.0008367  84.3788022  95.3616893  93.6998525
  84.9075788  94.8509348  93.0868687  84.6416241  95.0459423  94.5644058
  83.1326255  87.1408826 108.8221344  82.4566892  87.0402955 109.4923719
  83.9553889  86.9848039 109.2857341  77.7343770  96.4132010  96.4596301
  77.0654145  96.8978137  95.9760341  77.5956639  96.6601230  97.3739680
  81.8749038  98.4475753 103.0578960  82.4267346  98.6107375 103.8228045
  82.2155232  99.0380191 102.3858984  86.7259913  93.2737011 108.9127614
  87.2699817  93.8866969 108.4182569  86.1446757  93.8316589 109.4294627
  85.0117426  96.3957729 100.0442642  84.8868565  95.5947469  99.5353587
  85.6696517  96.8903922  99.5556612  87.0752334  94.1966749 101.6722192
  86.1282669  94.0772100 101.6000519  87.4235107  93.3089247 101.7548453
  84.0798767  93.9919465  97.8726544  83.9323730  93.0636172  98.0534114
  84.9052261  94.0139556  97.3883619  87.6832889  94.8148024  98.9591417
  88.6079437  94.6090885  98.8215868  87.5148192  94.5664425  99.8680758
  87.4728205  95.3333691  94.3153508  87.6465083  94.7680114  93.5627361
  87.9657097  96.1334586  94.1332998  82.9483972  78.3614855  97.8964585
  82.9705669  78.4254188  96.9416565  83.3652031  77.5219363  98.0905092
  93.3267596  88.0970114  95.9343808  93.7698742  87.3477439  95.5362931
  92.4494107  88.0880250  95.5517540  88.4603378  94.6500456  91.4150407
  89.1554282  95.2707148  91.6337721  88.8026528  93.7995807  91.6902784
  90.3594801  92.1000161  92.9437737  90.8846125  92.4387434  92.2187057
  90.2717153  91.1647176  92.7600872  82.0214850  96.0134235 105.0727614
  82.3301976  95.7683382 105.9450314  82.8190332  96.2180873 104.5846484
  82.0435462  98.1672144  97.3032991  81.6040452  97.6748523  97.9965847
  82.7943579  97.6245112  97.0625066  74.5227801  94.3583685  97.3057619
  75.3485821  94.0587457  96.9256262  74.1721853  93.5891308  97.7547407
  79.4909334  93.7110153  99.3755292  78.8689343  93.0480859  99.0757520
  80.1614201  93.7371285  98.6928940  90.0488707  92.7333065 108.2488935
  89.2584251  92.7157204 107.7093435  89.8122062  93.2721358 109.0037972
  90.1686582  89.5825531 105.5621664  90.2184587  89.4175539 106.5037187
  90.0600505  88.7152790 105.1719545  79.0522841  92.2614077  92.8513753
  79.2010961  92.9449541  92.1980425  79.8589284  92.2419167  93.3663208
  87.4590344  85.5656459 106.8780971  88.3600207  85.4262924 106.5864968
  87.5338319  85.7310914 107.8179148  91.6704779  92.0022473 105.8063685
  91.3789587  92.3652453 106.6427146  91.0576910  91.2889481 105.6277017
  92.8700461  89.5675352  98.3266256  93.7047353  90.0065156  98.4903816
  93.0059590  89.0914006  97.5074501  89.9191967  87.1255087 104.2743743
  90.3946089  87.3182734 103.4662595  88.9957532  87.1814273 104.0287127
  84.4972184  79.1602931 103.2399577  85.0154127  79.8963958 102.9146066
  84.1427316  79.4666924 104.0746336  84.7484778  75.5803213  98.7600474
  85.0286531  74.9126402  99.3860900  85.5335385  75.7732309  98.2475138
  82.5518246  94.7562207  90.3225500  81.9792213  95.3752394  89.8695972
  83.1251040  95.3061569  90.8565422  88.6193636  84.0020847 102.5072049
  89.5711059  84.1018945 102.5284273  88.4497086  83.2099116 103.0170133
  86.6408016  81.0876431 102.6931450  86.0457948  81.3681443 101.9977939
  86.3557712  81.5770332 103.4648191  85.7715506  95.0399357  91.4534082
  86.7046179  94.9744919  91.6566958  85.6838719  95.8755624  90.9948615
  88.4003523  94.3565228  88.4138030  88.3217154  94.0225091  89.3073788
  89.2213189  94.8486996  88.4129502  91.0981714  87.2226967 101.6214349
  91.0658034  86.2842968 101.8074032  91.7082338  87.3011004 100.8880173
  91.2476202  84.0138010 101.6672632  90.7315251  83.2296467 101.4802561
  92.1316151  83.6856727 101.8319151  88.9086929  77.7579026  97.6268444
  88.7111750  77.4494114  98.5111776  89.5186635  78.4840665  97.7566374
  96.9158264  88.2842974 100.7620385  97.6461652  88.0228262 101.3228089
  96.3065209  87.5471696 100.8022453  94.9973561  86.4250836 101.3594837
  94.2706724  86.2906801 100.7511328  94.5820848  86.7327665 102.1651555
  82.8203737  90.1440766 109.1242210  83.7406747  90.3219365 109.3182256
  82.7853320  89.1996812 108.9721909  82.7370028  78.5609886  93.7540679
  81.9270756  78.2156971  94.1295925  83.4254445  78.2517430  94.3428291
  84.6660576  77.6387933  95.3764976  85.2191614  78.0583386  96.0354999
  84.9030662  76.7123681  95.4187932  88.0439383  79.7488458  94.8843640
  87.4638052  80.4073262  94.5021692  87.7775316  78.9265803  94.4731058
  86.4942949  79.1493516  97.0864960  86.9942728  79.2610050  96.2779279
  87.1378557  78.8454569  97.7265769  86.8264261  81.9088548  93.9399988
  85.9390116  82.1938199  93.7220183  87.2418250  81.7482312  93.0927265
  90.1778797  81.9335069  97.6554328  90.9539187  82.4231522  97.9278944
  89.4526931  82.3593124  98.1126197  92.6151356  82.6462689  98.7128268
  93.2095847  82.4058425  98.0021576  92.6877939  81.9269819  99.3401804
  74.8348511  96.4896300  99.0271433  74.7002979  95.7296700  98.4609431
  74.4180574  97.2137199  98.5600222  85.9707474  91.6733223  88.0348008
  86.6743325  91.8783226  88.6505664  85.2470123  92.2409985  88.2997092
  86.8005285  87.4243084  94.1550278  86.7440486  87.8811636  93.3157911
  87.3533627  86.6633769  93.9773121  90.6110091  83.2132816  94.9800398
  90.3547025  82.8129452  95.8108606  89.9862959  83.9276610  94.8550537
  94.9222429  85.9528890  97.4871689  94.3621986  86.0222079  98.2603251
  94.3165932  85.7769874  96.7671186  77.9917637  97.3865617  99.2389876
  77.8750021  98.3311049  99.1368566  77.1710084  97.0839178  99.6275675
  87.8794172  92.1115752  90.0846468  88.7139776  91.6796951  89.9023943
  87.7178515  91.9397766  91.0123363  87.5340064  88.6147866  91.4502808
  87.4788868  88.4492137  90.5091252  86.9086119  89.3223899  91.6064997
  84.8485971  90.9196778 110.7756370  85.7177131  91.0937430 110.4143005
  84.3692723  91.7391194 110.6532100  79.0172151  98.0393879 102.4545804
  79.9199398  98.0717489 102.7712299  78.7909522  97.1094329 102.4692140
  80.7725753  96.7924865  99.1155883  79.8221384  96.7926727  99.0020255
  81.0758240  96.0457600  98.5991917  84.6588309  74.7098751  95.2834063
  83.8920705  74.1557238  95.4290745  85.0699014  74.7820620  96.1448214
  76.6630070  80.9983547 109.3739244  77.5261532  80.6420352 109.5842569
  76.0895481  80.6597442 110.0614648  96.5078447 102.6285403 100.1801645
  97.1456857 102.5092151  99.4764985  96.3899290 103.5766247 100.2389597
  93.3168153 102.5812832 100.1163170  92.9786665 102.4653896  99.2283705
  94.1857921 102.1803997 100.0964176  89.1754969 104.4348308  96.1060061
  88.6119834 104.3438245  95.3376349  89.0607364 103.6148212  96.5862553
  93.7987936 103.7347683 106.0749375  93.7876577 103.3400482 105.2029879
  93.9608576 103.0013756 106.6683147  86.7219401 105.9299500  98.9444281
  87.5140693 105.5890324  98.5290581  86.9616051 106.0394475  99.8646435
  94.7554528 108.1019276  91.4174526  94.1042507 108.6873356  91.0308539
  95.5498890 108.6325471  91.4769563  88.6810155 105.1908413  91.8161660
  89.4541031 104.6437400  91.6774536  89.0335554 106.0552662  92.0276121
  90.5195197 106.5184795 105.0228559  90.2285063 107.4230426 104.9075226
  91.1552182 106.5601323 105.7372629  91.4451404 103.8961644 101.6129919
  92.0414976 103.6717666 100.8986882  91.5026376 103.1546389 102.2155367
  91.0176433 101.3501079  89.4480110  91.2701953 100.8282600  88.6863573
  90.0800992 101.1867224  89.5506794  96.0619715 100.3536857  97.2554853
  96.8482805  99.9356280  96.9045270  96.3258420 101.2582949  97.4236502
  96.2329793 105.7909708  91.9543510  95.5975626 105.8644334  92.6664415
  95.9027199 106.3803306  91.2762589 101.4628143 100.2912091  98.1587832
 102.1953315  99.7211307  98.3925661 100.7067498  99.9033691  98.5994337
  90.7372721 103.2529185  91.6504485  90.6208979 102.5774088  92.3185569
  90.8474981 102.7661559  90.8336638  93.0804262 102.7139332  95.3551174
  92.7162470 102.1869953  96.0664096  93.9371378 102.3237801  95.1817660
  98.9853563  94.0033665 102.6182440  98.6536888  94.8729076 102.3943655
  98.3899176  93.6869949 103.2976471  92.7209749  97.7429232  90.3512523
  92.8884152  98.6109468  90.7182994  92.5306918  97.9056513  89.4273812
  95.4785082 106.2046211 102.0178353  95.1785806 107.1071249 101.9094160
  95.1336142 105.9378394 102.8699506  88.9297564 102.6560007  98.0515057
  88.0048060 102.5236222  98.2592749  89.1781977 103.4354227  98.5485000
  98.8782226  98.7228751  99.6975790  97.9699104  98.6544159  99.4034551
  98.8269822  99.2000696 100.5257616  92.6998970 100.1986889  91.3359189
  92.5798595 100.6443940  92.1744670  92.0051559 100.5472207  90.7772728
  86.2906375 102.2993281  98.8858847  86.4198756 102.5527760  99.7998258
  85.6103826 102.8920989  98.5663502  90.4605862 112.9690531  94.9849321
  90.3829892 113.9198356  95.0637801  89.8567506 112.6236403  95.6424247
  92.9523092 100.1418396 107.6410688  92.1756426 100.7012317 107.6313552
  93.5913655 100.6275179 108.1625558 100.7443873  96.9245189 101.4753664
 100.1018253  97.2177722 100.8293459 100.2398801  96.8098110 102.2806861
  98.3984036 100.6708362  92.1639524  99.3101892 100.9035749  91.9887221
  97.8893683 101.2545407  91.6014602  91.2069464 102.9503850 107.2028655
  91.9484149 103.4888894 106.9263478  90.5006450 103.5770138 107.3600206
  96.6824804 105.0932990 105.8000816  97.0908160 104.6515401 105.0555448
  95.9602065 104.5185618 106.0535009  93.0355874 100.0305597 103.1734373
  93.8817069 100.4545011 103.3169022  92.9754512  99.3739221 103.8672936
  97.0053619 105.6534181  99.5553105  96.3762481 105.8179895  98.8529173
  96.6179281 106.0675790 100.3264069 100.8842851 106.5888619  96.9097469
 100.1993889 106.9687520  96.3594502 100.9686700 107.1983945  97.6429416
  96.1855319  97.6909965 104.8315547  95.9416251  98.4452026 104.2949822
  96.4615250  98.0695313 105.6662794  98.1393782 104.2348578 103.5092812
  98.3510677 104.8780338 102.8327193  98.0923530 103.4010894 103.0414742
  95.7420011  96.8466398 100.4129384  94.8804490  97.1447652 100.7046122
  95.7682446  97.0636797  99.4810417  92.5581580 105.3908589  96.8203190
  93.0219926 105.6696292  96.0307813  92.2938379 104.4892033  96.6376281
  89.4505662 104.9380070  99.7582953  90.0207019 105.3667339  99.1200438
  90.0413773 104.6562655 100.4567139  91.4950467 101.5131741  93.6292755
  92.1974510 101.9652785  94.0966682  91.1631095 100.8715560  94.2572648
  89.9430828 100.1043498 108.0043965  89.3129489 100.7859779 108.2379361
  89.8366916  99.9926580 107.0597103  85.2375801  99.7715294  98.9309889
  84.4474854 100.0272822  98.4549999  85.7287048 100.5863632  99.0361929
  99.2539610 107.1120533 101.6815170 100.0757054 106.7100720 101.3997851
  99.2502013 107.0088767 102.6331285  87.1890546 100.1359873  95.8893365
  86.3921709 100.2478567  96.4076861  86.9616138 100.4746525  95.0234256
  93.0196214 106.6604576 103.8375880  93.0840646 107.1224984 104.6734052
  92.3107137 106.0301941 103.9658190  83.5213503 100.0245784 101.3624880
  83.7721542 100.9092794 101.6282456  84.0573052  99.8450386 100.5899971
 107.3445603 103.4559282  98.0300141 106.5909312 102.8866680  97.8744146
 107.4793144 103.4221946  98.9770776  92.7344231 108.3272684  93.7054860
  92.5989906 109.1724220  94.1339708  93.2754044 108.5291962  92.9420794
  89.2211571  94.4064264 110.3669216  88.8278516  93.8530462 111.0416860
  90.0377711  94.7174842 110.7575733  86.1873629 105.8448122  94.2782786
  86.6998149 106.6391372  94.4288350  86.8396341 105.1474412  94.2116387
  87.9968513 108.9613878  96.3605539  88.1735142 109.8831843  96.1726523
  88.7925347 108.6472297  96.7899918  92.1379532  95.8222143 107.9589472
  92.8789245  96.4229296 107.8793935  92.3697455  95.0799781 107.4007515
  87.2820870 101.0078510 106.2367702  87.1674385 100.1063767 106.5374801
  86.4265388 101.2542207 105.8852518  94.3612708 108.9496250 107.8355203
  93.9176562 108.1632629 107.5176107  95.0229921 109.1375401 107.1699093
  89.1199829 110.4792052 102.3615881  89.6707254 110.3509115 101.5892875
  88.2811305 110.7786941 102.0110774  96.4593946 109.2299050 105.8636604
  96.4412421 110.0507931 105.3716873  97.3813866 109.1053126 106.0886745
  92.9167000 106.7443180 106.7060112  93.4495337 105.9831468 106.4759420
  92.3881081 106.4516832 107.4484267  96.0836695  91.8503246 102.2353754
  95.7400964  92.7404887 102.1592864  96.4515657  91.6604903 101.3723339
  84.1522545 104.1736776  95.0542356  84.9897767 104.5833785  94.8376064
  84.3300813 103.2336218  95.0242550  96.0486977 101.8411857  90.7426189
  95.5333601 102.6116462  90.9814576  95.7764286 101.1676993  91.3659250
  93.6334088  96.6861558  95.8011427  92.7775685  96.2968408  95.6217066
  94.0461040  96.7653518  94.9411213  95.1633235  94.2207901 100.2002987
  94.6598031  94.1838036  99.3870792  95.4563842  95.1300644 100.2599644
  91.4076121  94.3046631  99.2069169  92.2729118  94.1089439  98.8475058
  91.4753630  94.0756982 100.1338526 101.0221252 104.5944212  92.6779362
 100.2450694 104.2555371  92.2334525 101.7012733 104.5996835  92.0034328
  95.8373281  99.7138949  92.5685970  95.5323416 100.0285098  93.4196113
  96.7903723  99.7920369  92.6113303  94.2819712 105.8729172  94.2178924
  93.7541074 105.1381932  93.9052162  93.7807215 106.6503849  93.9718893
  99.2612559 104.0678193  99.3345970  98.6036233 104.7577454  99.4226099
 100.0652958 104.4574625  99.6779957  89.0138440  96.5348839  96.5785536
  89.5882192  96.3124020  95.8458729  89.6009423  96.6037533  97.3314137
  98.0718017 102.4222565  97.3849912  98.5849899 103.0552557  97.8871622
  98.7219241 101.8223761  97.0193272  89.3408027  98.5653300  90.5981421
  88.5045339  98.9027986  90.9190696  89.2012797  98.4302279  89.6608558
  91.3161108  93.4090087  95.3060605  90.6625520  93.0939105  94.6817220
  91.2741582  92.7865828  96.0320428  92.4272313 103.6909383  87.2213897
  91.5199374 103.4598636  87.4205046  92.9243345 102.8947002  87.4087879
  95.3340392 112.4006890  90.1410583  94.6602090 112.7038587  90.7495541
  95.7206214 113.2035970  89.7916040  94.5498848  99.8972021  99.6308253
  93.6321410 100.1186968  99.4729941  94.9658992  99.9718332  98.7719960
  95.3333896 101.2963437  94.7610933  96.0805715 101.8084834  94.4518055
  95.6025485 100.9747489  95.6215327  93.6060546 103.7921977  91.7437887
  92.6971765 103.5081010  91.8410357  93.6355630 104.2121056  90.8841194
  98.8379814 107.4028567  95.5129055  98.3842141 106.5619477  95.5694245
  98.2073780 108.0389965  95.8503835  97.7812733  98.3320553  96.7429722
  97.0435490  97.8197939  97.0739965  98.0339507  97.8920935  95.9312999
  97.2812753 109.2405064  96.4478873  97.5735727 109.8010121  95.7291239
  97.7911373 109.5333625  97.2032032  97.8824360  91.1096805  97.3371492
  98.1883237  90.2494168  97.0497407  98.6076965  91.7014425  97.1370485
  84.1748716 101.5127492  95.7253090  83.9773116 100.9196852  95.0004156
  83.6195380 101.2079702  96.4429028  92.1545440 101.4050598  97.8447683
  92.2094050 100.4524434  97.7690159  91.3436642 101.5610037  98.3288981
  93.3036634 105.3330721  89.0825966  92.8656064 104.6166580  88.6231603
  94.0447075 105.5606836  88.5211057  90.0937800 100.0227658  95.6038062
  89.2805666 100.3221828  96.0103254  90.5896794  99.6283347  96.3212544
  92.2446378 110.0185415  97.5372326  92.2022557 110.2446261  96.6080858
  93.1609077 109.7848789  97.6858127  95.6912012 100.4869482 104.4352955
  96.0461399 100.7140955 105.2947421  96.3384143 100.8187859 103.8130211
 101.4209749 103.6087918  95.1402284 101.2827647 103.7989514  94.2123474
 101.0645967 104.3707301  95.5970336  89.5851875  97.5946013 101.2199296
  90.2251254  97.4534772 100.5222260  88.7529405  97.3080527 100.8437898
 101.4479128 105.6764445 100.1513556 101.8815635 105.5839734 100.9996610
 102.1610709 105.6521946  99.5133572  90.3612179 106.8948444  97.3334289
  91.1552777 106.3998764  97.1316864  89.6503871 106.3666307  96.9701994
  95.1807023 109.2766539 101.6846657  95.2344045 109.8457476 102.4524372
  94.3121805 109.4468424 101.3200694  86.6694942 101.0391525  93.4094042
  85.7392530 100.9775981  93.6264004  86.7652414 100.5167478  92.6130683
  86.5880491  97.5646338  95.9972283  86.8487309  98.4791672  95.8881444
  87.4097664  97.0970781  96.1468896  88.0605417  98.9784095 103.1671108
  88.7328470  98.7701458 102.5183757  87.2335203  98.7806181 102.7276340
 102.3094678 105.7188146 102.6846441 102.5030568 106.6233956 102.9305716
 102.2095296 105.2595565 103.5185026  93.9630989  95.6046036 105.1836769
  93.3158904  96.3035986 105.0901245  94.7332004  96.0382180 105.5513017
  97.3709787 105.8694889 108.2587322  97.2195293 105.6405440 107.3417406
  97.3614466 106.8265490 108.2718667  94.1395123 103.4426801 103.2433588
  95.0687183 103.5937961 103.0702556  93.7186153 103.5310822 102.3882235
  92.9383455 107.4677466 101.0132126  92.7994540 107.0996250 101.8858064
  92.1498051 107.9825105 100.8416084  93.5331607 112.5686562  92.3557663
  93.7083362 112.0974605  93.1703285  92.8464395 113.1952328  92.5838923
  94.4888670 106.8459068  98.4020964  94.1538502 106.8059838  99.2978614
  93.9892616 106.1803784  97.9291374  88.4632914 102.2526698 103.9273545
  88.3252712 101.5206937 104.5285084  89.3737837 102.1635599 103.6457733
  97.4247862 104.1915103  88.6758023  96.8077032 103.4661931  88.5791076
  96.9564350 104.9524463  88.3325098  91.0915214 101.9646658 103.4157225
  91.8014833 101.3239850 103.3743843  91.0484523 102.2159553 104.3383405
  99.0801993 108.9014011 106.3363804  99.0214539 108.2173231 105.6694387
  99.4821512 109.6433001 105.8844430  89.8044148  98.9511876 105.2352864
  89.2681505  98.5002614 105.8874460  89.2160857  99.0857784 104.4923328
  88.0992692 115.7175925  99.1297523  88.3389290 116.3494449  99.8076541
  87.2561888 115.3663965  99.4162882  89.2146407  98.4100527  87.7979328
  88.3375874  98.2889328  87.4341574  89.6904160  97.6186605  87.5458216
  99.0819400 106.8653595 104.5677783  98.1946179 106.5279517 104.6904182
  99.6517952 106.1336626 104.8046549  80.7348548 103.1977687  97.8920835
  81.4219587 102.8839417  97.3041850  80.5796676 104.1019051  97.6188086
  85.5383270  98.0867883 102.3205859  85.4541458  97.4793553 101.5856269
  84.7165976  98.5776902 102.3215355  92.6120554 111.5255047 101.5339027
  92.5390725 112.3310019 102.0458331  92.1697947 111.7247013 100.7087048
  92.4010333 110.7626817  95.0441848  91.6177855 111.3048498  95.1380073
  93.1003079 111.2800797  95.4436089  95.7106984  96.5721447  97.6876054
  96.2075683  95.8191409  97.3677124  94.9393965  96.6085764  97.1219263
 103.5636741 102.2761812  99.3294345 103.5526617 103.1586528  98.9588278
 102.6954120 101.9233363  99.1348882  95.0719237 111.4241881 103.6897185
  95.7847210 112.0589346 103.6173087  94.5809266 111.5205747 102.8737187
  96.7936764 105.3293134  95.2614477  95.8593043 105.4494597  95.0919181
  96.9713433 104.4265601  94.9974487  92.2941952  98.7138830  97.4147738
  91.9239740  98.1609870  98.1028644  92.7901045  98.1096963  96.8622738
 100.1809316 101.1710453  95.7964511 100.6469768 102.0038445  95.7224814
 100.6316816 100.7055435  96.5009770  90.1231151 109.1736325 104.5102756
  90.8240610 109.8072808 104.6632150  89.6526266 109.5151056 103.7498395
  98.2485547 107.5154275  92.7950663  98.5245391 107.4010869  93.7044537
  97.3790045 107.1171760  92.7562836  98.1525978  93.5391040  99.8355413
  97.2389058  93.7695267 100.0037619  98.5819080  93.6229484 100.6869445
  97.9232437 101.7280932 102.3355307  97.2703887 101.9756840 101.6807759
  98.3012817 100.9145071 102.0017784  94.8839611 111.7640626  96.4383477
  95.0662005 110.9462281  96.9011229  95.7072597 111.9808318  96.0008367
  95.2181776 110.6908811  93.6998525  95.7469543 110.1801265  93.0868687
  95.4809996 110.3751341  94.5644058  93.9720010 102.4700743 108.8221344
  93.2960647 102.3694873 109.4923719  94.7947644 102.3139957 109.2857341
  85.7198869 108.7072680 101.4433859  86.3052306 107.9616368 101.5761763
  85.5223707 109.0176637 102.3270523  88.5737524 111.7423927  96.4596301
  87.9047899 112.2270055  95.9760341  88.4350394 111.9893148  97.3739680
  80.3116524 101.2778280 100.1638302  80.3500623 100.7441871 100.9575420
  79.8056817 100.7513486  99.5449279  92.7142793 113.7767671 103.0578960
  93.2661101 113.9399292 103.8228045  93.0548986 114.3672109 102.3858984
  87.6907286  96.1242821 103.6600844  87.7548612  96.9857652 103.2478242
  87.6274406  95.5116822 102.9273203  87.1659559  98.1965953 107.3073879
  87.7931597  97.8143031 107.9211403  86.3087477  97.9780155 107.6729571
  97.5653667 108.6028928 108.9127614  98.1093571 109.2158887 108.4182569
  96.9840512 109.1608507 109.4294627  83.9425101 100.0042382  93.2392233
  84.2378542  99.0953061  93.1859287  83.0413137  99.9830122  92.9173236
  95.8511180 111.7249646 100.0442642  95.7262319 110.9239386  99.5353587
  96.5090271 112.2195840  99.5556612  87.4719348  98.0798379  99.2219782
  86.7505934  98.6934347  99.0827255  88.2612604  98.6156144  99.1436428
  97.9146088 109.5258666 101.6722192  96.9676424 109.4064018 101.6000519
  98.2628862 108.6381165 101.7548453  90.2745662  95.4152805 105.4960434
  90.7980064  95.6615102 106.2586743  90.0557995  96.2472840 105.0763571
  85.6712943  97.6856480  93.3631559  85.3425649  96.8053859  93.1806664
  86.0252314  97.6304149  94.2507948  94.9192522 109.3211383  97.8726544
  94.7717484 108.3928090  98.0534114  95.7446015 109.3431473  97.3883619
  88.7854766  97.9729450  93.7307036  89.1250839  98.5015371  93.0085645
  89.2326886  98.3109856  94.5065603  98.5226644 110.1439941  98.9591417
  99.4473191 109.9382803  98.8215868  98.3541947 109.8956343  99.8680758
  91.4798207  96.3566500 103.1810104  91.1395027  95.5574314 103.5830784
  90.7737213  96.6568211 102.6086937  92.1314679  93.4415813 101.6337427
  92.9540748  92.9676291 101.5116318  92.3752742  94.2206297 102.1336114
  90.7722913  96.4704071  91.9300329  91.4931276  96.8485324  91.4264046
  90.1488217  97.1892948  92.0335307  94.9154036  97.1749220  92.8658661
  95.1317650  98.0573858  92.5647489  94.4348103  96.7835434  92.1364303
  89.6553257 100.1334934  99.4429406  89.5097838 100.4475237 100.3353687
  89.1778461 100.7519834  98.8900305  91.5149640  97.1237482  99.4910295
  91.5011209  96.2278575  99.1542593  92.2322068  97.1308145 100.1248582
  93.3675771  97.5574822 101.5363423  93.1093549  98.4791892 101.5347753
  92.8360811  97.1605256 102.2263887  98.3121960 110.6625609  94.3153508
  98.4858837 110.0972031  93.5627361  98.8050851 111.4626504  94.1332998
  84.1298920 102.6740278 102.3817067  83.5852388 103.4500086 102.5137341
  85.0078269 103.0211082 102.2236189  90.9186536  96.0051862  94.7597866
  91.0402447  95.0768508  94.9588753  90.6288579  96.0190548  93.8476181
  93.7877727  93.6906772  97.8964585  93.8099423  93.7546105  96.9416565
  94.2045786  92.8511281  98.0905092 104.1661351 103.4262032  95.9343808
 104.6092497 102.6769357  95.5362931 103.2887861 103.4172168  95.5517540
  99.2997132 109.9792373  91.4150407  99.9948037 110.5999066  91.6337721
  99.6420282 109.1287724  91.6902784  84.9164941 101.8010174 105.2747224
  84.1746677 101.9492810 105.8611854  84.5957686 102.0618440 104.4113973
 101.1988555 107.4292079  92.9437737 101.7239879 107.7679352  92.2187057
 101.1110908 106.4939094  92.7600872  92.8608604 111.3426152 105.0727614
  93.1695731 111.0975299 105.9450314  93.6584086 111.5472791 104.5846484
  92.8829216 113.4964062  97.3032991  92.4434206 113.0040441  97.9965847
  93.6337333 112.9537030  97.0625066  85.3621555 109.6875603  97.3057619
  86.1879575 109.3879375  96.9256262  85.0115607 108.9183225  97.7547407
  90.3303088 109.0402071  99.3755292  89.7083098 108.3772776  99.0757520
  91.0007955 109.0663203  98.6928940  83.5630160 107.6061929  98.2646552
  82.7262068 107.1784104  98.0830553  83.5353806 107.7994373  99.2017343
  90.4027616  97.5183859 108.9687798  90.4515771  98.3945982 108.5865568
  90.9450130  96.9761252 108.3959441 100.8882461 108.0624982 108.2488935
 100.0978005 108.0449121 107.7093435 100.6515816 108.6013276 109.0037972
 101.0080336 104.9117449 105.5621664 101.0578341 104.7467456 106.5037187
 100.8994260 104.0444708 105.1719545  89.8916595 107.5905995  92.8513753
  90.0404716 108.2741459  92.1980425  90.6983039 107.5711085  93.3663208
  98.2984099 100.8948377 106.8780971  99.1993962 100.7554842 106.5864968
  98.3732073 101.0602832 107.8179148  92.6326904  98.2715232 105.7234157
  91.7630214  98.5648798 105.4516745  92.8686385  98.8555677 106.4441420
 102.5098533 107.3314390 105.8063685 102.2183342 107.6944371 106.6427146
 101.8970665 106.6181399 105.6277017 103.7094216 104.8967270  98.3266256
 104.5441107 105.3357074  98.4903816 103.8453344 104.4205923  97.5074501
 100.7585722 102.4547005 104.2743743 101.2339843 102.6474651 103.4662595
  99.8351287 102.5106191 104.0287127  87.6469228 103.6171172  93.8574822
  87.4015270 102.7133502  94.0555032  87.8165143 103.6188323  92.9154300
  95.3365938  94.4894849 103.2399577  95.8547882  95.2255875 102.9146066
  94.9821071  94.7958842 104.0746336  86.9164876  99.3499530  91.3560983
  86.2234121  99.4243885  90.7001019  86.6716628  98.5859873  91.8782500
  95.5878532  90.9095131  98.7600474  95.8680286  90.2418320  99.3860900
  96.3729139  91.1024227  98.2475138  93.3912001 110.0854125  90.3225500
  92.8185968 110.7044312  89.8695972  93.9644794 110.6353487  90.8565422
  99.4587391  99.3312765 102.5072049 100.4104813  99.4310863 102.5284273
  99.2890841  98.5391034 103.0170133  97.4801770  96.4168348 102.6931450
  96.8851702  96.6973361 101.9977939  97.1951467  96.9062249 103.4648191
  96.6109260 110.3691275  91.4534082  97.5439934 110.3036837  91.6566958
  96.5232473 111.2047542  90.9948615  99.2397277 109.6857145  88.4138030
  99.1610909 109.3517009  89.3073788 100.0606944 110.1778913  88.4129502
 101.9375468 102.5518885 101.6214349 101.9051788 101.6134885 101.8074032
 102.5476092 102.6302921 100.8880173  93.7758799 101.4214938  87.6641553
  94.7217904 101.2921146  87.7329971  93.3973044 100.6829600  88.1410981
 102.0869957  99.3429928 101.6672632 101.5709005  98.5588385 101.4802561
 102.9709905  99.0148645 101.8319151  99.7480684  93.0870944  97.6268444
  99.5505505  92.7786032  98.5111776 100.3580389  93.8132583  97.7566374
 107.7552018 103.6134892 100.7620385 108.4855407 103.3520180 101.3228089
 107.1458964 102.8763614 100.8022453 105.8367315 101.7542754 101.3594837
 105.1100479 101.6198719 100.7511328 105.4214602 102.0619583 102.1651555
  93.6597492 105.4732684 109.1242210  94.5800501 105.6511283 109.3182256
  93.6247075 104.5288729 108.9721909  91.9601716  99.3464914  87.5996438
  91.0533172  99.0498027  87.6759151  92.2377697  99.0494732  86.7330724
  82.8779657 100.6671278  98.0495484  82.5582441  99.8136586  97.7569858
  82.3313085 100.8819856  98.8053452  86.6559564 103.3833718 101.7664991
  86.8745574 104.3150826 101.7853025  87.0685338 103.0241693 102.5519795
  93.5763782  93.8901804  93.7540679  92.7664510  93.5448889  94.1295925
  94.2648199  93.5809348  94.3428291  95.5054330  92.9679851  95.3764976
  96.0585369  93.3875304  96.0354999  95.7424417  92.0415599  95.4187932
  91.5287430  98.9566924 111.1567740  91.4284157  99.9061281 111.0879831
  91.3108972  98.6285163 110.2843810  90.7300501  96.2051849  87.7408417
  91.5919665  96.5306748  88.0004234  90.9150845  95.4183345  87.2281483
  82.7467917 104.2874189 100.0188606  82.0531388 103.8728142  99.5058560
  83.4940908 104.3294726  99.4222025  98.8833137  95.0780376  94.8843640
  98.3031807  95.7365180  94.5021692  98.6169070  94.2557720  94.4731058
  97.3336704  94.4785433  97.0864960  97.8336482  94.5901968  96.2779279
  97.9772312  94.1746486  97.7265769  91.3918700 102.3864063 109.9732801
  90.9085781 103.1864423 110.1796690  91.4779639 102.3972008 109.0200245
  84.6604659 104.2192443  97.8954621  84.6375347 104.3180130  96.9436504
  84.9705296 105.0657594  98.2171787  87.3192037 106.2768598 102.0101235
  88.2735291 106.2452540 101.9431167  87.1204561 105.8159222 102.8251461
  87.9091419 104.8469714 104.5772033  88.7284308 105.3413793 104.6006870
  88.1828227 103.9301682 104.5489600  97.6658015  97.2380466  93.9399988
  96.7783871  97.5230117  93.7220183  98.0812005  97.0774230  93.0927265
 101.0172552  97.2626987  97.6554328 101.7932942  97.7523440  97.9278944
 100.2920686  97.6885041  98.1126197 103.4545110  97.9754606  98.7128268
 104.0489601  97.7350342  98.0021576 103.5271694  97.2561737  99.3401804
  85.6742266 111.8188217  99.0271433  85.5396734 111.0588618  98.4609431
  85.2574328 112.5429117  98.5600222  96.8101229 107.0025141  88.0348008
  97.5137079 107.2075143  88.6505664  96.0863878 107.5701903  88.2997092
  97.6399039 102.7535002  94.1550278  97.5834241 103.2103554  93.3157911
  98.1927382 101.9925687  93.9773121 101.4503845  98.5424734  94.9800398
 101.1940779  98.1421370  95.8108606 100.8256713  99.2568528  94.8550537
 105.7616183 101.2820807  97.4871689 105.2015741 101.3513997  98.2603251
 105.1559686 101.1061792  96.7671186  88.8311392 112.7157534  99.2389876
  88.7143776 113.6602967  99.1368566  88.0103838 112.4131096  99.6275675
  98.7187926 107.4407670  90.0846468  99.5533530 107.0088868  89.9023943
  98.5572269 107.2689684  91.0123363  98.3733819 103.9439783  91.4502808
  98.3182622 103.7784055  90.5091252  97.7479874 104.6515816  91.6064997
  83.1626334  99.1807848 105.2764230  83.8085197  98.6706802 105.7651455
  82.9543485  99.9176529 105.8507655  95.6879726 106.2488695 110.7756370
  96.5570885 106.4229347 110.4143005  95.2086477 107.0683112 110.6532100
  91.6829944  93.4447892  91.0288126  91.6708614  94.3889732  91.1856397
  92.5753366  93.2618038  90.7347587  89.8565906 113.3685796 102.4545804
  90.7593153 113.4009406 102.7712299  89.6303276 112.4386247 102.4692140
  91.6119508 112.1216783  99.1155883  90.6615139 112.1218644  99.0020255
  91.9151994 111.3749517  98.5991917  95.4982063  90.0390669  95.2834063
  94.7314459  89.4849156  95.4290745  95.9092768  90.1112538  96.1448214
  87.5023825  96.3275465 109.3739244  88.3655286  95.9712270 109.5842569
  86.9289235  95.9889360 110.0614648 107.3472201 117.9577321 100.1801645
 107.9850611 117.8384068  99.4764985 107.2293044 118.9058165 100.2389597
 104.1561908 117.9104749 100.1163170 103.8180419 117.7945814  99.2283705
 105.0251676 117.5095914 100.0964176 100.0148723 119.7640226  96.1060061
  99.4513589 119.6730163  95.3376349  99.9001118 118.9440130  96.5862553
 104.6381691 119.0639601 106.0749375 104.6270331 118.6692399 105.2029879
 104.8002330 118.3305674 106.6683147  97.5613155 121.2591417  98.9444281
  98.3534447 120.9182242  98.5290581  97.8009806 121.3686392  99.8646435
 105.5948282 123.4311193  91.4174526 104.9436262 124.0165274  91.0308539
 106.3892645 123.9617388  91.4769563  99.5203909 120.5200331  91.8161660
 100.2934785 119.9729318  91.6774536  99.8729308 121.3844580  92.0276121
 101.3588952 121.8476713 105.0228559 101.0678818 122.7522344 104.9075226
 101.9945936 121.8893240 105.7372629 102.2845159 119.2253561 101.6129919
 102.8808731 119.0009584 100.8986882 102.3420130 118.4838307 102.2155367
 101.8570187 116.6792997  89.4480110 102.1095708 116.1574518  88.6863573
 100.9194746 116.5159142  89.5506794 106.9013470 115.6828775  97.2554853
 107.6876559 115.2648198  96.9045270 107.1652174 116.5874867  97.4236502
 107.0723547 121.1201625  91.9543510 106.4369380 121.1936252  92.6664415
 106.7420954 121.7095224  91.2762589 112.3021897 115.6204008  98.1587832
 113.0347069 115.0503225  98.3925661 111.5461253 115.2325609  98.5994337
 101.5766476 118.5821103  91.6504485 101.4602734 117.9066006  92.3185569
 101.6868736 118.0953477  90.8336638 103.9198017 118.0431250  95.3551174
 103.5556224 117.5161871  96.0664096 104.7765133 117.6529719  95.1817660
 109.8247317 109.3325582 102.6182440 109.4930642 110.2020993 102.3943655
 109.2292931 109.0161866 103.2976471 103.5603504 113.0721149  90.3512523
 103.7277906 113.9401386  90.7182994 103.3700673 113.2348431  89.4273812
 106.3178837 121.5338128 102.0178353 106.0179560 122.4363167 101.9094160
 105.9729896 121.2670311 102.8699506  99.7691318 117.9851925  98.0515057
  98.8441815 117.8528139  98.2592749 100.0175732 118.7646144  98.5485000
 109.7175981 114.0520668  99.6975790 108.8092858 113.9836077  99.4034551
 109.6663577 114.5292613 100.5257616 103.5392725 115.5278807  91.3359189
 103.4192350 115.9735858  92.1744670 102.8445313 115.8764125  90.7772728
  97.1300129 117.6285199  98.8858847  97.2592511 117.8819678  99.7998258
  96.4497581 118.2212907  98.5663502 101.2999617 128.2982449  94.9849321
 101.2223646 129.2490274  95.0637801 100.6961260 127.9528321  95.6424247
 103.7916847 115.4710314 107.6410688 103.0150181 116.0304234 107.6313552
 104.4307410 115.9567097 108.1625558 111.5837627 112.2537107 101.4753664
 110.9412007 112.5469640 100.8293459 111.0792556 112.1390027 102.2806861
 109.2377791 116.0000280  92.1639524 110.1495647 116.2327667  91.9887221
 108.7287438 116.5837324  91.6014602 102.0463219 118.2795767 107.2028655
 102.7877903 118.8180811 106.9263478 101.3400204 118.9062056 107.3600206
 107.5218558 120.4224908 105.8000816 107.9301914 119.9807318 105.0555448
 106.7995820 119.8477535 106.0535009 103.8749629 115.3597515 103.1734373
 104.7210824 115.7836928 103.3169022 103.8148266 114.7031139 103.8672936
 107.8447373 120.9826099  99.5553105 107.2156236 121.1471813  98.8529173
 107.4573035 121.3967708 100.3264069 111.7236605 121.9180536  96.9097469
 111.0387643 122.2979438  96.3594502 111.8080454 122.5275863  97.6429416
 107.0249074 113.0201883 104.8315547 106.7810006 113.7743944 104.2949822
 107.3009004 113.3987231 105.6662794 108.9787537 119.5640495 103.5092812
 109.1904432 120.2072255 102.8327193 108.9317285 118.7302812 103.0414742
 106.5813766 112.1758316 100.4129384 105.7198245 112.4739570 100.7046122
 106.6076200 112.3928715  99.4810417 103.3975335 120.7200507  96.8203190
 103.8613681 120.9988210  96.0307813 103.1332133 119.8183951  96.6376281
 100.2899416 120.2671988  99.7582953 100.8600773 120.6959257  99.1200438
 100.8807528 119.9854573 100.4567139 102.3344221 116.8423659  93.6292755
 103.0368264 117.2944703  94.0966682 102.0024850 116.2007478  94.2572648
 100.7824583 115.4335416 108.0043965 100.1523243 116.1151696 108.2379361
 100.6760670 115.3218497 107.0597103  96.0769555 115.1007212  98.9309889
  95.2868609 115.3564740  98.4549999  96.5680802 115.9155549  99.0361929
 110.0933365 122.4412451 101.6815170 110.9150808 122.0392638 101.3997851
 110.0895767 122.3380685 102.6331285  98.0284300 115.4651791  95.8893365
  97.2315464 115.5770485  96.4076861  97.8009893 115.8038443  95.0234256
 103.8589968 121.9896494 103.8375880 103.9234401 122.4516901 104.6734052
 103.1500892 121.3593859 103.9658190  94.3607258 115.3537702 101.3624880
  94.6115296 116.2384712 101.6282456  94.8966806 115.1742304 100.5899971
 118.1839358 118.7851199  98.0300141 117.4303066 118.2158597  97.8744146
 118.3186899 118.7513864  98.9770776 103.5737986 123.6564602  93.7054860
 103.4383660 124.5016137  94.1339708 104.1147798 123.8583879  92.9420794
 100.0605325 109.7356181 110.3669216  99.6672271 109.1822380 111.0416860
 100.8771466 110.0466760 110.7575733  97.0267383 121.1740040  94.2782786
  97.5391904 121.9683290  94.4288350  97.6790096 120.4766330  94.2116387
  98.8362268 124.2905796  96.3605539  99.0128896 125.2123761  96.1726523
  99.6319101 123.9764215  96.7899918 102.9773286 111.1514061 107.9589472
 103.7183000 111.7521214 107.8793935 103.2091209 110.4091698 107.4007515
  98.1214624 116.3370428 106.2367702  98.0068139 115.4355685 106.5374801
  97.2659142 116.5834125 105.8852518 105.2006462 124.2788168 107.8355203
 104.7570316 123.4924547 107.5176107 105.8623676 124.4667319 107.1699093
  99.9593583 125.8083970 102.3615881 100.5101008 125.6801033 101.5892875
  99.1205059 126.1078859 102.0110774 107.2987700 124.5590968 105.8636604
 107.2806175 125.3799849 105.3716873 108.2207620 124.4345043 106.0886745
 103.7560754 122.0735098 106.7060112 104.2889091 121.3123386 106.4759420
 103.2274835 121.7808749 107.4484267 106.9230449 107.1795163 102.2353754
 106.5794719 108.0696805 102.1592864 107.2909412 106.9896821 101.3723339
  94.9916300 119.5028694  95.0542356  95.8291522 119.9125702  94.8376064
  95.1694568 118.5628136  95.0242550 106.8880732 117.1703775  90.7426189
 106.3727355 117.9408379  90.9814576 106.6158040 116.4968911  91.3659250
 104.4727843 112.0153475  95.8011427 103.6169439 111.6260326  95.6217066
 104.8854795 112.0945436  94.9411213 106.0026990 109.5499819 100.2002987
 105.4991785 109.5129954  99.3870792 106.2957596 110.4592561 100.2599644
 102.2469876 109.6338548  99.2069169 103.1122872 109.4381357  98.8475058
 102.3147384 109.4048900 100.1338526 111.8615006 119.9236129  92.6779362
 111.0844449 119.5847289  92.2334525 112.5406487 119.9288752  92.0034328
 106.6767035 115.0430867  92.5685970 106.3717171 115.3577016  93.4196113
 107.6297477 115.1212287  92.6113303 105.1213467 121.2021090  94.2178924
 104.5934829 120.4673850  93.9052162 104.6200970 121.9795766  93.9718893
 110.1006313 119.3970110  99.3345970 109.4429987 120.0869372  99.4226099
 110.9046712 119.7866542  99.6779957  99.8532195 111.8640756  96.5785536
 100.4275946 111.6415938  95.8458729 100.4403177 111.9329451  97.3314137
 108.9111772 117.7514483  97.3849912 109.4243654 118.3844475  97.8871622
 109.5612996 117.1515679  97.0193272 100.1801782 113.8945217  90.5981421
  99.3439094 114.2319904  90.9190696 100.0406551 113.7594197  89.6608558
 102.1554862 108.7382005  95.3060605 101.5019275 108.4231022  94.6817220
 102.1135336 108.1157746  96.0320428 103.2666067 119.0201300  87.2213897
 102.3593129 118.7890554  87.4205046 103.7637099 118.2238920  87.4087879
 106.1734146 127.7298807  90.1410583 105.4995845 128.0330504  90.7495541
 106.5599968 128.5327888  89.7916040 105.3892603 115.2263939  99.6308253
 104.4715164 115.4478886  99.4729941 105.8052746 115.3010249  98.7719960
 106.1727650 116.6255354  94.7610933 106.9199469 117.1376752  94.4518055
 106.4419240 116.3039407  95.6215327 104.4454301 119.1213895  91.7437887
 103.5365520 118.8372928  91.8410357 104.4749384 119.5412974  90.8841194
 109.6773568 122.7320485  95.5129055 109.2235895 121.8911394  95.5694245
 109.0467535 123.3681883  95.8503835 108.6206488 113.6612471  96.7429722
 107.8829244 113.1489857  97.0739965 108.8733261 113.2212852  95.9312999
 108.1206507 124.5696981  96.4478873 108.4129482 125.1302038  95.7291239
 108.6305128 124.8625542  97.2032032 108.7218115 106.4388723  97.3371492
 109.0276992 105.5786086  97.0497407 109.4470720 107.0306343  97.1370485
  95.0142471 116.8419409  95.7253090  94.8166871 116.2488770  95.0004156
  94.4589135 116.5371619  96.4429028 102.9939195 116.7342516  97.8447683
 103.0487804 115.7816352  97.7690159 102.1830397 116.8901955  98.3288981
 104.1430388 120.6622639  89.0825966 103.7049818 119.9458498  88.6231603
 104.8840829 120.8898754  88.5211057 100.9331555 115.3519575  95.6038062
 100.1199420 115.6513746  96.0103254 101.4290549 114.9575264  96.3212544
 103.0840132 125.3477332  97.5372326 103.0416311 125.5738179  96.6080858
 104.0002831 125.1140707  97.6858127 106.5305766 115.8161400 104.4352955
 106.8855154 116.0432873 105.2947421 107.1777897 116.1479777 103.8130211
 112.2603503 118.9379836  95.1402284 112.1221402 119.1281432  94.2123474
 111.9039722 119.6999219  95.5970336 100.4245629 112.9237931 101.2199296
 101.0645009 112.7826690 100.5222260  99.5923160 112.6372444 100.8437898
 112.2872883 121.0056363 100.1513556 112.7209389 120.9131652 100.9996610
 113.0004463 120.9813863  99.5133572 101.2005933 122.2240361  97.3334289
 101.9946532 121.7290682  97.1316864 100.4897626 121.6958225  96.9701994
 106.0200778 124.6058457 101.6846657 106.0737800 125.1749393 102.4524372
 105.1515559 124.7760342 101.3200694  97.5088697 116.3683443  93.4094042
  96.5786285 116.3067899  93.6264004  97.6046169 115.8459396  92.6130683
  97.4274246 112.8938256  95.9972283  97.6881063 113.8083589  95.8881444
  98.2491418 112.4262699  96.1468896  98.8999171 114.3076013 103.1671108
  99.5722224 114.0993375 102.5183757  98.0728958 114.1098099 102.7276340
 113.1488432 121.0480063 102.6846441 113.3424322 121.9525874 102.9305716
 113.0489051 120.5887483 103.5185026 104.8024743 110.9337954 105.1836769
 104.1552658 111.6327904 105.0901245 105.5725758 111.3674098 105.5513017
 108.2103541 121.1986806 108.2587322 108.0589047 120.9697358 107.3417406
 108.2008220 122.1557408 108.2718667 104.9788877 118.7718719 103.2433588
 105.9080937 118.9229879 103.0702556 104.5579907 118.8602740 102.3882235
 103.7777209 122.7969383 101.0132126 103.6388295 122.4288168 101.8858064
 102.9891805 123.3117023 100.8416084 104.3725361 127.8978480  92.3557663
 104.5477117 127.4266523  93.1703285 103.6858149 128.5244246  92.5838923
 105.3282424 122.1750986  98.4020964 104.9932257 122.1351756  99.2978614
 104.8286370 121.5095702  97.9291374  99.3026668 117.5818616 103.9273545
  99.1646466 116.8498855 104.5285084 100.2131592 117.4927516 103.6457733
 108.2641616 119.5207020  88.6758023 107.6470787 118.7953849  88.5791076
 107.7958104 120.2816381  88.3325098 101.9308969 117.2938575 103.4157225
 102.6408588 116.6531768 103.3743843 101.8878277 117.5451470 104.3383405
 109.9195748 124.2305929 106.3363804 109.8608294 123.5465149 105.6694387
 110.3215266 124.9724919 105.8844430 100.6437903 114.2803793 105.2352864
 100.1075260 113.8294532 105.8874460 100.0554611 114.4149702 104.4923328
  98.9386446 131.0467843  99.1297523  99.1783045 131.6786367  99.8076541
  98.0955643 130.6955883  99.4162882 100.0540162 113.7392445  87.7979328
  99.1769628 113.6181246  87.4341574 100.5297915 112.9478523  87.5458216
 109.9213155 122.1945513 104.5677783 109.0339934 121.8571435 104.6904182
 110.4911706 121.4628544 104.8046549  91.5742302 118.5269604  97.8920835
  92.2613342 118.2131334  97.3041850  91.4190431 119.4310969  97.6188086
  96.3777024 113.4159801 102.3205859  96.2935213 112.8085471 101.5856269
  95.5559731 113.9068819 102.3215355 103.4514308 126.8546965 101.5339027
 103.3784480 127.6601937 102.0458331 103.0091701 127.0538931 100.7087048
 103.2404088 126.0918735  95.0441848 102.4571610 126.6340415  95.1380073
 103.9396833 126.6092715  95.4436089 106.5500738 111.9013365  97.6876054
 107.0469438 111.1483327  97.3677124 105.7787720 111.9377681  97.1219263
 114.4030495 117.6053730  99.3294345 114.3920372 118.4878446  98.9588278
 113.5347875 117.2525281  99.1348882 105.9112992 126.7533799 103.6897185
 106.6240964 127.3881264 103.6173087 105.4203020 126.8497665 102.8737187
 107.6330519 120.6585052  95.2614477 106.6986797 120.7786514  95.0919181
 107.8107187 119.7557519  94.9974487 103.1335707 114.0430748  97.4147738
 102.7633494 113.4901788  98.1028644 103.6294799 113.4388881  96.8622738
 111.0203070 116.5002371  95.7964511 111.4863522 117.3330363  95.7224814
 111.4710571 116.0347353  96.5009770 100.9624905 124.5028243 104.5102756
 101.6634365 125.1364726 104.6632150 100.4920020 124.8442974 103.7498395
 109.0879301 122.8446192  92.7950663 109.3639145 122.7302787  93.7044537
 108.2183800 122.4463677  92.7562836 108.9919733 108.8682958  99.8355413
 108.0782813 109.0987185 100.0037619 109.4212834 108.9521402 100.6869445
 108.7626191 117.0572850 102.3355307 108.1097642 117.3048757 101.6807759
 109.1406571 116.2436988 102.0017784 105.7233365 127.0932543  96.4383477
 105.9055760 126.2754199  96.9011229 106.5466351 127.3100235  96.0008367
 106.0575531 126.0200728  93.6998525 106.5863297 125.5093183  93.0868687
 106.3203750 125.7043259  94.5644058 104.8113764 117.7992661 108.8221344
 104.1354401 117.6986790 109.4923719 105.6341398 117.6431875 109.2857341
  96.5592623 124.0364598 101.4433859  97.1446060 123.2908286 101.5761763
  96.3617462 124.3468554 102.3270523  99.4131279 127.0715845  96.4596301
  98.7441654 127.5561973  95.9760341  99.2744148 127.3185065  97.3739680
  91.1510278 116.6070198 100.1638302  91.1894378 116.0733789 100.9575420
  90.6450571 116.0805403  99.5449279 103.5536547 129.1059589 103.0578960
 104.1054855 129.2691210 103.8228045 103.8942741 129.6964026 102.3858984
  98.5301040 111.4534738 103.6600844  98.5942367 112.3149569 103.2478242
  98.4668161 110.8408740 102.9273203  98.0053313 113.5257871 107.3073879
  98.6325352 113.1434948 107.9211403  97.1481232 113.3072073 107.6729571
 108.4047422 123.9320846 108.9127614 108.9487326 124.5450804 108.4182569
 107.8234266 124.4900424 109.4294627  94.7818856 115.3334300  93.2392233
  95.0772297 114.4244978  93.1859287  93.8806892 115.3122039  92.9173236
 106.6904935 127.0541564 100.0442642 106.5656074 126.2531304  99.5353587
 107.3484026 127.5487757  99.5556612  98.3113103 113.4090297  99.2219782
  97.5899689 114.0226264  99.0827255  99.1006359 113.9448061  99.1436428
 108.7539843 124.8550584 101.6722192 107.8070178 124.7355935 101.6000519
 109.1022616 123.9673082 101.7548453 101.1139416 110.7444723 105.4960434
 101.6373818 110.9907020 106.2586743 100.8951750 111.5764758 105.0763571
  96.5106697 113.0148398  93.3631559  96.1819403 112.1345777  93.1806664
  96.8646068 112.9596066  94.2507948 105.7586276 124.6503300  97.8726544
 105.6111239 123.7220008  98.0534114 106.5839770 124.6723391  97.3883619
  99.6248521 113.3021367  93.7307036  99.9644593 113.8307289  93.0085645
 100.0720641 113.6401774  94.5065603 109.3620398 125.4731859  98.9591417
 110.2866946 125.2674720  98.8215868 109.1935701 125.2248260  99.8680758
 102.3191961 111.6858418 103.1810104 101.9788782 110.8866231 103.5830784
 101.6130968 111.9860129 102.6086937 102.9708433 108.7707731 101.6337427
 103.7934502 108.2968209 101.5116318 103.2146497 109.5498214 102.1336114
 101.6116668 111.7995989  91.9300329 102.3325030 112.1777242  91.4264046
 100.9881972 112.5184866  92.0335307 105.7547791 112.5041138  92.8658661
 105.9711405 113.3865776  92.5647489 105.2741858 112.1127351  92.1364303
 100.4947012 115.4626851  99.4429406 100.3491593 115.7767154 100.3353687
 100.0172216 116.0811752  98.8900305 102.3543395 112.4529399  99.4910295
 102.3404964 111.5570493  99.1542593 103.0715823 112.4600063 100.1248582
 104.2069526 112.8866739 101.5363423 103.9487303 113.8083810 101.5347753
 103.6754566 112.4897174 102.2263887 109.1515714 125.9917527  94.3153508
 109.3252592 125.4263949  93.5627361 109.6444605 126.7918421  94.1332998
  94.9692674 118.0032196 102.3817067  94.4246142 118.7792004 102.5137341
  95.8472024 118.3503000 102.2236189 101.7580291 111.3343779  94.7597866
 101.8796202 110.4060426  94.9588753 101.4682333 111.3482465  93.8476181
 104.6271481 109.0198690  97.8964585 104.6493178 109.0838023  96.9416565
 105.0439540 108.1803199  98.0905092 115.0055105 118.7553949  95.9343808
 115.4486251 118.0061275  95.5362931 114.1281616 118.7464086  95.5517540
 110.1390887 125.3084291  91.4150407 110.8341791 125.9290984  91.6337721
 110.4814037 124.4579642  91.6902784  95.7558696 117.1302092 105.2747224
  95.0140432 117.2784727 105.8611854  95.4351440 117.3910357 104.4113973
 112.0382310 122.7583996  92.9437737 112.5633634 123.0971269  92.2187057
 111.9504662 121.8231012  92.7600872 103.7002359 126.6718070 105.0727614
 104.0089485 126.4267217 105.9450314 104.4977841 126.8764709 104.5846484
 103.7222971 128.8255980  97.3032991 103.2827961 128.3332358  97.9965847
 104.4731088 128.2828947  97.0625066  96.2015310 125.0167521  97.3057619
  97.0273330 124.7171292  96.9256262  95.8509362 124.2475143  97.7547407
 101.1696843 124.3693989  99.3755292 100.5476852 123.7064694  99.0757520
 101.8401710 124.3955121  98.6928940  94.4023915 122.9353847  98.2646552
  93.5655823 122.5076021  98.0830553  94.3747560 123.1286290  99.2017343
 101.2421370 112.8475777 108.9687798 101.2909526 113.7237900 108.5865568
 101.7843884 112.3053170 108.3959441 111.7276216 123.3916900 108.2488935
 110.9371760 123.3741039 107.7093435 111.4909571 123.9305194 109.0037972
 111.8474091 120.2409366 105.5621664 111.8972096 120.0759374 106.5037187
 111.7388014 119.3736626 105.1719545 100.7310350 122.9197912  92.8513753
 100.8798470 123.6033377  92.1980425 101.5376793 122.9003002  93.3663208
 109.1377853 116.2240295 106.8780971 110.0387716 116.0846759 106.5864968
 109.2125828 116.3894749 107.8179148 103.4720659 113.6007149 105.7234157
 102.6023968 113.8940715 105.4516745 103.7080139 114.1847594 106.4441420
 113.3492288 122.6606308 105.8063685 113.0577096 123.0236289 106.6427146
 112.7364419 121.9473316 105.6277017 114.5487970 120.2259188  98.3266256
 115.3834862 120.6648992  98.4903816 114.6847099 119.7497841  97.5074501
 111.5979476 117.7838923 104.2743743 112.0733598 117.9766569 103.4662595
 110.6745041 117.8398108 104.0287127  98.4862983 118.9463090  93.8574822
  98.2409025 118.0425420  94.0555032  98.6558897 118.9480240  92.9154300
 106.1759693 109.8186766 103.2399577 106.6941636 110.5547793 102.9146066
 105.8214825 110.1250759 104.0746336  97.7558630 114.6791447  91.3560983
  97.0627875 114.7535802  90.7001019  97.5110382 113.9151791  91.8782500
 106.4272287 106.2387049  98.7600474 106.7074040 105.5710238  99.3860900
 107.2122894 106.4316144  98.2475138 104.2305755 125.4146043  90.3225500
 103.6579722 126.0336230  89.8695972 104.8038549 125.9645404  90.8565422
 110.2981145 114.6604683 102.5072049 111.2498568 114.7602780 102.5284273
 110.1284595 113.8682951 103.0170133 108.3195525 111.7460266 102.6931450
 107.7245457 112.0265279 101.9977939 108.0345221 112.2354167 103.4648191
 107.4503015 125.6983193  91.4534082 108.3833688 125.6328754  91.6566958
 107.3626228 126.5339460  90.9948615 110.0791032 125.0149063  88.4138030
 110.0004663 124.6808927  89.3073788 110.9000698 125.5070831  88.4129502
 112.7769223 117.8810802 101.6214349 112.7445543 116.9426803 101.8074032
 113.3869846 117.9594839 100.8880173 104.6152554 116.7506855  87.6641553
 105.5611658 116.6213063  87.7329971 104.2366799 116.0121517  88.1410981
 112.9263711 114.6721846 101.6672632 112.4102760 113.8880302 101.4802561
 113.8103660 114.3440562 101.8319151 110.5874438 108.4162861  97.6268444
 110.3899259 108.1077950  98.5111776 111.1974144 109.1424500  97.7566374
 118.5945773 118.9426809 100.7620385 119.3249161 118.6812097 101.3228089
 117.9852718 118.2055531 100.8022453 116.6761070 117.0834672 101.3594837
 115.9494233 116.9490637 100.7511328 116.2608357 117.3911500 102.1651555
 104.4991246 120.8024602 109.1242210 105.4194256 120.9803201 109.3182256
 104.4640829 119.8580647 108.9721909 102.7995471 114.6756832  87.5996438
 101.8926926 114.3789944  87.6759151 103.0771452 114.3786650  86.7330724
  93.7173411 115.9963195  98.0495484  93.3976196 115.1428503  97.7569858
  93.1706839 116.2111773  98.8053452  97.4953319 118.7125636 101.7664991
  97.7139329 119.6442744 101.7853025  97.9079093 118.3533611 102.5519795
 104.4157537 109.2193721  93.7540679 103.6058265 108.8740806  94.1295925
 105.1041954 108.9101265  94.3428291 106.3448085 108.2971768  95.3764976
 106.8979123 108.7167222  96.0354999 106.5818171 107.3707516  95.4187932
 102.3681184 114.2858842 111.1567740 102.2677911 115.2353199 111.0879831
 102.1502726 113.9577081 110.2843810 101.5694255 111.5343767  87.7408417
 102.4313419 111.8598665  88.0004234 101.7544600 110.7475263  87.2281483
  93.5861671 119.6166107 100.0188606  92.8925143 119.2020059  99.5058560
  94.3334662 119.6586643  99.4222025 109.7226892 110.4072293  94.8843640
 109.1425561 111.0657097  94.5021692 109.4562825 109.5849638  94.4731058
 108.1730458 109.8077351  97.0864960 108.6730237 109.9193886  96.2779279
 108.8166066 109.5038404  97.7265769 102.2312454 117.7155981 109.9732801
 101.7479536 118.5156341 110.1796690 102.3173393 117.7263926 109.0200245
  95.4998414 119.5484360  97.8954621  95.4769102 119.6472048  96.9436504
  95.8099050 120.3949511  98.2171787  98.1585792 121.6060515 102.0101235
  99.1129045 121.5744458 101.9431167  97.9598315 121.1451139 102.8251461
  98.7485174 120.1761632 104.5772033  99.5678063 120.6705710 104.6006870
  99.0221981 119.2593600 104.5489600 108.5051770 112.5672384  93.9399988
 107.6177625 112.8522034  93.7220183 108.9205759 112.4066147  93.0927265
 111.8566306 112.5918905  97.6554328 112.6326696 113.0815357  97.9278944
 111.1314440 113.0176959  98.1126197 114.2938865 113.3046524  98.7128268
 114.8883356 113.0642260  98.0021576 114.3665448 112.5853655  99.3401804
  96.5136020 127.1480135  99.0271433  96.3790488 126.3880536  98.4609431
  96.0968083 127.8721035  98.5600222 107.6494983 122.3317058  88.0348008
 108.3530834 122.5367061  88.6505664 106.9257632 122.8993820  88.2997092
 108.4792794 118.0826920  94.1550278 108.4227995 118.5395471  93.3157911
 109.0321136 117.3217604  93.9773121 112.2897600 113.8716652  94.9800398
 112.0334534 113.4713287  95.8108606 111.6650468 114.5860446  94.8550537
 116.6009937 116.6112725  97.4871689 116.0409495 116.6805914  98.2603251
 115.9953441 116.4353709  96.7671186  99.6705146 128.0449452  99.2389876
  99.5537530 128.9894884  99.1368566  98.8497593 127.7423014  99.6275675
 109.5581681 122.7699588  90.0846468 110.3927285 122.3380786  89.9023943
 109.3966024 122.5981601  91.0123363 109.2127573 119.2731701  91.4502808
 109.1576377 119.1075972  90.5091252 108.5873628 119.9807734  91.6064997
  94.0020088 114.5099765 105.2764230  94.6478952 113.9998719 105.7651455
  93.7937239 115.2468447 105.8507655 106.5273480 121.5780613 110.7756370
 107.3964640 121.7521265 110.4143005 106.0480232 122.3975030 110.6532100
 102.5223698 108.7739810  91.0288126 102.5102368 109.7181650  91.1856397
 103.4147120 108.5909955  90.7347587 100.6959660 128.6977714 102.4545804
 101.5986907 128.7301324 102.7712299 100.4697030 127.7678165 102.4692140
 102.4513262 127.4508700  99.1155883 101.5008893 127.4510562  99.0020255
 102.7545749 126.7041435  98.5991917 106.3375818 105.3682587  95.2834063
 105.5708214 104.8141073  95.4290745 106.7486523 105.4404455  96.1448214
  98.3417579 111.6567382 109.3739244  99.2049041 111.3004187 109.5842569
  97.7682990 111.3181277 110.0614648 118.1865956 133.2869239 100.1801645
 118.8244366 133.1675986  99.4764985 118.0686799 134.2350083 100.2389597
 114.9955662 133.2396667 100.1163170 114.6574174 133.1237732  99.2283705
 115.8645430 132.8387832 100.0964176 110.8542478 135.0932143  96.1060061
 110.2907343 135.0022080  95.3376349 110.7394873 134.2732048  96.5862553
 108.4006910 136.5883335  98.9444281 109.1928202 136.2474160  98.5290581
 108.6403560 136.6978310  99.8646435 116.4342037 138.7603111  91.4174526
 115.7830016 139.3457191  91.0308539 117.2286399 139.2909306  91.4769563
 110.3597664 135.8492248  91.8161660 111.1328540 135.3021235  91.6774536
 110.7123063 136.7136497  92.0276121 113.1238913 134.5545479 101.6129919
 113.7202485 134.3301501 100.8986882 113.1813885 133.8130224 102.2155367
 112.6963942 132.0084914  89.4480110 112.9489462 131.4866436  88.6863573
 111.7588501 131.8451060  89.5506794 117.7407224 131.0120693  97.2554853
 118.5270314 130.5940116  96.9045270 118.0045929 131.9166785  97.4236502
 117.9117302 136.4493543  91.9543510 117.2763135 136.5228169  92.6664415
 117.5814708 137.0387142  91.2762589 123.1415652 130.9495926  98.1587832
 123.8740823 130.3795143  98.3925661 122.3855007 130.5617526  98.5994337
 112.4160230 133.9113020  91.6504485 112.2996488 133.2357924  92.3185569
 112.5262490 133.4245394  90.8336638 114.7591771 133.3723167  95.3551174
 114.3949979 132.8453788  96.0664096 115.6158887 132.9821636  95.1817660
 120.6641072 124.6617500 102.6182440 120.3324397 125.5312911 102.3943655
 120.0686685 124.3453784 103.2976471 114.3997258 128.4013067  90.3512523
 114.5671661 129.2693303  90.7182994 114.2094427 128.5640349  89.4273812
 117.1572591 136.8630046 102.0178353 116.8573315 137.7655085 101.9094160
 116.8123651 136.5962229 102.8699506 110.6085073 133.3143843  98.0515057
 109.6835569 133.1820057  98.2592749 110.8569486 134.0938062  98.5485000
 120.5569735 129.3812586  99.6975790 119.6486613 129.3127995  99.4034551
 120.5057331 129.8584531 100.5257616 114.3786479 130.8570725  91.3359189
 114.2586104 131.3027775  92.1744670 113.6839068 131.2056042  90.7772728
 107.9693884 132.9577116  98.8858847 108.0986265 133.2111595  99.7998258
 107.2891335 133.5504824  98.5663502 112.1393371 143.6274366  94.9849321
 112.0617401 144.5782191  95.0637801 111.5355015 143.2820239  95.6424247
 122.4231382 127.5829025 101.4753664 121.7805762 127.8761558 100.8293459
 121.9186310 127.4681945 102.2806861 120.0771545 131.3292198  92.1639524
 120.9889401 131.5619584  91.9887221 119.5681192 131.9129242  91.6014602
 112.8856973 133.6087685 107.2028655 113.6271658 134.1472729 106.9263478
 112.1793959 134.2353974 107.3600206 114.7143383 130.6889432 103.1734373
 115.5604578 131.1128846 103.3169022 114.6542021 130.0323057 103.8672936
 118.6841128 136.3118016  99.5553105 118.0549990 136.4763730  98.8529173
 118.2966790 136.7259626 100.3264069 117.8642828 128.3493801 104.8315547
 117.6203760 129.1035861 104.2949822 118.1402759 128.7279148 105.6662794
 119.8181291 134.8932413 103.5092812 120.0298186 135.5364173 102.8327193
 119.7711039 134.0594730 103.0414742 117.4207520 127.5050234 100.4129384
 116.5591999 127.8031487 100.7046122 117.4469955 127.7220633  99.4810417
 114.2369089 136.0492424  96.8203190 114.7007435 136.3280127  96.0307813
 113.9725888 135.1475869  96.6376281 111.1293171 135.5963906  99.7582953
 111.6994528 136.0251174  99.1200438 111.7201282 135.3146491 100.4567139
 113.1737976 132.1715577  93.6292755 113.8762019 132.6236620  94.0966682
 112.8418604 131.5299396  94.2572648 111.6218337 130.7627333 108.0043965
 110.9916998 131.4443614 108.2379361 111.5154425 130.6510415 107.0597103
 106.9163309 130.4299129  98.9309889 106.1262363 130.6856658  98.4549999
 107.4074557 131.2447467  99.0361929 108.8678055 130.7943709  95.8893365
 108.0709218 130.9062403  96.4076861 108.6403647 131.1330361  95.0234256
 105.2001012 130.6829620 101.3624880 105.4509051 131.5676630 101.6282456
 105.7360561 130.5034221 100.5899971 114.4131740 138.9856519  93.7054860
 114.2777415 139.8308055  94.1339708 114.9541553 139.1875797  92.9420794
 110.8999080 125.0648099 110.3669216 110.5066025 124.5114298 111.0416860
 111.7165220 125.3758678 110.7575733 107.8661138 136.5031957  94.2782786
 108.3785658 137.2975208  94.4288350 108.5183850 135.8058248  94.2116387
 109.6756022 139.6197714  96.3605539 109.8522651 140.5415678  96.1726523
 110.4712856 139.3056133  96.7899918 113.8167041 126.4805978 107.9589472
 114.5576754 127.0813131 107.8793935 114.0484964 125.7383616 107.4007515
 108.9608379 131.6662345 106.2367702 108.8461894 130.7647603 106.5374801
 108.1052897 131.9126042 105.8852518 110.7987338 141.1375887 102.3615881
 111.3494763 141.0092951 101.5892875 109.9598814 141.4370776 102.0110774
 117.7624204 122.5087081 102.2353754 117.4188473 123.3988723 102.1592864
 118.1303166 122.3188739 101.3723339 105.8310054 134.8320612  95.0542356
 106.6685276 135.2417620  94.8376064 106.0088322 133.8920054  95.0242550
 117.7274486 132.4995692  90.7426189 117.2121110 133.2700297  90.9814576
 117.4551795 131.8260828  91.3659250 115.3121597 127.3445393  95.8011427
 114.4563194 126.9552243  95.6217066 115.7248549 127.4237354  94.9411213
 116.8420744 124.8791736 100.2002987 116.3385540 124.8421871  99.3870792
 117.1351351 125.7884479 100.2599644 113.0863630 124.9630466  99.2069169
 113.9516627 124.7673275  98.8475058 113.1541139 124.7340818 100.1338526
 122.7008761 135.2528047  92.6779362 121.9238203 134.9139206  92.2334525
 123.3800242 135.2580670  92.0034328 117.5160790 130.3722784  92.5685970
 117.2110925 130.6868934  93.4196113 118.4691232 130.4504204  92.6113303
 115.9607221 136.5313008  94.2178924 115.4328583 135.7965767  93.9052162
 115.4594724 137.3087684  93.9718893 120.9400067 134.7262028  99.3345970
 120.2823742 135.4161290  99.4226099 121.7440467 135.1158460  99.6779957
 110.6925949 127.1932674  96.5785536 111.2669701 126.9707855  95.8458729
 111.2796932 127.2621368  97.3314137 119.7505526 133.0806401  97.3849912
 120.2637408 133.7136393  97.8871622 120.4006750 132.4807596  97.0193272
 111.0195536 129.2237135  90.5981421 110.1832848 129.5611822  90.9190696
 110.8800306 129.0886115  89.6608558 112.9948617 124.0673923  95.3060605
 112.3413029 123.7522940  94.6817220 112.9529091 123.4449663  96.0320428
 114.1059822 134.3493218  87.2213897 113.1986883 134.1182471  87.4205046
 114.6030854 133.5530837  87.4087879 116.2286357 130.5555856  99.6308253
 115.3108919 130.7770803  99.4729941 116.6446501 130.6302167  98.7719960
 117.0121405 131.9547272  94.7610933 117.7593224 132.4668669  94.4518055
 117.2812994 131.6331325  95.6215327 115.2848055 134.4505813  91.7437887
 114.3759274 134.1664846  91.8410357 115.3143139 134.8704891  90.8841194
 120.5167322 138.0612402  95.5129055 120.0629650 137.2203312  95.5694245
 119.8861289 138.6973801  95.8503835 119.4600242 128.9904388  96.7429722
 118.7222999 128.4781775  97.0739965 119.7127016 128.5504770  95.9312999
 119.5611869 121.7680640  97.3371492 119.8670746 120.9078004  97.0497407
 120.2864474 122.3598261  97.1370485 105.8536225 132.1711327  95.7253090
 105.6560625 131.5780688  95.0004156 105.2982889 131.8663537  96.4429028
 113.8332949 132.0634433  97.8447683 113.8881559 131.1108270  97.7690159
 113.0224151 132.2193872  98.3288981 114.9824143 135.9914556  89.0825966
 114.5443573 135.2750415  88.6231603 115.7234584 136.2190671  88.5211057
 111.7725309 130.6811493  95.6038062 110.9593175 130.9805664  96.0103254
 112.2684303 130.2867182  96.3212544 113.9233887 140.6769250  97.5372326
 113.8810066 140.9030096  96.6080858 114.8396586 140.4432625  97.6858127
 117.3699521 131.1453318 104.4352955 117.7248908 131.3724791 105.2947421
 118.0171652 131.4771694 103.8130211 123.0997258 134.2671753  95.1402284
 122.9615156 134.4573349  94.2123474 122.7433476 135.0291136  95.5970336
 111.2639384 128.2529849 101.2199296 111.9038763 128.1118608 100.5222260
 110.4316914 127.9664362 100.8437898 123.1266637 136.3348281 100.1513556
 123.5603144 136.2423570 100.9996610 123.8398218 136.3105781  99.5133572
 112.0399688 137.5532279  97.3334289 112.8340286 137.0582599  97.1316864
 111.3291380 137.0250142  96.9701994 108.3482451 131.6975361  93.4094042
 107.4180039 131.6359816  93.6264004 108.4439923 131.1751314  92.6130683
 108.2668000 128.2230174  95.9972283 108.5274818 129.1375507  95.8881444
 109.0885173 127.7554616  96.1468896 109.7392926 129.6367931 103.1671108
 110.4115979 129.4285293 102.5183757 108.9122712 129.4390017 102.7276340
 115.6418498 126.2629872 105.1836769 114.9946413 126.9619821 105.0901245
 116.4119513 126.6966016 105.5513017 115.8182632 134.1010637 103.2433588
 116.7474692 134.2521796 103.0702556 115.3973662 134.1894657 102.3882235
 114.6170964 138.1261301 101.0132126 114.4782049 137.7580085 101.8858064
 113.8285560 138.6408940 100.8416084 116.1676179 137.5042904  98.4020964
 115.8326011 137.4643674  99.2978614 115.6680125 136.8387620  97.9291374
 110.1420423 132.9110534 103.9273545 110.0040221 132.1790773 104.5285084
 111.0525346 132.8219434 103.6457733 119.1035370 134.8498938  88.6758023
 118.4864541 134.1245766  88.5791076 118.6351859 135.6108298  88.3325098
 112.7702723 132.6230493 103.4157225 113.4802342 131.9823685 103.3743843
 112.7272032 132.8743388 104.3383405 111.4831657 129.6095711 105.2352864
 110.9469014 129.1586449 105.8874460 110.8948366 129.7441620 104.4923328
 110.8933916 129.0684362  87.7979328 110.0163383 128.9473163  87.4341574
 111.3691669 128.2770441  87.5458216 102.4136057 133.8561522  97.8920835
 103.1007096 133.5423252  97.3041850 102.2584185 134.7602887  97.6188086
 107.2170779 128.7451719 102.3205859 107.1328967 128.1377388 101.5856269
 106.3953485 129.2360737 102.3215355 114.0797842 141.4210653  95.0441848
 113.2965364 141.9632333  95.1380073 114.7790588 141.9384632  95.4436089
 117.3894493 127.2305282  97.6876054 117.8863192 126.4775245  97.3677124
 116.6181474 127.2669599  97.1219263 125.2424250 132.9345648  99.3294345
 125.2314126 133.8170363  98.9588278 124.3741629 132.5817199  99.1348882
 118.4724273 135.9876969  95.2614477 117.5380552 136.1078432  95.0919181
 118.6500942 135.0849436  94.9974487 113.9729461 129.3722665  97.4147738
 113.6027249 128.8193706  98.1028644 114.4688554 128.7680799  96.8622738
 121.8596825 131.8294289  95.7964511 122.3257277 132.6622280  95.7224814
 122.3104325 131.3639270  96.5009770 119.9273056 138.1738110  92.7950663
 120.2032900 138.0594705  93.7044537 119.0577554 137.7755595  92.7562836
 119.8313487 124.1974876  99.8355413 118.9176567 124.4279103 100.0037619
 120.2606589 124.2813320 100.6869445 119.6019946 132.3864768 102.3355307
 118.9491396 132.6340675 101.6807759 119.9800326 131.5728906 102.0017784
 116.8969285 141.3492646  93.6998525 117.4257052 140.8385101  93.0868687
 117.1597505 141.0335176  94.5644058 107.3986378 139.3656515 101.4433859
 107.9839815 138.6200203 101.5761763 107.2011216 139.6760472 102.3270523
 110.2525033 142.4007763  96.4596301 109.5835408 142.8853890  95.9760341
 110.1137903 142.6476983  97.3739680 101.9904033 131.9362116 100.1638302
 102.0288132 131.4025706 100.9575420 101.4844325 131.4097321  99.5449279
 109.3694795 126.7826656 103.6600844 109.4336121 127.6441487 103.2478242
 109.3061915 126.1700658 102.9273203 108.8447067 128.8549789 107.3073879
 109.4719106 128.4726866 107.9211403 107.9874986 128.6363990 107.6729571
 105.6212610 130.6626218  93.2392233 105.9166051 129.7536896  93.1859287
 104.7200646 130.6413957  92.9173236 109.1506857 128.7382214  99.2219782
 108.4293443 129.3518182  99.0827255 109.9400113 129.2739979  99.1436428
 111.9533171 126.0736641 105.4960434 112.4767573 126.3198937 106.2586743
 111.7345504 126.9056676 105.0763571 107.3500452 128.3440315  93.3631559
 107.0213158 127.4637694  93.1806664 107.7039823 128.2887984  94.2507948
 116.5980031 139.9795218  97.8726544 116.4504993 139.0511925  98.0534114
 117.4233524 140.0015309  97.3883619 110.4642275 128.6313285  93.7307036
 110.8038347 129.1599206  93.0085645 110.9114395 128.9693691  94.5065603
 113.1585716 127.0150336 103.1810104 112.8182536 126.2158149 103.5830784
 112.4524722 127.3152047 102.6086937 113.8102188 124.0999648 101.6337427
 114.6328257 123.6260126 101.5116318 114.0540251 124.8790132 102.1336114
 112.4510422 127.1287907  91.9300329 113.1718785 127.5069159  91.4264046
 111.8275726 127.8476784  92.0335307 116.5941545 127.8333056  92.8658661
 116.8105159 128.7157694  92.5647489 116.1135612 127.4419269  92.1364303
 111.3340766 130.7918769  99.4429406 111.1885347 131.1059072 100.3353687
 110.8565970 131.4103669  98.8900305 113.1937149 127.7821317  99.4910295
 113.1798718 126.8862410  99.1542593 113.9109577 127.7891981 100.1248582
 115.0463280 128.2158657 101.5363423 114.7881058 129.1375728 101.5347753
 114.5148320 127.8189092 102.2263887 105.8086429 133.3324113 102.3817067
 105.2639897 134.1083921 102.5137341 106.6865778 133.6794918 102.2236189
 112.5974045 126.6635697  94.7597866 112.7189956 125.7352343  94.9588753
 112.3076088 126.6774383  93.8476181 115.4665236 124.3490608  97.8964585
 115.4886932 124.4129941  96.9416565 115.8833295 123.5095116  98.0905092
 125.8448860 134.0845867  95.9343808 126.2880006 133.3353192  95.5362931
 124.9675370 134.0756004  95.5517540 106.5952450 132.4594010 105.2747224
 105.8534186 132.6076645 105.8611854 106.2745195 132.7202275 104.4113973
 107.0409064 140.3459438  97.3057619 107.8667084 140.0463210  96.9256262
 106.6903116 139.5767061  97.7547407 112.0090597 139.6985907  99.3755292
 111.3870607 139.0356612  99.0757520 112.6795464 139.7247038  98.6928940
 105.2417669 138.2645765  98.2646552 104.4049577 137.8367939  98.0830553
 105.2141315 138.4578208  99.2017343 112.0815125 128.1767695 108.9687798
 112.1303280 129.0529817 108.5865568 112.6237639 127.6345088 108.3959441
 111.5704104 138.2489830  92.8513753 111.7192225 138.9325294  92.1980425
 112.3770548 138.2294920  93.3663208 114.3114413 128.9299067 105.7234157
 113.4417723 129.2232633 105.4516745 114.5473894 129.5139512 106.4441420
 109.3256737 134.2755007  93.8574822 109.0802779 133.3717337  94.0555032
 109.4952652 134.2772158  92.9154300 117.0153447 125.1478684 103.2399577
 117.5335391 125.8839711 102.9146066 116.6608580 125.4542677 104.0746336
 108.5952385 130.0083365  91.3560983 107.9021630 130.0827720  90.7001019
 108.3504137 129.2443709  91.8782500 117.2666041 121.5678966  98.7600474
 117.5467795 120.9002155  99.3860900 118.0516648 121.7608062  98.2475138
 115.0699510 140.7437960  90.3225500 114.4973477 141.3628147  89.8695972
 115.6432303 141.2937322  90.8565422 121.1374900 129.9896600 102.5072049
 122.0892322 130.0894698 102.5284273 120.9678350 129.1974869 103.0170133
 119.1589279 127.0752184 102.6931450 118.5639211 127.3557196 101.9977939
 118.8738976 127.5646085 103.4648191 123.6162977 133.2102720 101.6214349
 123.5839297 132.2718721 101.8074032 124.2263601 133.2886757 100.8880173
 115.4546308 132.0798773  87.6641553 116.4005413 131.9504981  87.7329971
 115.0760553 131.3413435  88.1410981 123.7657466 130.0013764 101.6672632
 123.2496514 129.2172220 101.4802561 124.6497414 129.6732480 101.8319151
 121.4268193 123.7454779  97.6268444 121.2293014 123.4369867  98.5111776
 122.0367898 124.4716418  97.7566374 127.5154824 132.4126590 101.3594837
 126.7887988 132.2782554 100.7511328 127.1002111 132.7203418 102.1651555
 113.6389225 130.0048749  87.5996438 112.7320681 129.7081862  87.6759151
 113.9165206 129.7078568  86.7330724 104.5567166 131.3255113  98.0495484
 104.2369950 130.4720421  97.7569858 104.0100594 131.5403691  98.8053452
 108.3347073 134.0417554 101.7664991 108.5533083 134.9734662 101.7853025
 108.7472847 133.6825528 102.5519795 115.2551291 124.5485639  93.7540679
 114.4452019 124.2032724  94.1295925 115.9435708 124.2393183  94.3428291
 117.1841839 123.6263686  95.3764976 117.7372878 124.0459139  96.0354999
 117.4211926 122.6999434  95.4187932 112.4088010 126.8635685  87.7408417
 113.2707174 127.1890583  88.0004234 112.5938354 126.0767181  87.2281483
 104.4255426 134.9458024 100.0188606 103.7318897 134.5311977  99.5058560
 105.1728417 134.9878561  99.4222025 120.5620646 125.7364211  94.8843640
 119.9819315 126.3949015  94.5021692 120.2956579 124.9141556  94.4731058
 119.0124213 125.1369269  97.0864960 119.5123991 125.2485803  96.2779279
 119.6559821 124.8330322  97.7265769 106.3392168 134.8776278  97.8954621
 106.3162856 134.9763965  96.9436504 106.6492805 135.7241429  98.2171787
 108.9979546 136.9352433 102.0101235 109.9522800 136.9036375 101.9431167
 108.7992070 136.4743057 102.8251461 109.5878928 135.5053549 104.5772033
 110.4071817 135.9997628 104.6006870 109.8615736 134.5885517 104.5489600
 119.3445524 127.8964302  93.9399988 118.4571379 128.1813952  93.7220183
 119.7599514 127.7358065  93.0927265 122.6960061 127.9210822  97.6554328
 123.4720451 128.4107275  97.9278944 121.9708195 128.3468877  98.1126197
 125.1332619 128.6338442  98.7128268 125.7277110 128.3934178  98.0021576
 125.2059203 127.9145572  99.3401804 107.3529775 142.4772053  99.0271433
 107.2184243 141.7172454  98.4609431 106.9361837 143.2012952  98.5600222
 118.4888738 137.6608976  88.0348008 119.1924588 137.8658979  88.6505664
 117.7651387 138.2285738  88.2997092 119.3186548 133.4118837  94.1550278
 119.2621750 133.8687389  93.3157911 119.8714891 132.6509522  93.9773121
 123.1291354 129.2008569  94.9800398 122.8728288 128.8005205  95.8108606
 122.5044222 129.9152363  94.8550537 127.4403692 131.9404643  97.4871689
 126.8803250 132.0097832  98.2603251 126.8347195 131.7645627  96.7671186
 110.5098901 143.3741370  99.2389876 110.3931285 144.3186802  99.1368566
 109.6891347 143.0714931  99.6275675 120.3975435 138.0991505  90.0846468
 121.2321039 137.6672704  89.9023943 120.2359778 137.9273519  91.0123363
 120.0521328 134.6023619  91.4502808 119.9970131 134.4367890  90.5091252
 119.4267383 135.3099652  91.6064997 104.8413843 129.8391683 105.2764230
 105.4872706 129.3290637 105.7651455 104.6330994 130.5760365 105.8507655
 113.3617453 124.1031728  91.0288126 113.3496123 125.0473568  91.1856397
 114.2540875 123.9201873  90.7347587 113.2907017 142.7800618  99.1155883
 112.3402648 142.7802480  99.0020255 113.5939503 142.0333353  98.5991917
 117.1769572 120.6974504  95.2834063 116.4101968 120.1432991  95.4290745
 117.5880277 120.7696373  96.1448214 109.1811334 126.9859300 109.3739244
 110.0442795 126.6296105 109.5842569 108.6076744 126.6473195 110.0614648
  42.3109676   2.9887938  86.9046952  42.9488086   2.8694685  86.2010292
  42.1930519   3.9368782  86.9634904  39.1199382   2.9415366  86.8408476
  38.7817894   2.8256430  85.9529011  39.9889150   2.5406531  86.8209483
  34.9786198   4.7950842  82.8305367  34.4151063   4.7040779  82.0621655
  34.8638593   3.9750747  83.3107860  39.6019165   4.0950218  92.7994682
  39.5907806   3.7003016  91.9275186  39.7639805   3.3616290  93.3928453
  32.5250630   6.2902034  85.6689588  33.3171922   5.9492858  85.2535887
  32.7647280   6.3997009  86.5891741  40.5585756   8.4621810  78.1419832
  39.9073736   9.0475890  77.7553846  41.3530119   8.9928005  78.2014870
  34.4841384   5.5510947  78.5406967  35.2572260   5.0039934  78.4019842
  34.8366782   6.4155196  78.7521428  36.3226426   6.8787329  91.7473866
  36.0316292   7.7832960  91.6320532  36.9583411   6.9203857  92.4617936
  37.2482633   4.2564178  88.3375226  37.8446205   4.0320200  87.6232189
  37.3057605   3.5148923  88.9400673  36.8207661   1.7103613  76.1725417
  37.0733182   1.1885134  75.4108880  35.8832221   1.5469759  76.2752100
  41.8650944   0.7139392  83.9800160  42.6514033   0.2958815  83.6290577
  42.1289649   1.6185484  84.1481808  42.0361022   6.1512242  78.6788817
  41.4006855   6.2246868  79.3909721  41.7058428   6.7405841  78.0007896
  47.2659371   0.6514625  84.8833138  47.9984543   0.0813842  85.1170968
  46.5098727   0.2636225  85.3239644  36.5403950   3.6131719  78.3749792
  36.4240208   2.9376622  79.0430876  36.6506210   3.1264093  77.5581945
  38.8835491   3.0741866  82.0796481  38.5193698   2.5472487  82.7909402
  39.7402607   2.6840335  81.9062966  44.7884792  -5.6363801  89.3427747
  44.4568117  -4.7668390  89.1188962  44.1930405  -5.9527517  90.0221777
  38.5240978  -1.8968234  77.0757829  38.6915380  -1.0287998  77.4428300
  38.3338147  -1.7340952  76.1519119  41.2816311   6.5648745  88.7423660
  40.9817034   7.4673784  88.6339467  40.9367371   6.2980928  89.5944813
  34.7328793   3.0162542  84.7760364  33.8079289   2.8838756  84.9838056
  34.9813206   3.7956761  85.2730306  44.6813455  -0.9168715  86.4221097
  43.7730332  -0.9853307  86.1279858  44.6301051  -0.4396770  87.2502922
  38.5030199   0.5589423  78.0604496  38.3829824   1.0046474  78.8989976
  37.8082787   0.9074741  77.5018034  32.0937604   2.6595815  85.6104153
  32.2229985   2.9130294  86.5243565  31.4135055   3.2523523  85.2908808
  36.2637091  13.3293065  81.7094627  36.1861121  14.2800890  81.7883108
  35.6598735  12.9838938  82.3669554  38.7554321   0.5020931  94.3655994
  37.9787655   1.0614851  94.3558859  39.3944884   0.9877714  94.8870864
  46.5475101  -2.7152277  88.1998971  45.9049482  -2.4219743  87.5538765
  46.0430030  -2.8299356  89.0052168  44.2015265   1.0310897  78.8884830
  45.1133121   1.2638283  78.7132528  43.6924912   1.6147941  78.3259909
  37.0100693   3.3106384  93.9273961  37.7515378   3.8491428  93.6508785
  36.3037679   3.9372673  94.0845513  42.4856033   5.4535524  92.5246123
  42.8939389   5.0117935  91.7800755  41.7633294   4.8788152  92.7780316
  38.8387103   0.3908131  89.8979680  39.6848298   0.8147545  90.0414329
  38.7785740  -0.2658244  90.5918243  42.8084847   6.0136715  86.2798412
  42.1793710   6.1782429  85.5774479  42.4210510   6.4278325  87.0509376
  46.6874079   6.9491153  83.6342775  46.0025117   7.3290054  83.0839809
  46.7717929   7.5586480  84.3674723  41.9886548  -1.9487500  91.5560853
  41.7447480  -1.1945440  91.0195129  42.2646479  -1.5702153  92.3908100
  43.9425011   4.5951112  90.2338119  44.1541906   5.2382872  89.5572500
  43.8954759   3.7613428  89.7660049  41.5451240  -2.7931067  87.1374691
  40.6835719  -2.4949814  87.4291429  41.5713675  -2.5760669  86.2055724
  38.3612809   5.7511123  83.5448497  38.8251155   6.0298826  82.7553119
  38.0969607   4.8494568  83.3621587  35.2536890   5.2982605  86.4828260
  35.8238247   5.7269873  85.8445744  35.8445002   5.0165189  87.1812446
  37.2981695   1.8734276  80.3538062  38.0005739   2.3255319  80.8211988
  36.9662324   1.2318094  80.9817955  35.7462057   0.4646032  94.7289271
  35.1160717   1.1462313  94.9624668  35.6398145   0.3529114  93.7842409
  31.0407029   0.1317828  85.6555195  30.2506083   0.3875357  85.1795306
  31.5318277   0.9466166  85.7607236  45.0570839   7.4723067  88.4060476
  45.8788283   7.0703255  88.1243158  45.0533242   7.3691302  89.3576592
  32.9921775   0.4962407  82.6138672  32.1952938   0.6081102  83.1322168
  32.7647367   0.8349060  81.7479563  38.8227442   7.0207111  90.5621187
  38.8871875   7.4827518  91.3979359  38.1138366   6.3904476  90.6903497
  53.1476832   3.8161816  84.7545448  52.3940540   3.2469214  84.5989452
  53.2824373   3.7824480  85.7016082  38.5375460   8.6875218  80.4300167
  38.4021135   9.5326754  80.8585015  39.0785272   8.8894496  79.6666101
  31.9904857   6.2050656  81.0028092  32.5029378   6.9993906  81.1533657
  32.6427570   5.5076947  80.9361694  33.7999742   9.3216412  83.0850845
  33.9766370  10.2434377  82.8971829  34.5956576   9.0074832  83.5145225
  37.9410761  -3.8175323  94.6834779  38.6820474  -3.2168170  94.6039241
  38.1728683  -4.5597685  94.1252821  33.0852099   1.3681044  92.9613009
  32.9705614   0.4666302  93.2620107  32.2296616   1.6144741  92.6097825
  40.1643936   9.3098785  94.5600509  39.7207791   8.5235163  94.2421414
  40.8261150   9.4977935  93.8944400  34.9231058  10.8394586  89.0861188
  35.4738483  10.7111650  88.3138182  34.0842533  11.1389475  88.7356080
  42.2625174   9.5901585  92.5881910  42.2443650  10.4110466  92.0962180
  43.1845094   9.4655660  92.8132052  38.7198229   7.1045714  93.4305419
  39.2526565   6.3434002  93.2004727  38.1912310   6.8119366  94.1729573
  41.8867924  -7.7894220  88.9599061  41.5432193  -6.8992578  88.8838171
  42.2546886  -7.9792562  88.0968646  29.9553774   4.5339310  81.7787663
  30.7928996   4.9436319  81.5621370  30.1332042   3.5938753  81.7487857
  41.8518206   2.2014391  77.4671496  41.3364830   2.9718996  77.7059883
  41.5795515   1.5279527  78.0904557  39.4365317  -2.9535908  82.5256734
  38.5806914  -3.3429058  82.3462373  39.8492269  -2.8743947  81.6656520
  40.9664464  -5.4189565  86.9248294  40.4629260  -5.4559430  86.1116099
  41.2595071  -4.5096822  86.9844950  46.8252480   4.9546746  79.4024669
  46.0481923   4.6157905  78.9579831  47.5043961   4.9599369  78.7279634
  41.6404509   0.0741483  79.2931277  41.3354645   0.3887632  80.1441420
  42.5934952   0.1522903  79.3358610  40.0850941   6.2331707  80.9424231
  39.5572303   5.4984466  80.6297468  39.5838444   7.0106383  80.6964199
  45.0643787   4.4280727  86.0591277  44.4067462   5.1179988  86.1471406
  45.8684187   4.8177159  86.4025263  43.8749246   2.7825100  84.1095219
  44.3881128   3.4155092  84.6116929  44.5250470   2.1826295  83.7438579
  35.1439256  -1.0744166  77.3226728  34.3076568  -0.7369480  77.6436002
  35.0044026  -1.2095186  76.3853865  38.2303541   4.0511917  73.9459204
  37.3230603   3.8201170  74.1450353  38.7274573   3.2549536  74.1333185
  41.1371620  12.7609424  76.8655890  40.4633319  13.0641121  77.4740848
  41.5237442  13.5638504  76.5161347  40.3530077   0.2574555  86.3553559
  39.4352638   0.4789502  86.1975247  40.7690221   0.3320866  85.4965267
  41.1365125   1.6565971  81.4856240  41.8836944   2.1687368  81.1763362
  41.4056714   1.3350024  82.3460633  39.4091775   4.1524512  78.4683194
  38.5002994   3.8683544  78.5655664  39.4386859   4.5723590  77.6086501
  44.6411042   7.7631101  82.2374362  44.1873369   6.9222011  82.2939552
  44.0105009   8.3992500  82.5749142  43.5843962  -1.3076913  83.4675029
  42.8466719  -1.8199527  83.7985272  43.8370735  -1.7476531  82.6558306
  43.0843982   9.6007598  83.1724180  43.3766956  10.1612655  82.4536545
  43.5942602   9.8936159  83.9277339  43.6855589  -8.5300661  84.0616798
  43.9914466  -9.3903297  83.7742713  44.4108194  -7.9383041  83.8615792
  29.9779945   1.8730026  82.4498396  29.7804345   1.2799386  81.7249463
  29.4226609   1.5682236  83.1674335  37.9576669   1.7653132  84.5692989
  38.0125279   0.8126969  84.4935466  37.1467871   1.9212571  85.0534288
  39.1067863   5.6933255  75.8071273  38.6687293   4.9769114  75.3476910
  39.8478304   5.9209370  75.2456364  35.8969029   0.3830192  82.3283368
  35.0836894   0.6824363  82.7348560  36.3928023  -0.0114119  83.0457850
  38.0477607  10.3787949  84.2617633  38.0053786  10.6048795  83.3326165
  38.9640306  10.1451324  84.4103434  41.4943241   0.8472016  91.1598262
  41.8492628   1.0743490  92.0192728  42.1415372   1.1790393  90.5375517
  47.2240977   3.9690452  81.8647591  47.0858876   4.1592048  80.9368780
  46.8677196   4.7309835  82.3215642  35.3883104  -2.0451452  87.9444603
  36.0282483  -2.1862693  87.2467566  34.5560634  -2.3316939  87.5683205
  47.2510357   6.0366979  86.8758863  47.6846864   5.9442268  87.7241917
  47.9641938   6.0124480  86.2378879  36.1643408   7.2550978  84.0579596
  36.9584006   6.7601298  83.8562171  35.4535100   6.7268841  83.6947301
  40.9838252   9.6369073  88.4091963  41.0375274  10.2060010  89.1769679
  40.1153033   9.8070959  88.0446000  32.4726171   1.3994060  80.1339348
  31.5423759   1.3378515  80.3509310  32.5683643   0.8770012  79.3375990
  33.8636645  -0.6613370  89.8916414  34.5359699  -0.8696008  89.2429063
  33.0366432  -0.8591284  89.4521647  48.1125907   6.0790680  89.4091748
  48.3061797   6.9836491  89.6551023  48.0126525   5.6198099  90.2430333
  39.7662217  -4.0351429  91.9082075  39.1190132  -3.3361480  91.8146552
  40.5363233  -3.6015285  92.2758324  43.1741015   6.2297423  94.9832629
  43.0226522   6.0007974  94.0662712  43.1645695   7.1868024  94.9963974
  39.9426352   3.8029336  89.9678895  40.8718412   3.9540495  89.7947862
  39.5217382   3.8913356  89.1127542  38.7414684   7.8280000  87.7377433
  38.6025769   7.4598784  88.6103371  37.9529280   8.3427639  87.5661390
  39.3362835  12.9289096  79.0802969  39.5114591  12.4577140  79.8948592
  38.6495624  13.5554863  79.3084230  40.2919899   7.2061603  85.1266270
  39.9569731   7.1662373  86.0223920  39.7923844   6.5406319  84.6536681
  34.2664143   2.6129233  90.6518852  34.1283941   1.8809471  91.2530391
  35.1769066   2.5238133  90.3703039  43.2279090   4.5517637  75.4003330
  42.6108261   3.8264465  75.3036383  42.7595579   5.3126997  75.0570404
  36.8946443   2.3249192  90.1402531  37.6046062   1.6842384  90.0989150
  36.8515751   2.5762087  91.0628712  44.8833222   9.2616545  93.0609110
  44.8245768   8.5775765  92.3939693  45.2852740  10.0035535  92.6089736
  35.6075377  -0.6885590  91.9598171  35.0712734  -1.1394852  92.6119767
  35.0192086  -0.5539681  91.2168635  33.9023921  16.0778459  85.8542829
  34.1420519  16.7096983  86.5321848  33.0593117  15.7266499  86.1408189
  35.0177636  -1.2296939  74.5224634  34.1407103  -1.3508138  74.1586881
  35.4935389  -2.0210860  74.2703523  44.8850629   7.2256129  91.2923090
  43.9977408   6.8882051  91.4149489  45.4549180   6.4939160  91.5291856
  26.5379776   3.5580221  84.6166142  27.2250816   3.2441951  84.0287157
  26.3827905   4.4621586  84.3433393  38.4151783  11.8857582  88.2584333
  38.3421954  12.6912553  88.7703638  37.9729176  12.0849547  87.4332355
  38.2041562  11.1229352  81.7687155  37.4209084  11.6651032  81.8625379
  38.9034307  11.6403331  82.1681396  41.5138212  -3.0676019  84.4121360
  42.0106912  -3.8206057  84.0922431  40.7425194  -3.0311702  83.8464570
  49.3667970   2.6364347  86.0539652  49.3557846   3.5189062  85.6833585
  48.4985349   2.2835897  85.8594189  40.8750466  11.7844416  90.4142492
  41.5878438  12.4191880  90.3418393  40.3840495  11.8808282  89.5982494
  42.5967993   5.6895668  81.9859784  41.6624272   5.8097131  81.8164488
  42.7744662   4.7868135  81.7219794  38.0973181  -0.9258636  84.1393045
  37.7270969  -1.4787596  84.8273950  38.5932274  -1.5300502  83.5868045
  45.9840544   1.5312988  82.5209818  46.4500997   2.3640979  82.4470120
  46.4348045   1.0657969  83.2255076  35.9262380   9.5338859  91.2348063
  36.6271839  10.1675342  91.3877457  35.4557495   9.8753591  90.4743702
  44.0516776   7.8756809  79.5195970  44.3276619   7.7613403  80.4289844
  43.1821274   7.4774294  79.4808143  43.9557207  -6.1006425  86.5600719
  43.0420287  -5.8702199  86.7282926  44.3850309  -6.0167981  87.4114752
  43.7263666   2.0883467  89.0600613  43.0735116   2.3359374  88.4053066
  44.1044046   1.2747605  88.7263090  40.6870840  12.1243160  83.1628783
  40.8693234  11.3064816  83.6256536  41.5103826  12.3410852  82.7253673
  41.0213005  11.0511345  80.4243832  41.5500771  10.5403799  79.8113994
  41.2841225  10.7353875  81.2889365  39.7751239   2.8303278  95.5466650
  39.0991876   2.7297407  96.2169025  40.5978873   2.6742491  96.0102647
  31.5230098   9.0675214  88.1679165  32.1083535   8.3218902  88.3007070
  31.3254936   9.3779171  89.0515829  34.3768753  12.1026462  83.1841608
  33.7079128  12.5872589  82.7005648  34.2381623  12.3495682  84.0984986
  38.5174022  14.1370205  89.7824266  39.0692330  14.3001827  90.5473351
  38.8580215  14.7274643  89.1104291  43.3684896   8.9631463  95.6372921
  43.9124800   9.5761421  95.1427875  42.7871741   9.5211041  96.1539934
  41.6542409  12.0852181  86.7687948  41.5293548  11.2841920  86.2598894
  42.3121500  12.5798374  86.2801918  33.2750577  -1.5599087  85.9465089
  32.5537163  -0.9463119  85.8072562  34.0643833  -1.0241322  85.8681735
  43.7177317   9.8861201  88.3967498  42.7707653   9.7666552  88.3245825
  44.0660090   8.9983699  88.4793760  40.7223751   9.6813917  84.5971851
  40.5748713   8.7530624  84.7779421  41.5477244   9.7034008  84.1128926
  34.5885995  -1.6668016  80.4552343  34.9282067  -1.1382095  79.7330951
  35.0358115  -1.3287610  81.2310909  44.3257872  10.5042476  85.6836723
  45.2504420  10.2985337  85.5461175  44.1573176  10.2558877  86.5926065
  37.2829436  -3.2830965  89.9055411  36.9426256  -4.0823152  90.3076091
  36.5768442  -2.9829254  89.3332244  36.5754142  -3.1693394  78.6545636
  37.2962504  -2.7912142  78.1509352  35.9519446  -2.4504518  78.7580614
  40.7185265  -2.4648245  79.5903968  40.9348879  -1.5823608  79.2892796
  40.2379332  -2.8562032  78.8609610  35.4584486   0.4937468  86.1674713
  35.3129067   0.8077771  87.0598994  34.9809690   1.1122368  85.6145611
  37.3180869  -2.5159984  86.2155602  37.3042438  -3.4118891  85.8787900
  38.0353297  -2.5089321  86.8493888  39.1707000  -2.0822644  88.2608730
  38.9124778  -1.1605573  88.2593060  38.6392040  -2.4792210  88.9509194
  44.1153189  11.0228143  81.0398815  44.2890066  10.4574566  80.2872667
  44.6082080  11.8229038  80.8578305  29.9330148   3.0342812  89.1062374
  29.3883616   3.8102620  89.2382648  30.8109498   3.3813617  88.9481495
  49.9692580   3.7864566  82.6589115  50.4123726   3.0371891  82.2608238
  49.0919090   3.7774702  82.2762847  45.1028361  10.3394907  78.1395713
  45.7979266  10.9601600  78.3583028  45.4451511   9.4890259  78.4148091
  30.7196170   2.1612708  91.9992531  29.9777906   2.3095344  92.5857161
  30.3988915   2.4220974  91.1359280  47.0019784   7.7894613  79.6683044
  47.5271108   8.1281886  78.9432364  46.9142137   6.8541628  79.4846179
  38.6639833  11.7028687  91.7972921  38.9726959  11.4577833  92.6695620
  39.4615315  11.9075325  91.3091791  38.6860445  13.8566596  84.0278297
  38.2465435  13.3642975  84.7211154  39.4368562  13.3139564  83.7870372
  31.1652784  10.0478137  84.0302925  31.9910804   9.7481909  83.6501569
  30.8146836   9.2785760  84.4792714  36.1334317   9.4004605  86.1000599
  35.5114326   8.7375310  85.8002827  36.8039184   9.4265737  85.4174247
  29.3661389   7.9664464  84.9891859  28.5293297   7.5386638  84.8075860
  29.3385034   8.1596907  85.9262650  36.2058845  -2.1213607  95.6933105
  36.2547000  -1.2451484  95.3110874  36.7481359  -2.6636214  95.1204748
  46.6913690   8.4227517  94.9734242  45.9009234   8.4051655  94.4338741
  46.4547045   8.9615810  95.7283279  46.8111565   5.2719983  92.2866970
  46.8609570   5.1069990  93.2282493  46.7025489   4.4047242  91.8964851
  35.6947824   7.9508529  79.5759059  35.8435944   8.6343993  78.9225732
  36.5014267   7.9313619  80.0908515  44.1015328   1.2550911  93.6026277
  45.0025190   1.1157376  93.3110275  44.1763302   1.4205366  94.5424455
  38.4358133  -1.3682234  92.4479464  37.5661442  -1.0748668  92.1762052
  38.6717613  -0.7841789  93.1686727  48.3129762   7.6916925  92.5308992
  48.0214570   8.0546905  93.3672453  47.7001893   6.9783933  92.3522324
  49.5125444   5.2569804  85.0511562  50.3472336   5.6959608  85.2149123
  49.6484573   4.7808458  84.2319808  46.5616950   2.8149539  90.9989050
  47.0371072   3.0077185  90.1907901  45.6382516   2.8708725  90.7532434
  33.4500457   3.9773706  80.5820128  33.2046499   3.0736036  80.7800338
  33.6196372   3.9790857  79.6399606  41.1397167  -5.1502617  89.9644884
  41.6579111  -4.4141590  89.6391372  40.7852300  -4.8438624  90.7991643
  32.7196105  -0.2897936  78.0806290  32.0265349  -0.2153581  77.4246326
  32.4747856  -1.0537592  78.6027807  39.1943230  10.4456659  77.0470807
  38.6217197  11.0646846  76.5941279  39.7676023  10.9956021  77.5810729
  45.2618619  -0.3084701  89.2317356  46.2136042  -0.2086603  89.2529580
  45.0922070  -1.1006432  89.7415440  43.2832999  -3.2229118  89.4176757
  42.6882931  -2.9424105  88.7223245  42.9982696  -2.7335217  90.1893498
  42.4140489  10.7293809  78.1779389  43.3471162  10.6639371  78.3812265
  42.3263702  11.5650076  77.7193922  45.0428506  10.0459680  75.1383337
  44.9642138   9.7119543  76.0319095  45.8638173  10.5381448  75.1374809
  47.7406697   2.9121419  88.3459655  47.7083017   1.9737420  88.5319339
  48.3507321   2.9905456  87.6125480  39.5790028   1.7817472  74.3886859
  40.5249133   1.6523680  74.4575277  39.2004273   1.0432134  74.8656287
  47.8901186  -0.2967538  88.3917938  47.3740234  -1.0809081  88.2047867
  48.7741134  -0.6248821  88.5564458  45.5511913  -6.5526522  84.3513751
  45.3536734  -6.8611434  85.2357083  46.1611618  -5.8264883  84.4811681
  53.5583247   3.9737426  87.4865692  54.2886635   3.7122714  88.0473395
  52.9490192   3.2366148  87.5267760  51.6398544   2.1145288  88.0840143
  50.9131708   1.9801253  87.4756635  51.2245831   2.4222117  88.8896861
  39.4628721   5.8335218  95.8487516  40.3831730   6.0113817  96.0427563
  39.4278304   4.8891263  95.6967216  37.7632945  -0.2932552  74.3241745
  36.8564401  -0.5899439  74.4004458  38.0408926  -0.5902734  73.4576031
  32.4590793   3.7436253  88.4910297  32.6776803   4.6753361  88.5098331
  32.8716567   3.3844227  89.2765101  41.3085559  -6.6717615  82.1010282
  41.8616598  -6.2522162  82.7600306  41.5455646  -7.5981867  82.1433238
  37.3318658  -0.6830542  97.8813046  37.2315385   0.2663815  97.8125137
  37.1140200  -1.0112303  97.0089116  36.5331730  -3.4345616  74.4653724
  37.3950894  -3.1090718  74.7249541  36.7182074  -4.2214121  73.9526790
  28.5499146   4.6476723  86.7433913  27.8562617   4.2330676  86.2303867
  29.2972137   4.6897260  86.1467331  44.6864366  -4.5617090  81.6088947
  44.1063035  -3.9032286  81.2266999  44.4200299  -5.3839745  81.1976364
  43.1367933  -5.1612032  83.8110267  43.6367711  -5.0495498  83.0024586
  43.7803541  -5.4650979  84.4511075  37.1949928   2.7466597  96.6978108
  36.7117010   3.5466957  96.9041997  37.2810868   2.7574542  95.7445552
  30.4635888   4.5794977  84.6199927  30.4406576   4.6782664  83.6681810
  30.7736525   5.4260128  84.9417094  33.1223266   6.6371132  88.7346542
  34.0766520   6.6055074  88.6676473  32.9235790   6.1761756  89.5496768
  33.7122648   5.2072248  91.3017339  34.5315537   5.7016327  91.3252177
  33.9859456   4.2904216  91.2734907  43.4689244  -2.4017000  80.6645295
  42.5815099  -2.1167349  80.4465490  43.8843233  -2.5623236  79.8172572
  46.8203780  -2.3770479  84.3799634  47.5964171  -1.8874026  84.6524251
  46.0951915  -1.9512424  84.8371504  49.2576339  -1.6642859  85.4373575
  49.8520830  -1.9047123  84.7266883  49.3302923  -2.3835729  86.0647111
  31.4773495  12.1790752  85.7516740  31.3427963  11.4191152  85.1854738
  31.0605557  12.9031651  85.2845529  42.6132458   7.3627675  74.7593315
  43.3168308   7.5677678  75.3750971  41.8895107   7.9304437  75.0242398
  43.4430268   3.1137536  80.8795585  43.3865469   3.5706088  80.0403218
  43.9958610   2.3528221  80.7018428  47.2535074  -1.0972732  81.7045705
  46.9972008  -1.4976096  82.5353912  46.6287942  -0.3828938  81.5795844
  51.5647412   1.6423341  84.2116996  51.0046970   1.7116531  84.9848558
  50.9590915   1.4664326  83.4916492  34.6342621  13.0760069  85.9635182
  34.5175005  14.0205501  85.8613873  33.8135067  12.7733630  86.3520982
  44.5219155   7.8010204  76.8091775  45.3564759   7.3691403  76.6269250
  44.3603498   7.6292218  77.7368669  44.1765047   4.3042318  78.1748114
  44.1213851   4.1386589  77.2336558  43.5511103   5.0118350  78.3310304
  41.4910955   6.6091229  97.5001677  42.3602114   6.7831882  97.1388312
  41.0117706   7.4285646  97.3777406  35.6597135  13.7288330  89.1791111
  36.5624381  13.7611941  89.4957606  35.4334505  12.7988781  89.1937447
  37.4150737  12.4819317  85.8401189  36.4646368  12.4821179  85.7265562
  37.7183223  11.7352052  85.3237224  53.1503430  18.3179855  86.9046952
  53.7881840  18.1986603  86.2010292  53.0324273  19.2660699  86.9634904
  49.9593137  18.2707283  86.8408476  49.6211648  18.1548348  85.9529011
  50.8282905  17.8698449  86.8209483  45.8179952  20.1242760  82.8305367
  45.2544817  20.0332697  82.0621655  45.7032347  19.3042664  83.3107860
  50.4412920  19.4242135  92.7994682  50.4301560  19.0294933  91.9275186
  50.6033559  18.6908208  93.3928453  43.3644384  21.6193951  85.6689588
  44.1565676  21.2784776  85.2535887  43.6041034  21.7288927  86.5891741
  51.3979511  23.7913728  78.1419832  50.7467491  24.3767808  77.7553846
  52.1923874  24.3219922  78.2014870  45.3235138  20.8802865  78.5406967
  46.0966014  20.3331852  78.4019842  45.6760537  21.7447114  78.7521428
  47.1620181  22.2079247  91.7473866  46.8710047  23.1124878  91.6320532
  47.7977165  22.2495775  92.4617936  48.0876388  19.5856096  88.3375226
  48.6839960  19.3612118  87.6232189  48.1451359  18.8440841  88.9400673
  47.6601416  17.0395531  76.1725417  47.9126937  16.5177052  75.4108880
  46.7225975  16.8761676  76.2752100  52.7044699  16.0431309  83.9800160
  53.4907788  15.6250732  83.6290577  52.9683403  16.9477401  84.1481808
  52.8754776  21.4804160  78.6788817  52.2400609  21.5538786  79.3909721
  52.5452183  22.0697758  78.0007896  58.1053126  15.9806542  84.8833138
  58.8378298  15.4105759  85.1170968  57.3492482  15.5928143  85.3239644
  47.3797705  18.9423637  78.3749792  47.2633963  18.2668540  79.0430876
  47.4899965  18.4556011  77.5581945  49.7229246  18.4033784  82.0796481
  49.3587453  17.8764405  82.7909402  50.5796362  18.0132253  81.9062966
  55.6278546   9.6928117  89.3427747  55.2961871  10.5623527  89.1188962
  55.0324160   9.3764401  90.0221777  49.3634733  13.4323684  77.0757829
  49.5309135  14.3003920  77.4428300  49.1731902  13.5950965  76.1519119
  52.1210066  21.8940662  88.7423660  51.8210789  22.7965701  88.6339467
  51.7761125  21.6272846  89.5944813  45.5722547  18.3454459  84.7760364
  44.6473044  18.2130673  84.9838056  45.8206960  19.1248679  85.2730306
  55.5207210  14.4123203  86.4221097  54.6124087  14.3438611  86.1279858
  55.4694805  14.8895148  87.2502922  49.3423953  15.8881341  78.0604496
  49.2223579  16.3338392  78.8989976  48.6476542  16.2366659  77.5018034
  42.9331358  17.9887733  85.6104153  43.0623739  18.2422212  86.5243565
  42.2528810  18.5815441  85.2908808  47.1030846  28.6584983  81.7094627
  47.0254875  29.6092808  81.7883108  46.4992489  28.3130855  82.3669554
  49.5948075  15.8312848  94.3655994  48.8181409  16.3906768  94.3558859
  50.2338638  16.3169631  94.8870864  57.3868856  12.6139641  88.1998971
  56.7443236  12.9072174  87.5538765  56.8823784  12.4992561  89.0052168
  55.0409020  16.3602814  78.8884830  55.9526876  16.5930201  78.7132528
  54.5318667  16.9439858  78.3259909  47.8494448  18.6398302  93.9273961
  48.5909132  19.1783346  93.6508785  47.1431433  19.2664590  94.0845513
  53.3249787  20.7827442  92.5246123  53.7333143  20.3409853  91.7800755
  52.6027049  20.2080070  92.7780316  49.6780857  15.7200049  89.8979680
  50.5242053  16.1439462  90.0414329  49.6179495  15.0633673  90.5918243
  53.6478602  21.3428633  86.2798412  53.0187464  21.5074347  85.5774479
  53.2604264  21.7570242  87.0509376  57.5267834  22.2783071  83.6342775
  56.8418872  22.6581972  83.0839809  57.6111683  22.8878397  84.3674723
  52.8280303  13.3804417  91.5560853  52.5841235  14.1346478  91.0195129
  53.1040233  13.7589765  92.3908100  54.7818765  19.9243030  90.2338119
  54.9935661  20.5674789  89.5572500  54.7348514  19.0905346  89.7660049
  52.3844994  12.5360850  87.1374691  51.5229473  12.8342104  87.4291429
  52.4107429  12.7531249  86.2055724  49.2006564  21.0803041  83.5448497
  49.6644909  21.3590744  82.7553119  48.9363362  20.1786485  83.3621587
  46.0930645  20.6274522  86.4828260  46.6632002  21.0561791  85.8445744
  46.6838757  20.3457107  87.1812446  48.1375450  17.2026193  80.3538062
  48.8399493  17.6547237  80.8211988  47.8056078  16.5610012  80.9817955
  46.5855811  15.7937950  94.7289271  45.9554472  16.4754231  94.9624668
  46.4791899  15.6821031  93.7842409  41.8800784  15.4609746  85.6555195
  41.0899838  15.7167274  85.1795306  42.3712031  16.2758084  85.7607236
  55.8964593  22.8014985  88.4060476  56.7182037  22.3995172  88.1243158
  55.8926996  22.6983219  89.3576592  43.8315529  15.8254325  82.6138672
  43.0346692  15.9373019  83.1322168  43.6041121  16.1640977  81.7479563
  49.6621197  22.3499028  90.5621187  49.7265629  22.8119436  91.3979359
  48.9532121  21.7196393  90.6903497  40.1638487  15.7140236  88.0870186
  40.4146525  16.5987246  88.3527762  40.6998035  15.5344838  87.3145278
  63.9870586  19.1453733  84.7545448  63.2334295  18.5761132  84.5989452
  64.1218128  19.1116398  85.7016082  49.3769214  24.0167136  80.4300167
  49.2414889  24.8618672  80.8585015  49.9179027  24.2186413  79.6666101
  45.8636554  10.0958716  97.0914522  45.4703500   9.5424914  97.7662167
  46.6802694  10.4069294  97.4821040  42.8298612  21.5342574  81.0028092
  43.3423132  22.3285824  81.1533657  43.4821325  20.8368864  80.9361694
  44.6393497  24.6508330  83.0850845  44.8160125  25.5726295  82.8971829
  45.4350330  24.3366749  83.5145225  48.7804515  11.5116595  94.6834779
  49.5214228  12.1123748  94.6039241  49.0122438  10.7694233  94.1252821
  43.9245853  16.6972962  92.9613009  43.8099368  15.7958219  93.2620107
  43.0690371  16.9436659  92.6097825  51.0037691  24.6390702  94.5600509
  50.5601545  23.8527081  94.2421414  51.6654904  24.8269853  93.8944400
  45.7624812  26.1686504  89.0861188  46.3132237  26.0403567  88.3138182
  44.9236288  26.4681393  88.7356080  53.1018929  24.9193502  92.5881910
  53.0837404  25.7402383  92.0962180  54.0238849  24.7947577  92.8132052
  49.5591983  22.4337632  93.4305419  50.0920320  21.6725920  93.2004727
  49.0306064  22.1411284  94.1729573  52.7261678   7.5397698  88.9599061
  52.3825947   8.4299339  88.8838171  53.0940641   7.3499355  88.0968646
  40.7947529  19.8631228  81.7787663  41.6322751  20.2728237  81.5621370
  40.9725796  18.9230670  81.7487857  52.6911961  17.5306309  77.4671496
  52.1758584  18.3010913  77.7059883  52.4189269  16.8571445  78.0904557
  50.2759072  12.3756010  82.5256734  49.4200668  11.9862860  82.3462373
  50.6886024  12.4547970  81.6656520  51.8058218   9.9102353  86.9248294
  51.3023014   9.8732488  86.1116099  52.0988825  10.8195096  86.9844950
  48.0501104   9.9941083  85.9314476  48.9154101   9.7983891  85.5720365
  48.1178613   9.7651434  86.8583832  57.6646235  20.2838663  79.4024669
  56.8875678  19.9449823  78.9579831  58.3437716  20.2891287  78.7279634
  52.4798264  15.4033401  79.2931277  52.1748400  15.7179550  80.1441420
  53.4328706  15.4814821  79.3358610  50.9244696  21.5623624  80.9424231
  50.3966057  20.8276384  80.6297468  50.4232198  22.3398301  80.6964199
  55.9037542  19.7572645  86.0591277  55.2461216  20.4471906  86.1471406
  56.7077941  20.1469077  86.4025263  45.6563423  12.2243290  83.3030842
  46.2307175  12.0018472  82.5704035  46.2434406  12.2931985  84.0559444
  54.7143001  18.1117017  84.1095219  55.2274882  18.7447009  84.6116929
  55.3644224  17.5118213  83.7438579  45.9833010  14.2547752  77.3226728
  45.1470323  14.5922438  77.6436002  45.8437780  14.1196731  76.3853865
  47.9586091   9.0984539  82.0305912  47.3050503   8.7833557  81.4062527
  47.9166565   8.4760280  82.7565735  49.0697296  19.3803834  73.9459204
  48.1624358  19.1493088  74.1450353  49.5668328  18.5841454  74.1333185
  51.9765375  28.0901342  76.8655890  51.3027074  28.3933038  77.4740848
  52.3631197  28.8930422  76.5161347  51.1923831  15.5866473  86.3553559
  50.2746393  15.8081420  86.1975247  51.6083975  15.6612783  85.4965267
  51.9758879  16.9857889  81.4856240  52.7230698  17.4979286  81.1763362
  52.2450469  16.6641941  82.3460633  50.2485529  19.4816429  78.4683194
  49.3396749  19.1975462  78.5655664  50.2780613  19.9015508  77.6086501
  55.4804797  23.0923019  82.2374362  55.0267124  22.2513929  82.2939552
  54.8498764  23.7284417  82.5749142  54.4237716  14.0215005  83.4675029
  53.6860473  13.5092391  83.7985272  54.6764490  13.5815386  82.6558306
  53.9237736  24.9299516  83.1724180  54.2160710  25.4904573  82.4536545
  54.4336357  25.2228077  83.9277339  54.5249344   6.7991257  84.0616798
  54.8308220   5.9388620  83.7742713  55.2501949   7.3908877  83.8615792
  40.8173700  17.2021943  82.4498396  40.6198100  16.6091304  81.7249463
  40.2620364  16.8974154  83.1674335  48.7970423  17.0945050  84.5692989
  48.8519033  16.1418886  84.4935466  47.9861625  17.2504489  85.0534288
  49.9461617  21.0225173  75.8071273  49.5081047  20.3061032  75.3476910
  50.6872058  21.2501288  75.2456364  46.7362783  15.7122110  82.3283368
  45.9230649  16.0116280  82.7348560  47.2321778  15.3177798  83.0457850
  48.8871361  25.7079867  84.2617633  48.8447540  25.9340713  83.3326165
  49.8034060  25.4743241  84.4103434  52.3336995  16.1763934  91.1598262
  52.6886383  16.4035407  92.0192728  52.9809126  16.5082311  90.5375517
  58.0634732  19.2982370  81.8647591  57.9252631  19.4883966  80.9368780
  57.7070951  20.0601753  82.3215642  46.2276858  13.2840465  87.9444603
  46.8676237  13.1429224  87.2467566  45.3954389  12.9974979  87.5683205
  58.0904112  21.3658897  86.8758863  58.5240618  21.2734186  87.7241917
  58.8035692  21.3416398  86.2378879  47.0037162  22.5842896  84.0579596
  47.7977761  22.0893216  83.8562171  46.2928854  22.0560759  83.6947301
  51.8232006  24.9660991  88.4091963  51.8769029  25.5351927  89.1769679
  50.9546788  25.1362876  88.0446000  43.3119925  16.7285977  80.1339348
  42.3817514  16.6670433  80.3509310  43.4077397  16.2061930  79.3375990
  43.2305475  13.2540790  82.7217590  43.4912292  14.1686123  82.6126750
  44.0522647  12.7865233  82.8714203  44.7030400  14.6678547  89.8916414
  45.3753453  14.4595909  89.2429063  43.8760186  14.4700633  89.4521647
  58.9519661  21.4082598  89.4091748  59.1455551  22.3128408  89.6551023
  58.8520279  20.9490017  90.2430333  50.6055972  11.2940488  91.9082075
  49.9583887  11.9930438  91.8146552  51.3756987  11.7276632  92.2758324
  54.0134770  21.5589340  94.9832629  53.8620276  21.3299892  94.0662712
  54.0039449  22.5159942  94.9963974  50.7820106  19.1321253  89.9678895
  51.7112166  19.2832413  89.7947862  50.3611136  19.2205274  89.1127542
  49.5808438  23.1571918  87.7377433  49.4419524  22.7890702  88.6103371
  48.7923034  23.6719557  87.5661390  50.1756590  28.2581014  79.0802969
  50.3508346  27.7869057  79.8948592  49.4889378  28.8846780  79.3084230
  51.1313653  22.5353520  85.1266270  50.7963486  22.4954290  86.0223920
  50.6317599  21.8698236  84.6536681  45.1057897  17.9421150  90.6518852
  44.9677695  17.2101389  91.2530391  46.0162821  17.8530050  90.3703039
  54.0672845  19.8809555  75.4003330  53.4502015  19.1556383  75.3036383
  53.5989333  20.6418915  75.0570404  47.7340198  17.6541110  90.1402531
  48.4439816  17.0134302  90.0989150  47.6909506  17.9054005  91.0628712
  55.7226976  24.5908463  93.0609110  55.6639523  23.9067683  92.3939693
  56.1246495  25.3327453  92.6089736  46.4469132  14.6406328  91.9598171
  45.9106489  14.1897066  92.6119767  45.8585840  14.7752236  91.2168635
  44.7417675  31.4070377  85.8542829  44.9814273  32.0388901  86.5321848
  43.8986872  31.0558417  86.1408189  45.8571391  14.0994979  74.5224634
  44.9800857  13.9783780  74.1586881  46.3329144  13.3081057  74.2703523
  55.7244384  22.5548047  91.2923090  54.8371162  22.2173969  91.4149489
  56.2942935  21.8231078  91.5291856  37.3773531  18.8872139  84.6166142
  38.0644571  18.5733869  84.0287157  37.2221660  19.7913503  84.3433393
  42.1808253  13.7762335  89.0451165  42.0966442  13.1688005  88.3101575
  41.3590959  14.2671354  89.0460662  49.2545537  27.2149499  88.2584333
  49.1815709  28.0204471  88.7703638  48.8122930  27.4141465  87.4332355
  49.0435317  26.4521269  81.7687155  48.2602839  26.9942950  81.8625379
  49.7428062  26.9695249  82.1681396  52.3531967  12.2615899  84.4121360
  52.8500666  11.5085861  84.0922431  51.5818948  12.2980215  83.8464570
  60.2061724  17.9656264  86.0539652  60.1951601  18.8480980  85.6833585
  59.3379104  17.6127815  85.8594189  51.7144221  27.1136333  90.4142492
  52.4272193  27.7483798  90.3418393  51.2234249  27.2100199  89.5982494
  53.4361748  21.0187586  81.9859784  52.5018026  21.1389048  81.8164488
  53.6138416  20.1160053  81.7219794  48.9366936  14.4033282  84.1393045
  48.5664723  13.8504322  84.8273950  49.4326028  13.7991415  83.5868045
  56.8234299  16.8604905  82.5209818  57.2894751  17.6932897  82.4470120
  57.2741799  16.3949887  83.2255076  46.7656134  24.8630777  91.2348063
  47.4665594  25.4967260  91.3877457  46.2951249  25.2045508  90.4743702
  54.8910530  23.2048727  79.5195970  55.1670374  23.0905321  80.4289844
  54.0215029  22.8066211  79.4808143  54.7950962   9.2285492  86.5600719
  53.8814041   9.4589719  86.7282926  55.2244063   9.3123936  87.4114752
  54.5657420  17.4175384  89.0600613  53.9128870  17.6651292  88.4053066
  54.9437800  16.6039522  88.7263090  51.5264594  27.4535077  83.1628783
  51.7086989  26.6356733  83.6256536  52.3497580  27.6702770  82.7253673
  51.8606760  26.3803263  80.4243832  52.3894526  25.8695717  79.8113994
  52.1234979  26.0645793  81.2889365  50.6144993  18.1595195  95.5466650
  49.9385630  18.0589325  96.2169025  51.4372627  18.0034409  96.0102647
  42.3623852  24.3967132  88.1679165  42.9477289  23.6510820  88.3007070
  42.1648691  24.7071089  89.0515829  45.2162507  27.4318379  83.1841608
  44.5472883  27.9164507  82.7005648  45.0775377  27.6787600  84.0984986
  36.9541507  16.9672732  86.8883609  36.9925606  16.4336323  87.6820727
  36.4481800  16.4407938  86.2694586  49.3567776  29.4662123  89.7824266
  49.9086084  29.6293744  90.5473351  49.6973970  30.0566561  89.1104291
  44.3332269  11.8137273  90.3846151  44.3973596  12.6752103  89.9723549
  44.2699390  11.2011274  89.6518509  43.8084542  13.8860405  94.0319185
  44.4356581  13.5037482  94.6456710  42.9512461  13.6674607  94.3974878
  54.2078650  24.2923380  95.6372921  54.7518554  24.9053339  95.1427875
  53.6265495  24.8502959  96.1539934  40.5850085  15.6936834  79.9637540
  40.8803526  14.7847513  79.9104594  39.6838120  15.6724574  79.6418542
  52.4936163  27.4144098  86.7687948  52.3687303  26.6133838  86.2598894
  53.1515254  27.9090292  86.2801918  44.1144332  13.7692831  85.9465089
  43.3930917  14.3828798  85.8072562  44.9037587  14.3050596  85.8681735
  54.5571072  25.2153118  88.3967498  53.6101407  25.0958470  88.3245825
  54.9053845  24.3275616  88.4793760  46.9170645  11.1047257  92.2205740
  47.4405047  11.3509554  92.9832050  46.6982978  11.9367292  91.8008878
  42.3137926  13.3750932  80.0876865  41.9850632  12.4948311  79.9051971
  42.6677297  13.3198601  80.9753254  51.5617505  25.0105835  84.5971851
  51.4142467  24.0822542  84.7779421  52.3870999  25.0325925  84.1128926
  45.4279749  13.6623902  80.4552343  45.7675822  14.1909823  79.7330951
  45.8751870  14.0004308  81.2310909  55.1651627  25.8334393  85.6836723
  56.0898174  25.6277255  85.5461175  54.9966930  25.5850794  86.5926065
  48.1223190  12.0460952  89.9055411  47.7820010  11.2468765  90.3076091
  47.4162196  12.3462663  89.3332244  48.7739662   9.1310265  88.3582734
  49.5965731   8.6570743  88.2361624  49.0177725   9.9100749  88.8581420
  47.4147896  12.1598523  78.6545636  48.1356259  12.5379776  78.1509352
  46.7913201  12.8787400  78.7580614  51.5579019  12.8643672  79.5903968
  51.7742634  13.7468310  79.2892796  51.0773086  12.4729886  78.8609610
  46.2978241  15.8229385  86.1674713  46.1522821  16.1369689  87.0598994
  45.8203444  16.4414286  85.6145611  48.1574624  12.8131933  86.2155602
  48.1436192  11.9173027  85.8787900  48.8747052  12.8202597  86.8493888
  50.0100754  13.2469274  88.2608730  49.7518532  14.1686344  88.2593060
  49.4785795  12.8499708  88.9509194  54.9546943  26.3520061  81.0398815
  55.1283821  25.7866483  80.2872667  55.4475834  27.1520956  80.8578305
  40.7723903  18.3634730  89.1062374  40.2277371  19.1394538  89.2382648
  41.6503253  18.7105534  88.9481495  47.5611520  11.6946314  81.4843172
  47.6827431  10.7662960  81.6834060  47.2713562  11.7085000  80.5721488
  50.4302710   9.3801224  84.6209892  50.4524407   9.4440557  83.6661872
  50.8470769   8.5405733  84.8150398  60.8086334  19.1156484  82.6589115
  61.2517480  18.3663809  82.2608238  59.9312845  19.1066620  82.2762847
  55.9422116  25.6686825  78.1395713  56.6373020  26.2893518  78.3583028
  56.2845266  24.8182176  78.4148091  41.5589925  17.4904626  91.9992531
  40.8171661  17.6387261  92.5857161  41.2382669  17.7512892  91.1359280
  57.8413539  23.1186531  79.6683044  58.3664863  23.4573803  78.9432364
  57.7535891  22.1833546  79.4846179  49.5033587  27.0320604  91.7972921
  49.8120714  26.7869751  92.6695620  50.3009069  27.2367243  91.3091791
  49.5254199  29.1858514  84.0278297  49.0859190  28.6934893  84.7211154
  50.2762316  28.6431482  83.7870372  42.0046538  25.3770055  84.0302925
  42.8304558  25.0773827  83.6501569  41.6540590  24.6077677  84.4792714
  46.9728072  24.7296523  86.1000599  46.3508081  24.0667228  85.8002827
  47.6432938  24.7557655  85.4174247  40.2055143  23.2956381  84.9891859
  39.3687052  22.8678556  84.8075860  40.1778789  23.4888825  85.9262650
  47.0452599  13.2078311  95.6933105  47.0940755  14.0840434  95.3110874
  47.5875113  12.6655704  95.1204748  57.5307445  23.7519434  94.9734242
  56.7402988  23.7343573  94.4338741  57.2940799  24.2907728  95.7283279
  57.6505320  20.6011901  92.2866970  57.7003325  20.4361908  93.2282493
  57.5419243  19.7339160  91.8964851  46.5341578  23.2800446  79.5759059
  46.6829699  23.9635911  78.9225732  47.3408022  23.2605536  80.0908515
  54.9409082  16.5842829  93.6026277  55.8418945  16.4449294  93.3110275
  55.0157057  16.7497284  94.5424455  49.2751888  13.9609683  92.4479464
  48.4055197  14.2543250  92.1762052  49.5111368  14.5450128  93.1686727
  59.1523517  23.0208842  92.5308992  58.8608325  23.3838823  93.3672453
  58.5395648  22.3075850  92.3522324  60.3519199  20.5861722  85.0511562
  61.1866090  21.0251526  85.2149123  60.4878328  20.1100375  84.2319808
  57.4010705  18.1441457  90.9989050  57.8764826  18.3369103  90.1907901
  56.4776270  18.2000643  90.7532434  44.2894211  19.3065624  80.5820128
  44.0440253  18.4027954  80.7800338  44.4590126  19.3082774  79.6399606
  51.9790921  10.1789300  89.9644884  52.4972865  10.9150327  89.6391372
  51.6246054  10.4853294  90.7991643  43.5589859  15.0393982  78.0806290
  42.8659104  15.1138337  77.4246326  43.3141611  14.2754325  78.6027807
  52.2303516   6.5989583  85.4845780  52.5105269   5.9312772  86.1106207
  53.0154122   6.7918679  84.9720444  50.0336984  25.7748577  77.0470807
  49.4610951  26.3938764  76.5941279  50.6069778  26.3247939  77.5810729
  56.1012374  15.0207217  89.2317356  57.0529797  15.1205315  89.2529580
  55.9315824  14.2285485  89.7415440  54.1226753  12.1062800  89.4176757
  53.5276685  12.3867813  88.7223245  53.8376450  12.5956701  90.1893498
  53.2534244  26.0585727  78.1779389  54.1864917  25.9931289  78.3812265
  53.1657457  26.8941994  77.7193922  55.8822260  25.3751597  75.1383337
  55.8035892  25.0411461  76.0319095  56.7031927  25.8673365  75.1374809
  58.5800452  18.2413337  88.3459655  58.5476772  17.3029337  88.5319339
  59.1901075  18.3197373  87.6125480  50.4183783  17.1109390  74.3886859
  51.3642887  16.9815598  74.4575277  50.0398027  16.3724051  74.8656287
  58.7294940  15.0324380  88.3917938  58.2133989  14.2482837  88.2047867
  59.6134889  14.7043097  88.5564458  56.3905667   8.7765396  84.3513751
  56.1930488   8.4680484  85.2357083  57.0005373   9.5027035  84.4811681
  64.3977001  19.3029343  87.4865692  65.1280390  19.0414632  88.0473395
  63.7883947  18.5658065  87.5267760  62.4792299  17.4437206  88.0840143
  61.7525462  17.3093171  87.4756635  62.0639585  17.7514035  88.8896861
  50.3022475  21.1627136  95.8487516  51.2225485  21.3405735  96.0427563
  50.2672058  20.2183181  95.6967216  48.6026700  15.0359366  74.3241745
  47.6958155  14.7392479  74.4004458  48.8802681  14.7389184  73.4576031
  39.5204640  16.3565729  84.7740791  39.2007424  15.5031038  84.4815165
  38.9738068  16.5714308  85.5298758  43.2984548  19.0728170  88.4910297
  43.5170557  20.0045278  88.5098331  43.7110321  18.7136145  89.2765101
  50.2188765   9.5796256  80.4785986  49.4089494   9.2343341  80.8541232
  50.9073182   9.2703799  81.0673597  52.1479314   8.6574303  82.1010282
  52.7010352   9.0769756  82.7600306  52.3849400   7.7310051  82.1433238
  48.1712413  14.6461376  97.8813046  48.0709140  15.5955733  97.8125137
  47.9533955  14.3179615  97.0089116  47.3725484  11.8946301  74.4653724
  48.2344648  12.2201200  74.7249541  47.5575828  11.1077797  73.9526790
  39.3892900  19.9768641  86.7433913  38.6956371  19.5622594  86.2303867
  40.1365891  20.0189177  86.1467331  55.5258121  10.7674828  81.6088947
  54.9456790  11.4259632  81.2266999  55.2594053   9.9452172  81.1976364
  53.9761687  10.1679885  83.8110267  54.4761465  10.2796420  83.0024586
  54.6197295   9.8640938  84.4511075  48.0343683  18.0758515  96.6978108
  47.5510765  18.8758875  96.9041997  48.1204622  18.0866460  95.7445552
  41.3029643  19.9086895  84.6199927  41.2800331  20.0074582  83.6681810
  41.6130279  20.7552045  84.9417094  43.9617020  21.9663050  88.7346542
  44.9160274  21.9346992  88.6676473  43.7629544  21.5053673  89.5496768
  44.5516403  20.5364166  91.3017339  45.3709292  21.0308244  91.3252177
  44.8253210  19.6196134  91.2734907  54.3082999  12.9274918  80.6645295
  53.4208854  13.2124569  80.4465490  54.7236988  12.7668681  79.8172572
  57.6597535  12.9521439  84.3799634  58.4357925  13.4417891  84.6524251
  56.9345669  13.3779493  84.8371504  60.0970094  13.6649058  85.4373575
  60.6914584  13.4244794  84.7266883  60.1696677  12.9456189  86.0647111
  42.3167249  27.5082669  85.7516740  42.1821717  26.7483070  85.1854738
  41.8999312  28.2323569  85.2845529  53.4526212  22.6919593  74.7593315
  54.1562062  22.8969595  75.3750971  52.7288861  23.2596355  75.0242398
  54.2824023  18.4429454  80.8795585  54.2259224  18.8998005  80.0403218
  54.8352365  17.6820139  80.7018428  58.0928828  14.2319186  81.7045705
  57.8365763  13.8315822  82.5353912  57.4681696  14.9462980  81.5795844
  62.4041166  16.9715259  84.2116996  61.8440724  17.0408448  84.9848558
  61.7984670  16.7956244  83.4916492  45.4736375  28.4051986  85.9635182
  45.3568759  29.3497419  85.8613873  44.6528821  28.1025548  86.3520982
  55.3612910  23.1302122  76.8091775  56.1958514  22.6983320  76.6269250
  55.1997253  22.9584136  77.7368669  55.0158802  19.6334235  78.1748114
  54.9607606  19.4678507  77.2336558  54.3904857  20.3410268  78.3310304
  39.8051317  14.8702300  92.0009537  40.4510180  14.3601254  92.4896762
  39.5968468  15.6070981  92.5752962  52.3304709  21.9383147  97.5001677
  53.1995869  22.1123799  97.1388312  51.8511460  22.7577564  97.3777406
  48.3254927   9.1342344  77.7533433  48.3133597  10.0784184  77.9101704
  49.2178349   8.9512490  77.4592894  46.4990889  29.0580248  89.1791111
  47.4018136  29.0903858  89.4957606  46.2728259  28.1280699  89.1937447
  48.2544491  27.8111235  85.8401189  47.3040122  27.8113096  85.7265562
  48.5576977  27.0643969  85.3237224  52.1407047   5.7285121  82.0079370
  51.3739443   5.1743608  82.1536052  52.5517752   5.8006990  82.8693521
  44.1448808  12.0169917  96.0984551  45.0080269  11.6606722  96.3087875
  43.5714218  11.6783811  96.7859955  63.9897185  33.6471773  86.9046952
  64.6275595  33.5278520  86.2010292  63.8718028  34.5952617  86.9634904
  60.7986891  33.5999201  86.8408476  60.4605403  33.4840266  85.9529011
  61.6676659  33.1990366  86.8209483  56.6573707  35.4534678  82.8305367
  56.0938572  35.3624614  82.0621655  56.5426102  34.6334582  83.3107860
  61.2806674  34.7534053  92.7994682  61.2695315  34.3586851  91.9275186
  61.4427313  34.0200125  93.3928453  54.2038139  36.9485869  85.6689588
  54.9959431  36.6076694  85.2535887  54.4434789  37.0580844  86.5891741
  56.1628893  36.2094782  78.5406967  56.9359769  35.6623769  78.4019842
  56.5154291  37.0739032  78.7521428  58.0013935  37.5371165  91.7473866
  57.7103801  38.4416796  91.6320532  58.6370920  37.5787692  92.4617936
  58.9270142  34.9148013  88.3375226  59.5233714  34.6904036  87.6232189
  58.9845114  34.1732759  88.9400673  58.4995170  32.3687449  76.1725417
  58.7520691  31.8468970  75.4108880  57.5619730  32.2053594  76.2752100
  63.5438453  31.3723227  83.9800160  64.3301542  30.9542650  83.6290577
  63.8077158  32.2769319  84.1481808  63.7148531  36.8096077  78.6788817
  63.0794364  36.8830704  79.3909721  63.3845937  37.3989676  78.0007896
  68.9446880  31.3098460  84.8833138  69.6772052  30.7397677  85.1170968
  68.1886236  30.9220061  85.3239644  58.2191459  34.2715554  78.3749792
  58.1027717  33.5960458  79.0430876  58.3293719  33.7847928  77.5581945
  60.5623000  33.7325702  82.0796481  60.1981207  33.2056323  82.7909402
  61.4190116  33.3424171  81.9062966  66.4672301  25.0220034  89.3427747
  66.1355625  25.8915445  89.1188962  65.8717914  24.7056318  90.0221777
  60.2028487  28.7615601  77.0757829  60.3702889  29.6295838  77.4428300
  60.0125656  28.9242883  76.1519119  56.4116302  33.6746377  84.7760364
  55.4866798  33.5422591  84.9838056  56.6600715  34.4540596  85.2730306
  66.3600964  29.7415120  86.4221097  65.4517841  29.6730529  86.1279858
  66.3088560  30.2187065  87.2502922  60.1817708  31.2173259  78.0604496
  60.0617333  31.6630310  78.8989976  59.4870296  31.5658576  77.5018034
  53.7725113  33.3179651  85.6104153  53.9017494  33.5714129  86.5243565
  53.0922564  33.9107359  85.2908808  60.4341830  31.1604766  94.3655994
  59.6575164  31.7198686  94.3558859  61.0732393  31.6461549  94.8870864
  68.2262610  27.9431559  88.1998971  67.5836991  28.2364092  87.5538765
  67.7217539  27.8284479  89.0052168  65.8802774  31.6894732  78.8884830
  66.7920630  31.9222119  78.7132528  65.3712421  32.2731776  78.3259909
  58.6888202  33.9690219  93.9273961  59.4302886  34.5075263  93.6508785
  57.9825188  34.5956508  94.0845513  60.5174612  31.0491967  89.8979680
  61.3635807  31.4731380  90.0414329  60.4573249  30.3925591  90.5918243
  68.3661588  37.6074988  83.6342775  67.6812626  37.9873890  83.0839809
  68.4505438  38.2170315  84.3674723  63.6674057  28.7096335  91.5560853
  63.4234989  29.4638395  91.0195129  63.9433988  29.0881683  92.3908100
  63.2238749  27.8652768  87.1374691  62.3623228  28.1634021  87.4291429
  63.2501184  28.0823167  86.2055724  60.0400318  36.4094958  83.5448497
  60.5038664  36.6882661  82.7553119  59.7757116  35.5078403  83.3621587
  56.9324399  35.9566440  86.4828260  57.5025756  36.3853708  85.8445744
  57.5232511  35.6749025  87.1812446  58.9769204  32.5318111  80.3538062
  59.6793248  32.9839155  80.8211988  58.6449833  31.8901930  80.9817955
  57.4249566  31.1229867  94.7289271  56.7948226  31.8046148  94.9624668
  57.3185654  31.0112949  93.7842409  52.7194538  30.7901664  85.6555195
  51.9293592  31.0459192  85.1795306  53.2105786  31.6050001  85.7607236
  54.6709284  31.1546243  82.6138672  53.8740447  31.2664937  83.1322168
  54.4434876  31.4932895  81.7479563  51.0032241  31.0432154  88.0870186
  51.2540280  31.9279164  88.3527762  51.5391790  30.8636755  87.3145278
  74.8264341  34.4745651  84.7545448  74.0728049  33.9053049  84.5989452
  74.9611882  34.4408316  85.7016082  56.7030309  25.4250633  97.0914522
  56.3097254  24.8716832  97.7662167  57.5196449  25.7361212  97.4821040
  53.6692366  36.8634492  81.0028092  54.1816887  37.6577742  81.1533657
  54.3215079  36.1660782  80.9361694  55.4787251  39.9800248  83.0850845
  55.6553879  40.9018212  82.8971829  56.2744085  39.6658667  83.5145225
  59.6198270  26.8408512  94.6834779  60.3607983  27.4415666  94.6039241
  59.8516192  26.0986150  94.1252821  54.7639608  32.0264880  92.9613009
  54.6493123  31.1250137  93.2620107  53.9084125  32.2728576  92.6097825
  60.3985738  37.7629549  93.4305419  60.9314074  37.0017838  93.2004727
  59.8699819  37.4703201  94.1729573  63.5655433  22.8689615  88.9599061
  63.2219702  23.7591257  88.8838171  63.9334395  22.6791273  88.0968646
  51.6341283  35.1923146  81.7787663  52.4716505  35.6020154  81.5621370
  51.8119551  34.2522588  81.7487857  63.5305715  32.8598226  77.4671496
  63.0152339  33.6302831  77.7059883  63.2583024  32.1863363  78.0904557
  61.1152826  27.7047927  82.5256734  60.2594423  27.3154778  82.3462373
  61.5279778  27.7839888  81.6656520  62.6451973  25.2394271  86.9248294
  62.1416769  25.2024406  86.1116099  62.9382580  26.1487013  86.9844950
  58.8894859  25.3233000  85.9314476  59.7547856  25.1275809  85.5720365
  58.9572368  25.0943352  86.8583832  63.3192018  30.7325319  79.2931277
  63.0142154  31.0471468  80.1441420  64.2722461  30.8106738  79.3358610
  56.4957178  27.5535208  83.3030842  57.0700930  27.3310390  82.5704035
  57.0828160  27.6223903  84.0559444  65.5536755  33.4408935  84.1095219
  66.0668637  34.0738927  84.6116929  66.2037979  32.8410131  83.7438579
  56.8226765  29.5839669  77.3226728  55.9864077  29.9214356  77.6436002
  56.6831535  29.4488649  76.3853865  58.7979846  24.4276457  82.0305912
  58.1444258  24.1125474  81.4062527  58.7560320  23.8052198  82.7565735
  59.9091050  34.7095752  73.9459204  59.0018112  34.4785006  74.1450353
  60.4062082  33.9133371  74.1333185  62.0317586  30.9158391  86.3553559
  61.1140147  31.1373338  86.1975247  62.4477730  30.9904701  85.4965267
  62.8152634  32.3149806  81.4856240  63.5624453  32.8271204  81.1763362
  63.0844223  31.9933859  82.3460633  61.0879284  34.8108347  78.4683194
  60.1790503  34.5267380  78.5655664  61.1174368  35.2307426  77.6086501
  65.2631471  29.3506923  83.4675029  64.5254228  28.8384309  83.7985272
  65.5158244  28.9107304  82.6558306  65.3643098  22.1283175  84.0616798
  65.6701975  21.2680538  83.7742713  66.0895703  22.7200795  83.8615792
  51.6567454  32.5313861  82.4498396  51.4591854  31.9383222  81.7249463
  51.1014118  32.2266071  83.1674335  59.6364178  32.4236968  84.5692989
  59.6912788  31.4710804  84.4935466  58.8255380  32.5796407  85.0534288
  60.7855372  36.3517091  75.8071273  60.3474802  35.6352950  75.3476910
  61.5265813  36.5793205  75.2456364  57.5756538  31.0414027  82.3283368
  56.7624403  31.3408198  82.7348560  58.0715532  30.6469716  83.0457850
  63.1730750  31.5055852  91.1598262  63.5280137  31.7327325  92.0192728
  63.8202881  31.8374229  90.5375517  68.9028486  34.6274288  81.8647591
  68.7646385  34.8175884  80.9368780  68.5464705  35.3893671  82.3215642
  57.0670613  28.6132383  87.9444603  57.7069992  28.4721142  87.2467566
  56.2348143  28.3266896  87.5683205  57.8430917  37.9134813  84.0579596
  58.6371515  37.4185133  83.8562171  57.1322609  37.3852676  83.6947301
  54.1513680  32.0577895  80.1339348  53.2211268  31.9962351  80.3509310
  54.2471152  31.5353848  79.3375990  54.0699229  28.5832708  82.7217590
  54.3306046  29.4978041  82.6126750  54.8916401  28.1157150  82.8714203
  55.5424154  29.9970465  89.8916414  56.2147208  29.7887827  89.2429063
  54.7153941  29.7992551  89.4521647  69.7913416  36.7374515  89.4091748
  69.9849306  37.6420326  89.6551023  69.6914034  36.2781934  90.2430333
  61.4449726  26.6232406  91.9082075  60.7977641  27.3222356  91.8146552
  62.2150742  27.0568550  92.2758324  61.6213861  34.4613171  89.9678895
  62.5505921  34.6124330  89.7947862  61.2004891  34.5497192  89.1127542
  55.9451652  33.2713068  90.6518852  55.8071450  32.5393307  91.2530391
  56.8556575  33.1821968  90.3703039  64.9066599  35.2101472  75.4003330
  64.2895770  34.4848300  75.3036383  64.4383088  35.9710833  75.0570404
  58.5733952  32.9833027  90.1402531  59.2833571  32.3426220  90.0989150
  58.5303260  33.2345922  91.0628712  57.2862886  29.9698245  91.9598171
  56.7500243  29.5188984  92.6119767  56.6979595  30.1044154  91.2168635
  56.6965145  29.4286897  74.5224634  55.8194612  29.3075697  74.1586881
  57.1722898  28.6372975  74.2703523  48.2167285  34.2164056  84.6166142
  48.9038325  33.9025786  84.0287157  48.0615414  35.1205421  84.3433393
  53.0202007  29.1054253  89.0451165  52.9360196  28.4979922  88.3101575
  52.1984714  29.5963271  89.0460662  63.1925721  27.5907816  84.4121360
  63.6894421  26.8377779  84.0922431  62.4212703  27.6272133  83.8464570
  71.0455479  33.2948182  86.0539652  71.0345355  34.1772897  85.6833585
  70.1772858  32.9419733  85.8594189  64.2755502  36.3479504  81.9859784
  63.3411781  36.4680966  81.8164488  64.4532171  35.4451970  81.7219794
  59.7760690  29.7325199  84.1393045  59.4058478  29.1796240  84.8273950
  60.2719783  29.1283333  83.5868045  67.6628053  32.1896823  82.5209818
  68.1288506  33.0224815  82.4470120  68.1135554  31.7241805  83.2255076
  57.6049889  40.1922694  91.2348063  58.3059348  40.8259177  91.3877457
  57.1345004  40.5337426  90.4743702  65.6344716  24.5577410  86.5600719
  64.7207796  24.7881637  86.7282926  66.0637818  24.6415854  87.4114752
  65.4051175  32.7467302  89.0600613  64.7522625  32.9943209  88.4053066
  65.7831555  31.9331440  88.7263090  61.4538748  33.4887113  95.5466650
  60.7779385  33.3881242  96.2169025  62.2766382  33.3326327  96.0102647
  53.2017607  39.7259049  88.1679165  53.7871044  38.9802737  88.3007070
  53.0042445  40.0363006  89.0515829  56.0556262  42.7610297  83.1841608
  55.3866637  43.2456425  82.7005648  55.9169132  43.0079517  84.0984986
  47.7935261  32.2964650  86.8883609  47.8319361  31.7628240  87.6820727
  47.2875554  31.7699855  86.2694586  55.1726024  27.1429190  90.3846151
  55.2367350  28.0044021  89.9723549  55.1093144  26.5303192  89.6518509
  54.6478296  29.2152323  94.0319185  55.2750335  28.8329400  94.6456710
  53.7906215  28.9966525  94.3974878  51.4243839  31.0228752  79.9637540
  51.7197280  30.1139430  79.9104594  50.5231875  31.0016491  79.6418542
  54.9538086  29.0984748  85.9465089  54.2324672  29.7120716  85.8072562
  55.7431342  29.6342513  85.8681735  57.7564400  26.4339175  92.2205740
  58.2798801  26.6801471  92.9832050  57.5376733  27.2659210  91.8008878
  53.1531681  28.7042850  80.0876865  52.8244387  27.8240228  79.9051971
  53.5071051  28.6490518  80.9753254  56.2673504  28.9915819  80.4552343
  56.6069576  29.5201741  79.7330951  56.7145624  29.3296225  81.2310909
  58.9616945  27.3752870  89.9055411  58.6213765  26.5760683  90.3076091
  58.2555951  27.6754581  89.3332244  59.6133416  24.4602182  88.3582734
  60.4359486  23.9862661  88.2361624  59.8571480  25.2392666  88.8581420
  58.2541651  27.4890441  78.6545636  58.9750013  27.8671694  78.1509352
  57.6306955  28.2079318  78.7580614  62.3972774  28.1935590  79.5903968
  62.6136388  29.0760228  79.2892796  61.9166841  27.8021803  78.8609610
  57.1371995  31.1521303  86.1674713  56.9916576  31.4661606  87.0598994
  56.6597199  31.7706203  85.6145611  58.9968378  28.1423851  86.2155602
  58.9829947  27.2464944  85.8787900  59.7140806  28.1494515  86.8493888
  60.8494509  28.5761191  88.2608730  60.5912287  29.4978262  88.2593060
  60.3179549  28.1791626  88.9509194  51.6117657  33.6926648  89.1062374
  51.0671125  34.4686455  89.2382648  52.4897007  34.0397452  88.9481495
  58.4005274  27.0238231  81.4843172  58.5221185  26.0954878  81.6834060
  58.1107316  27.0376917  80.5721488  61.2696464  24.7093142  84.6209892
  61.2918161  24.7732475  83.6661872  61.6864523  23.8697650  84.8150398
  71.6480089  34.4448401  82.6589115  72.0911235  33.6955727  82.2608238
  70.7706599  34.4358538  82.2762847  52.3983679  32.8196544  91.9992531
  51.6565415  32.9679179  92.5857161  52.0776424  33.0804809  91.1359280
  52.8440293  40.7061972  84.0302925  53.6698313  40.4065744  83.6501569
  52.4934345  39.9369595  84.4792714  51.0448898  38.6248299  84.9891859
  50.2080806  38.1970473  84.8075860  51.0172543  38.8180742  85.9262650
  57.8846354  28.5370229  95.6933105  57.9334509  29.4132352  95.3110874
  58.4268868  27.9947622  95.1204748  68.4899074  35.9303818  92.2866970
  68.5397079  35.7653826  93.2282493  68.3812998  35.0631077  91.8964851
  57.3735333  38.6092364  79.5759059  57.5223453  39.2927828  78.9225732
  58.1801776  38.5897454  80.0908515  65.7802837  31.9134746  93.6026277
  66.6812699  31.7741211  93.3110275  65.8550811  32.0789201  94.5424455
  60.1145642  29.2901601  92.4479464  59.2448951  29.5835167  92.1762052
  60.3505122  29.8742046  93.1686727  69.9917271  38.3500760  92.5308992
  69.7002079  38.7130740  93.3672453  69.3789402  37.6367768  92.3522324
  71.1912953  35.9153640  85.0511562  72.0259845  36.3543444  85.2149123
  71.3272082  35.4392293  84.2319808  68.2404459  33.4733375  90.9989050
  68.7158581  33.6661021  90.1907901  67.3170025  33.5292560  90.7532434
  55.1287966  34.6357542  80.5820128  54.8834008  33.7319872  80.7800338
  55.2983880  34.6374692  79.6399606  62.8184676  25.5081218  89.9644884
  63.3366620  26.2442245  89.6391372  62.4639809  25.8145211  90.7991643
  54.3983613  30.3685899  78.0806290  53.7052858  30.4430254  77.4246326
  54.1535365  29.6046243  78.6027807  63.0697270  21.9281501  85.4845780
  63.3499024  21.2604690  86.1106207  63.8547877  22.1210596  84.9720444
  66.9406128  30.3499135  89.2317356  67.8923551  30.4497232  89.2529580
  66.7709579  29.5577403  89.7415440  64.9620508  27.4354718  89.4176757
  64.3670440  27.7159731  88.7223245  64.6770205  27.9248619  90.1893498
  69.4194206  33.5705254  88.3459655  69.3870526  32.6321255  88.5319339
  70.0294830  33.6489291  87.6125480  61.2577537  32.4401307  74.3886859
  62.2036642  32.3107515  74.4575277  60.8791782  31.7015969  74.8656287
  69.5688695  30.3616298  88.3917938  69.0527743  29.5774754  88.2047867
  70.4528643  30.0335014  88.5564458  67.2299422  24.1057313  84.3513751
  67.0324243  23.7972401  85.2357083  67.8399127  24.8318952  84.4811681
  75.2370756  34.6321261  87.4865692  75.9674144  34.3706549  88.0473395
  74.6277701  33.8949983  87.5267760  73.3186053  32.7729124  88.0840143
  72.5919217  32.6385089  87.4756635  72.9033340  33.0805952  88.8896861
  59.4420454  30.3651284  74.3241745  58.5351910  30.0684396  74.4004458
  59.7196435  30.0681102  73.4576031  50.3598395  31.6857647  84.7740791
  50.0401179  30.8322955  84.4815165  49.8131823  31.9006225  85.5298758
  54.1378302  34.4020088  88.4910297  54.3564312  35.3337196  88.5098331
  54.5504076  34.0428062  89.2765101  61.0582520  24.9088173  80.4785986
  60.2483248  24.5635258  80.8541232  61.7466937  24.5995717  81.0673597
  62.9873068  23.9866220  82.1010282  63.5404107  24.4061674  82.7600306
  63.2243155  23.0601968  82.1433238  59.0106167  29.9753294  97.8813046
  58.9102894  30.9247651  97.8125137  58.7927709  29.6471533  97.0089116
  58.2119239  27.2238219  74.4653724  59.0738403  27.5493117  74.7249541
  58.3969583  26.4369715  73.9526790  50.2286655  35.3060559  86.7433913
  49.5350126  34.8914511  86.2303867  50.9759646  35.3481095  86.1467331
  66.3651875  26.0966745  81.6088947  65.7850544  26.7551549  81.2266999
  66.0987808  25.2744090  81.1976364  64.8155442  25.4971803  83.8110267
  65.3155220  25.6088338  83.0024586  65.4591050  25.1932856  84.4511075
  58.8737437  33.4050433  96.6978108  58.3904519  34.2050793  96.9041997
  58.9598376  33.4158378  95.7445552  52.1423397  35.2378812  84.6199927
  52.1194085  35.3366500  83.6681810  52.4524034  36.0843963  84.9417094
  54.8010775  37.2954967  88.7346542  55.7554028  37.2638910  88.6676473
  54.6023299  36.8345591  89.5496768  55.3910157  35.8656083  91.3017339
  56.2103046  36.3600162  91.3252177  55.6646965  34.9488052  91.2734907
  65.1476753  28.2566836  80.6645295  64.2602608  28.5416486  80.4465490
  65.5630742  28.0960599  79.8172572  68.4991289  28.2813357  84.3799634
  69.2751680  28.7709809  84.6524251  67.7739424  28.7071411  84.8371504
  70.9363848  28.9940976  85.4373575  71.5308339  28.7536712  84.7266883
  71.0090432  28.2748106  86.0647111  53.1561004  42.8374587  85.7516740
  53.0215472  42.0774988  85.1854738  52.7393066  43.5615487  85.2845529
  65.1217777  33.7721372  80.8795585  65.0652978  34.2289923  80.0403218
  65.6746119  33.0112056  80.7018428  68.9322583  29.5611104  81.7045705
  68.6759517  29.1607739  82.5353912  68.3075451  30.2754897  81.5795844
  73.2434921  32.3007177  84.2116996  72.6834479  32.3700366  84.9848558
  72.6378424  32.1248161  83.4916492  56.3130130  43.7343904  85.9635182
  56.1962514  44.6789336  85.8613873  55.4922576  43.4317465  86.3520982
  50.6445071  30.1994217  92.0009537  51.2903935  29.6893171  92.4896762
  50.4362222  30.9362899  92.5752962  59.1648682  24.4634262  77.7533433
  59.1527352  25.4076102  77.9101704  60.0572104  24.2804407  77.4592894
  62.9800801  21.0577039  82.0079370  62.2133197  20.5035525  82.1536052
  63.3911506  21.1298907  82.8693521  54.9842562  27.3461834  96.0984551
  55.8474024  26.9898639  96.3087875  54.4107973  27.0075729  96.7859955
  74.8290939  48.9763691  86.9046952  75.4669349  48.8570438  86.2010292
  74.7111782  49.9244535  86.9634904  77.3066055  40.3511952  89.3427747
  76.9749380  41.2207363  89.1188962  76.7111669  40.0348236  90.0221777
  71.2735584  46.4896684  94.3655994  70.4968918  47.0490604  94.3558859
  71.9126147  46.9753467  94.8870864  79.0656365  43.2723476  88.1998971
  78.4230745  43.5656010  87.5538765  78.5611293  43.1576397  89.0052168
  75.0037296  51.4411277  92.5246123  75.4120652  50.9993688  91.7800755
  74.2814558  50.8663905  92.7780316  75.3266111  52.0012468  86.2798412
  74.6974973  52.1658182  85.5774479  74.9391773  52.4154078  87.0509376
  74.5067812  44.0388253  91.5560853  74.2628744  44.7930313  91.0195129
  74.7827742  44.4173600  92.3908100  76.4606274  50.5826865  90.2338119
  76.6723170  51.2258625  89.5572500  76.4136023  49.7489182  89.7660049
  74.0632503  43.1944686  87.1374691  73.2016982  43.4925939  87.4291429
  74.0894938  43.4115084  86.2055724  85.6658095  49.8037569  84.7545448
  84.9121804  49.2344967  84.5989452  85.8005637  49.7700233  85.7016082
  74.4049187  38.1981533  88.9599061  74.0613456  39.0883175  88.8838171
  74.7728150  38.0083191  88.0968646  73.4845727  40.5686188  86.9248294
  72.9810523  40.5316323  86.1116099  73.7776334  41.4778931  86.9844950
  77.5825051  50.4156480  86.0591277  76.9248725  51.1055741  86.1471406
  78.3865450  50.8052912  86.4025263  76.2036853  37.4575092  84.0616798
  76.5095729  36.5972456  83.7742713  76.9289457  38.0492712  83.8615792
  74.0124504  46.8347770  91.1598262  74.3673892  47.0619243  92.0192728
  74.6596635  47.1666146  90.5375517  72.4607615  49.7905089  89.9678895
  73.3899675  49.9416248  89.7947862  72.0398645  49.8789109  89.1127542
  74.0319476  42.9199734  84.4121360  74.5288175  42.1669696  84.0922431
  73.2606457  42.9564051  83.8464570  81.8849233  48.6240100  86.0539652
  81.8739109  49.5064815  85.6833585  81.0166613  48.2711650  85.8594189
  76.4738471  39.8869328  86.5600719  75.5601550  40.1173554  86.7282926
  76.9031572  39.9707772  87.4114752  76.2444929  48.0759220  89.0600613
  75.5916379  48.3235127  88.4053066  76.6225309  47.2623358  88.7263090
  72.2932502  48.8179031  95.5466650  71.6173139  48.7173160  96.2169025
  73.1160136  48.6618244  96.0102647  70.4527171  39.7894100  88.3582734
  71.2753240  39.3154578  88.2361624  70.6965234  40.5684584  88.8581420
  72.1090219  40.0385059  84.6209892  72.1311916  40.1024393  83.6661872
  72.5258278  39.1989568  84.8150398  76.6196591  47.2426664  93.6026277
  77.5206454  47.1033129  93.3110275  76.6944566  47.4081119  94.5424455
  82.0306708  51.2445557  85.0511562  82.8653599  51.6835361  85.2149123
  82.1665837  50.7684211  84.2319808  79.0798214  48.8025292  90.9989050
  79.5552335  48.9952939  90.1907901  78.1563779  48.8584478  90.7532434
  73.6578430  40.8373136  89.9644884  74.1760374  41.5734163  89.6391372
  73.3033563  41.1437129  90.7991643  73.9091024  37.2573418  85.4845780
  74.1892778  36.5896607  86.1106207  74.6941631  37.4502514  84.9720444
  77.7799883  45.6791052  89.2317356  78.7317306  45.7789150  89.2529580
  77.6103333  44.8869321  89.7415440  75.8014262  42.7646635  89.4176757
  75.2064194  43.0451648  88.7223245  75.5163959  43.2540536  90.1893498
  80.4082449  45.6908215  88.3917938  79.8921498  44.9066672  88.2047867
  81.2922398  45.3626932  88.5564458  78.0693176  39.4349231  84.3513751
  77.8717997  39.1264319  85.2357083  78.6792882  40.1610870  84.4811681
  86.0764510  49.9613179  87.4865692  86.8067899  49.6998467  88.0473395
  85.4671456  49.2241901  87.5267760  84.1579808  48.1021041  88.0840143
  83.4312971  47.9677006  87.4756635  83.7427094  48.4097870  88.8896861
  71.9809984  51.8210971  95.8487516  72.9012993  51.9989570  96.0427563
  71.9459567  50.8767016  95.6967216  73.8266823  39.3158138  82.1010282
  74.3797861  39.7353591  82.7600306  74.0636909  38.3893886  82.1433238
  77.2045630  41.4258663  81.6088947  76.6244299  42.0843467  81.2266999
  76.9381562  40.6036008  81.1976364  75.6549196  40.8263721  83.8110267
  76.1548974  40.9380255  83.0024586  76.2984804  40.5224774  84.4511075
  79.3385044  43.6105274  84.3799634  80.1145434  44.1001727  84.6524251
  78.6133178  44.0363329  84.8371504  81.7757603  44.3232894  85.4373575
  82.3702093  44.0828630  84.7266883  81.8484186  43.6040024  86.0647111
  84.0828675  47.6299094  84.2116996  83.5228233  47.6992284  84.9848558
  83.4772179  47.4540079  83.4916492  73.8194556  36.3868956  82.0079370
  73.0526952  35.8327443  82.1536052  74.2305261  36.4590825  82.8693521
  85.6684694  64.3055608  86.9046952  86.3063104  64.1862356  86.2010292
  85.5505537  65.2536452  86.9634904  82.9594183  65.4117888  92.7994682
  82.9482824  65.0170686  91.9275186  83.1214822  64.6783961  93.3928453
  79.6801444  68.1955000  91.7473866  79.3891310  69.1000631  91.6320532
  80.3158428  68.2371528  92.4617936  88.1459810  55.6803870  89.3427747
  87.8143134  56.5499280  89.1188962  87.5505423  55.3640154  90.0221777
  88.0388473  60.3998956  86.4221097  87.1305350  60.3314364  86.1279858
  87.9876069  60.8770901  87.2502922  82.1129339  61.8188601  94.3655994
  81.3362673  62.3782521  94.3558859  82.7519902  62.3045384  94.8870864
  89.9050119  58.6015394  88.1998971  89.2624500  58.8947927  87.5538765
  89.4005048  58.4868314  89.0052168  80.3675711  64.6274055  93.9273961
  81.1090395  65.1659099  93.6508785  79.6612697  65.2540343  94.0845513
  85.8431051  66.7703195  92.5246123  86.2514407  66.3285606  91.7800755
  85.1208312  66.1955823  92.7780316  86.1659865  67.3304386  86.2798412
  85.5368728  67.4950100  85.5774479  85.7785527  67.7445995  87.0509376
  90.0449097  68.2658824  83.6342775  89.3600135  68.6457725  83.0839809
  90.1292947  68.8754150  84.3674723  85.3461566  59.3680170  91.5560853
  85.1022498  60.1222231  91.0195129  85.6221497  59.7465518  92.3908100
  87.3000029  65.9118783  90.2338119  87.5116924  66.5550543  89.5572500
  87.2529777  65.0781099  89.7660049  84.9026258  58.5236603  87.1374691
  84.0410737  58.8217857  87.4291429  84.9288693  58.7407002  86.2055724
  88.4145857  68.7890738  88.4060476  89.2363301  68.3870925  88.1243158
  88.4108260  68.6858972  89.3576592  96.5051850  65.1329487  84.7545448
  95.7515558  64.5636885  84.5989452  96.6399391  65.0992151  85.7016082
  83.5218954  70.6266455  94.5600509  83.0782809  69.8402834  94.2421414
  84.1836168  70.8145606  93.8944400  85.6200192  70.9069255  92.5881910
  85.6018668  71.7278136  92.0962180  86.5420112  70.7823330  92.8132052
  82.0773247  68.4213385  93.4305419  82.6101583  67.6601673  93.2004727
  81.5487328  68.1287037  94.1729573  84.9979527  61.3909154  79.2931277
  84.6929663  61.7055303  80.1441420  85.9509970  61.4690574  79.3358610
  83.4425959  67.5499377  80.9424231  82.9147321  66.8152137  80.6297468
  82.9413462  68.3274054  80.6964199  88.4218805  65.7448398  86.0591277
  87.7642480  66.4347659  86.1471406  89.2259204  66.1344830  86.4025263
  87.0430607  52.7867010  84.0616798  87.3489484  51.9264373  83.7742713
  87.7683212  53.3784630  83.8615792  84.8518259  62.1639687  91.1598262
  85.2067646  62.3911160  92.0192728  85.4990390  62.4958064  90.5375517
  90.6085375  67.3534650  86.8758863  91.0421882  67.2609939  87.7241917
  91.3216956  67.3292151  86.2378879  91.4700925  67.3958351  89.4091748
  91.6636815  68.3004161  89.6551023  91.3701543  66.9365770  90.2430333
  86.5316033  67.5465093  94.9832629  86.3801540  67.3175645  94.0662712
  86.5220713  68.5035695  94.9963974  83.3001370  65.1197006  89.9678895
  84.2293430  65.2708166  89.7947862  82.8792400  65.2081027  89.1127542
  88.2408240  70.5784216  93.0609110  88.1820786  69.8943436  92.3939693
  88.6427758  71.3203206  92.6089736  88.2425647  68.5423800  91.2923090
  87.3552426  68.2049722  91.4149489  88.8124198  67.8106831  91.5291856
  84.8713230  58.2491652  84.4121360  85.3681930  57.4961614  84.0922431
  84.1000212  58.2855968  83.8464570  85.9543011  67.0063339  81.9859784
  85.0199290  67.1264801  81.8164488  86.1319679  66.1035806  81.7219794
  87.3132225  55.2161245  86.5600719  86.3995305  55.4465472  86.7282926
  87.7425327  55.2999689  87.4114752  87.0838684  63.4051137  89.0600613
  86.4310134  63.6527045  88.4053066  87.4619064  62.5915275  88.7263090
  83.1326257  64.1470948  95.5466650  82.4566894  64.0465078  96.2169025
  83.9553891  63.9910162  96.0102647  86.7259914  70.2799133  95.6372921
  87.2699818  70.8929092  95.1427875  86.1446759  70.8378712  96.1539934
  87.0752335  71.2028871  88.3967498  86.1282671  71.0834223  88.3245825
  87.4235108  70.3151369  88.4793760  87.6832890  71.8210146  85.6836723
  88.6079438  71.6153008  85.5461175  87.5148194  71.5726547  86.5926065
  90.0488708  69.7395187  94.9734242  89.2584252  69.7219326  94.4338741
  89.8122063  70.2783481  95.7283279  90.1686583  66.5887654  92.2866970
  90.2184588  66.4237661  93.2282493  90.0600507  65.7214913  91.8964851
  87.4590346  62.5718582  93.6026277  88.3600208  62.4325047  93.3110275
  87.5338320  62.7373037  94.5424455  91.6704780  69.0084595  92.5308992
  91.3789588  69.3714576  93.3672453  91.0576911  68.2951604  92.3522324
  92.8700462  66.5737475  85.0511562  93.7047354  67.0127279  85.2149123
  93.0059591  66.0976128  84.2319808  89.9191968  64.1317210  90.9989050
  90.3946090  64.3244856  90.1907901  88.9957534  64.1876396  90.7532434
  84.7484779  52.5865336  85.4845780  85.0286533  51.9188525  86.1106207
  85.5335386  52.7794432  84.9720444  88.6193637  61.0082970  89.2317356
  89.5711060  61.1081068  89.2529580  88.4497088  60.2161239  89.7415440
  86.6408017  58.0938553  89.4176757  86.0457949  58.3743566  88.7223245
  86.3557714  58.5832454  90.1893498  91.0981715  64.2289090  88.3459655
  91.0658035  63.2905090  88.5319339  91.7082339  64.3073126  87.6125480
  91.2476204  61.0200133  88.3917938  90.7315252  60.2358590  88.2047867
  92.1316152  60.6918850  88.5564458  88.9086931  54.7641149  84.3513751
  88.7111752  54.4556237  85.2357083  89.5186636  55.4902788  84.4811681
  96.9158265  65.2905096  87.4865692  97.6461653  65.0290385  88.0473395
  96.3065210  64.5533818  87.5267760  94.9973562  63.4312959  88.0840143
  94.2706726  63.2968924  87.4756635  94.5820849  63.7389788  88.8896861
  82.8203739  67.1502889  95.8487516  83.7406748  67.3281488  96.0427563
  82.7853322  66.2058934  95.6967216  84.6660577  54.6450056  82.1010282
  85.2191616  55.0645509  82.7600306  84.9030664  53.7185804  82.1433238
  88.0439384  56.7550581  81.6088947  87.4638053  57.4135385  81.2266999
  87.7775317  55.9327925  81.1976364  86.4942951  56.1555638  83.8110267
  86.9942729  56.2672173  83.0024586  87.1378559  55.8516691  84.4511075
  80.5524946  64.0634268  96.6978108  80.0692028  64.8634628  96.9041997
  80.6385885  64.0742213  95.7445552  86.8005286  64.4305207  80.8795585
  86.7440487  64.8873758  80.0403218  87.3533628  63.6695892  80.7018428
  84.8485972  67.9258900  97.5001677  85.7177132  68.0999552  97.1388312
  84.3692724  68.7453317  97.3777406  93.3168155  79.5874954  86.8408476
  92.9786666  79.4716019  85.9529011  94.1857923  79.1866119  86.8209483
  93.7987937  80.7409806  92.7994682  93.7876578  80.3462604  91.9275186
  93.9608577  80.0075878  93.3928453  86.7219402  82.9361622  85.6689588
  87.5140694  82.5952447  85.2535887  86.9616052  83.0456597  86.5891741
  90.5195199  83.5246918  91.7473866  90.2285065  84.4292549  91.6320532
  91.1552183  83.5663445  92.4617936  91.4451405  80.9023766  88.3375226
  92.0414978  80.6779789  87.6232189  91.5026377  80.1608512  88.9400673
  98.9853564  71.0095787  89.3427747  98.6536889  71.8791198  89.1188962
  98.3899178  70.6932071  90.0221777  95.4785084  83.2108333  88.7423660
  95.1785807  84.1133372  88.6339467  95.1336143  82.9440516  89.5944813
  92.9523093  77.1480519  94.3655994  92.1756427  77.7074439  94.3558859
  93.5913656  77.6337302  94.8870864 100.7443874  73.9307312  88.1998971
 100.1018254  74.2239845  87.5538765 100.2398802  73.8160232  89.0052168
  91.2069466  79.9565972  93.9273961  91.9484150  80.4951016  93.6508785
  90.5006451  80.5832261  94.0845513  96.6824805  82.0995113  92.5246123
  97.0908161  81.6577523  91.7800755  95.9602067  81.5247740  92.7780316
  93.0355875  77.0367720  89.8979680  93.8817070  77.4607133  90.0414329
  92.9754513  76.3801344  90.5918243  97.0053620  82.6596303  86.2798412
  96.3762482  82.8242018  85.5774479  96.6179282  83.0737913  87.0509376
 100.8842852  83.5950741  83.6342775 100.1993890  83.9749643  83.0839809
 100.9686701  84.2046068  84.3674723  96.1855321  74.6972088  91.5560853
  95.9416252  75.4514148  91.0195129  96.4615251  75.0757436  92.3908100
  98.1393783  81.2410700  90.2338119  98.3510679  81.8842460  89.5572500
  98.0923532  80.4073017  89.7660049  95.7420012  73.8528521  87.1374691
  94.8804491  74.1509775  87.4291429  95.7682447  74.0698920  86.2055724
  89.4505663  81.9442193  86.4828260  90.0207020  82.3729461  85.8445744
  90.0413775  81.6624778  87.1812446  89.9430829  77.1105621  94.7289271
  89.3129490  77.7921901  94.9624668  89.8366917  76.9988702  93.7842409
  99.2539611  84.1182656  88.4060476 100.0757055  83.7162843  88.1243158
  99.2502014  84.0150890  89.3576592  93.0196215  83.6666699  90.5621187
  93.0840647  84.1287106  91.3979359  92.3107139  83.0364064  90.6903497
  83.5213505  77.0307907  88.0870186  83.7721543  77.9154917  88.3527762
  84.0573053  76.8512509  87.3145278 107.3445604  80.4621404  84.7545448
 106.5909313  79.8928802  84.5989452 107.4793146  80.4284069  85.7016082
  89.2211572  71.4126386  97.0914522  88.8278518  70.8592585  97.7662167
  90.0377712  71.7236965  97.4821040  87.9968515  85.9676001  83.0850845
  88.1735143  86.8893966  82.8971829  88.7925348  85.6534420  83.5145225
  92.1379533  72.8284265  94.6834779  92.8789246  73.4291419  94.6039241
  92.3697456  72.0861903  94.1252821  87.2820871  78.0140633  92.9613009
  87.1674386  77.1125890  93.2620107  86.4265389  78.2604329  92.6097825
  94.3612709  85.9558373  94.5600509  93.9176563  85.1694752  94.2421414
  95.0229922  86.1437524  93.8944400  89.1199830  87.4854175  89.0861188
  89.6707255  87.3571238  88.3138182  88.2811306  87.7849064  88.7356080
  96.4593947  86.2361173  92.5881910  96.4412422  87.0570054  92.0962180
  97.3813867  86.1115248  92.8132052  92.9167001  83.7505302  93.4305419
  93.4495338  82.9893591  93.2004727  92.3881082  83.4578954  94.1729573
  96.0836696  68.8565368  88.9599061  95.7400965  69.7467010  88.8838171
  96.4515659  68.6667026  88.0968646  95.1633236  71.2270024  86.9248294
  94.6598032  71.1900159  86.1116099  95.4563843  72.1362766  86.9844950
  91.4076122  71.3108753  85.9314476  92.2729119  71.1151562  85.5720365
  91.4753631  71.0819105  86.8583832 101.0221253  81.6006334  79.4024669
 100.2450696  81.2617494  78.9579831 101.7012734  81.6058957  78.7279634
  99.2612560  81.0740315  86.0591277  98.6036234  81.7639577  86.1471406
 100.0652959  81.4636747  86.4025263  89.0138441  73.5410961  83.3030842
  89.5882193  73.3186143  82.5704035  89.6009424  73.6099656  84.0559444
  91.3161109  70.4152210  82.0305912  90.6625521  70.1001227  81.4062527
  91.2741583  69.7927951  82.7565735  94.5498849  76.9034144  86.3553559
  93.6321411  77.1249091  86.1975247  94.9658993  76.9780454  85.4965267
  98.8379815  84.4090690  82.2374362  98.3842142  83.5681599  82.2939552
  98.2073781  85.0452088  82.5749142  97.8824362  68.1158928  84.0616798
  98.1883238  67.2556291  83.7742713  98.6076966  68.7076548  83.8615792
  92.1545441  78.4112721  84.5692989  92.2094051  77.4586557  84.4935466
  91.3436643  78.5672160  85.0534288  90.0937801  77.0289780  82.3283368
  89.2805667  77.3283951  82.7348560  90.5896796  76.6345469  83.0457850
  95.6912013  77.4931605  91.1598262  96.0461401  77.7203078  92.0192728
  96.3384144  77.8249982  90.5375517  89.5851876  74.6008136  87.9444603
  90.2251255  74.4596895  87.2467566  88.7529407  74.3142649  87.5683205
 101.4479130  82.6826568  86.8758863 101.8815636  82.5901857  87.7241917
 102.1610710  82.6584068  86.2378879  90.3612180  83.9010566  84.0579596
  91.1552778  83.4060886  83.8562171  89.6503872  83.3728429  83.6947301
  95.1807024  86.2828662  88.4091963  95.2344047  86.8519598  89.1769679
  94.3121806  86.4530547  88.0446000  88.0605418  75.9846218  89.8916414
  88.7328471  75.7763580  89.2429063  87.2335204  75.7868304  89.4521647
 102.3094679  82.7250268  89.4091748 102.5030569  83.6296079  89.6551023
 102.2095297  82.2657687  90.2430333  93.9630990  72.6108159  91.9082075
  93.3158905  73.3098109  91.8146552  94.7332005  73.0444303  92.2758324
  97.3709788  82.8757011  94.9832629  97.2195294  82.6467563  94.0662712
  97.3614467  83.8327613  94.9963974  94.1395124  80.4488924  89.9678895
  95.0687184  80.6000084  89.7947862  93.7186154  80.5372945  89.1127542
  92.9383456  84.4739588  87.7377433  92.7994542  84.1058373  88.6103371
  92.1498052  84.9887228  87.5661390  88.4632915  79.2588821  90.6518852
  88.3252713  78.5269060  91.2530391  89.3737839  79.1697721  90.3703039
  91.0915216  78.9708780  90.1402531  91.8014834  78.3301973  90.0989150
  91.0484524  79.2221675  91.0628712  99.0801994  85.9076134  93.0609110
  99.0214541  85.2235354  92.3939693  99.4821513  86.6495124  92.6089736
  89.8044150  75.9573998  91.9598171  89.2681507  75.5064737  92.6119767
  89.2160858  76.0919907  91.2168635  88.0992693  92.7238048  85.8542829
  88.3389291  93.3556572  86.5321848  87.2561890  92.3726088  86.1408189
  99.0819402  83.8715718  91.2923090  98.1946180  83.5341639  91.4149489
  99.6517953  83.1398749  91.5291856  85.5383271  75.0930006  89.0451165
  85.4541460  74.4855676  88.3101575  84.7165977  75.5839024  89.0460662
  92.6120555  88.5317170  88.2584333  92.5390727  89.3372141  88.7703638
  92.1697948  88.7309136  87.4332355  95.0719239  88.4304004  90.4142492
  95.7847211  89.0651469  90.3418393  94.5809267  88.5267870  89.5982494
  92.2941954  75.7200952  84.1393045  91.9239741  75.1671993  84.8273950
  92.7901046  75.1159086  83.5868045  90.1231152  86.1798447  91.2348063
  90.8240612  86.8134930  91.3877457  89.6526267  86.5213179  90.4743702
  98.1525980  70.5453163  86.5600719  97.2389059  70.7757390  86.7282926
  98.5819081  70.6291607  87.4114752  97.9232438  78.7343055  89.0600613
  97.2703888  78.9818962  88.4053066  98.3012818  77.9207193  88.7263090
  93.9720011  79.4762866  95.5466650  93.2960648  79.3756995  96.2169025
  94.7947645  79.3202080  96.0102647  85.7198870  85.7134803  88.1679165
  86.3052307  84.9678490  88.3007070  85.5223709  86.0238759  89.0515829
  88.5737525  88.7486050  83.1841608  87.9047901  89.2332178  82.7005648
  88.4350395  88.9955270  84.0984986  92.7142794  90.7829793  89.7824266
  93.2661102  90.9461415  90.5473351  93.0548987  91.3734231  89.1104291
  87.6907287  73.1304943  90.3846151  87.7548614  73.9919774  89.9723549
  87.6274407  72.5178945  89.6518509  87.1659560  75.2028076  94.0319185
  87.7931599  74.8205153  94.6456710  86.3087479  74.9842278  94.3974878
  97.5653668  85.6091051  95.6372921  98.1093572  86.2221009  95.1427875
  96.9840513  86.1670629  96.1539934  95.8511181  88.7311769  86.7687948
  95.7262321  87.9301509  86.2598894  96.5090272  89.2257962  86.2801918
  87.4719350  75.0860501  85.9465089  86.7505935  75.6996469  85.8072562
  88.2612605  75.6218266  85.8681735  97.9146090  86.5320789  88.3967498
  96.9676425  86.4126140  88.3245825  98.2628863  85.6443287  88.4793760
  90.2745663  72.4214928  92.2205740  90.7980065  72.6677225  92.9832050
  90.0557996  73.2534963  91.8008878  98.5226645  87.1502064  85.6836723
  99.4473192  86.9444925  85.5461175  98.3541948  86.9018465  86.5926065
  91.4798208  73.3628623  89.9055411  91.1395028  72.5636436  90.3076091
  90.7737214  73.6630334  89.3332244  92.1314680  70.4477935  88.3582734
  92.9540749  69.9738414  88.2361624  92.3752743  71.2268419  88.8581420
  89.6553259  77.1397056  86.1674713  89.5097839  77.4537359  87.0598994
  89.1778462  77.7581956  85.6145611  91.5149642  74.1299604  86.2155602
  91.5011210  73.2340697  85.8787900  92.2322070  74.1370268  86.8493888
  93.3675772  74.5636944  88.2608730  93.1093550  75.4854015  88.2593060
  92.8360813  74.1667379  88.9509194  98.3121961  87.6687731  81.0398815
  98.4858839  87.1034154  80.2872667  98.8050852  88.4688626  80.8578305
  90.9186537  73.0113984  81.4843172  91.0402449  72.0830631  81.6834060
  90.6288580  73.0252670  80.5721488  84.9164943  78.8072297  91.9992531
  84.1746679  78.9554932  92.5857161  84.5957687  79.0680562  91.1359280
 101.1988557  84.4354201  79.6683044 101.7239881  84.7741474  78.9432364
 101.1110909  83.5001217  79.4846179  92.8608605  88.3488275  91.7972921
  93.1695732  88.1037422  92.6695620  93.6584087  88.5534913  91.3091791
  92.8829217  90.5026185  84.0278297  92.4434208  90.0102563  84.7211154
  93.6337334  89.9599152  83.7870372  85.3621556  86.6937726  84.0302925
  86.1879576  86.3941497  83.6501569  85.0115608  85.9245348  84.4792714
  90.3303090  86.0464194  86.1000599  89.7083099  85.3834899  85.8002827
  91.0007956  86.0725326  85.4174247  90.4027617  74.5245982  95.6933105
  90.4515772  75.4008105  95.3110874  90.9450131  73.9823375  95.1204748
 100.8882463  85.0687105  94.9734242 100.0978006  85.0511244  94.4338741
 100.6515817  85.6075399  95.7283279 101.0080338  81.9179571  92.2866970
 101.0578343  81.7529579  93.2282493 100.8994261  81.0506830  91.8964851
  98.2984100  77.9010499  93.6026277  99.1993963  77.7616964  93.3110275
  98.3732075  78.0664954  94.5424455  92.6326905  75.2777354  92.4479464
  91.7630215  75.5710920  92.1762052  92.8686386  75.8617799  93.1686727
 102.5098535  84.3376513  92.5308992 102.2183343  84.7006493  93.3672453
 101.8970666  83.6243521  92.3522324 103.7094217  81.9029393  85.0511562
 104.5441108  82.3419197  85.2149123 103.8453346  81.4268046  84.2319808
 100.7585723  79.4609128  90.9989050 101.2339844  79.6536774  90.1907901
  99.8351288  79.5168313  90.7532434  95.3365939  71.4956971  89.9644884
  95.8547883  72.2317998  89.6391372  94.9821072  71.8020964  90.7991643
  95.5878533  67.9157254  85.4845780  95.8680287  67.2480443  86.1106207
  96.3729140  68.1086349  84.9720444  99.4587392  76.3374888  89.2317356
 100.4104815  76.4372985  89.2529580  99.2890842  75.5453156  89.7415440
  97.4801771  73.4230471  89.4176757  96.8851703  73.7035484  88.7223245
  97.1951468  73.9124372  90.1893498 101.9375470  79.5581007  88.3459655
 101.9051790  78.6197008  88.5319339 102.5476093  79.6365044  87.6125480
  99.7480685  70.0933066  84.3513751  99.5505506  69.7848155  85.2357083
 100.3580391  70.8194705  84.4811681 107.7552019  80.6197014  87.4865692
 108.4855408  80.3582302  88.0473395 107.1458965  79.8825736  87.5267760
 105.8367317  78.7604877  88.0840143 105.1100480  78.6260842  87.4756635
 105.4214603  79.0681705  88.8896861  93.6597493  82.4794806  95.8487516
  94.5800502  82.6573405  96.0427563  93.6247076  81.5350852  95.6967216
  86.6559566  80.3895841  88.4910297  86.8745575  81.3212949  88.5098331
  87.0685339  80.0303815  89.2765101  91.5287431  75.9629047  97.8813046
  91.4284158  76.9123404  97.8125137  91.3108973  75.6347286  97.0089116
  91.3918701  79.3926186  96.6978108  90.9085783  80.1926546  96.9041997
  91.4779640  79.4034131  95.7445552  87.3192038  83.2830720  88.7346542
  88.2735292  83.2514663  88.6676473  87.1204562  82.8221344  89.5496768
  87.9091421  81.8531836  91.3017339  88.7284310  82.3475915  91.3252177
  88.1828228  80.9363805  91.2734907  85.6742267  88.8250340  85.7516740
  85.5396735  88.0650741  85.1854738  85.2574329  89.5491240  85.2845529
  88.8311393  89.7219657  85.9635182  88.7143777  90.6665089  85.8613873
  88.0103839  89.4193218  86.3520982  83.1626335  76.1869970  92.0009537
  83.8085198  75.6768924  92.4896762  82.9543486  76.9238652  92.5752962
  95.6879727  83.2550818  97.5001677  96.5570887  83.4291470  97.1388312
  95.2086478  84.0745235  97.3777406  89.8565907  90.3747919  89.1791111
  90.7593154  90.4071529  89.4957606  89.6303277  89.4448370  89.1937447
  91.6119509  89.1278905  85.8401189  90.6615140  89.1280767  85.7265562
  91.9151995  88.3811640  85.3237224  87.5023826  73.3337587  96.0984551
  88.3655287  72.9774392  96.3087875  86.9289236  72.9951482  96.7859955
 107.3472203  94.9639444  86.9046952 107.9850613  94.8446191  86.2010292
 107.2293046  95.9120288  86.9634904 104.1561909  94.9166872  86.8408476
 103.8180421  94.8007937  85.9529011 105.0251677  94.5158037  86.8209483
 100.0148725  96.7702348  82.8305367  99.4513590  96.6792285  82.0621655
  99.9001120  95.9502253  83.3107860 104.6381692  96.0701724  92.7994682
 104.6270333  95.6754522  91.9275186 104.8002331  95.3367796  93.3928453
  97.5613157  98.2653540  85.6689588  98.3534449  97.9244364  85.2535887
  97.8009807  98.3748515  86.5891741 105.5948283 100.4373316  78.1419832
 104.9436263 101.0227396  77.7553846 106.3892646 100.9679511  78.2014870
  99.5203911  97.5262453  78.5406967 100.2934787  96.9791440  78.4019842
  99.8729309  98.3906702  78.7521428 101.3588953  98.8538835  91.7473866
 101.0678819  99.7584466  91.6320532 101.9945937  98.8955363  92.4617936
 102.2845160  96.2315684  88.3375226 102.8808732  96.0071706  87.6232189
 102.3420132  95.4900429  88.9400673 101.8570188  93.6855119  76.1725417
 102.1095709  93.1636640  75.4108880 100.9194747  93.5221265  76.2752100
 106.9013471  92.6890898  83.9800160 107.6876560  92.2710321  83.6290577
 107.1652176  93.5936990  84.1481808 107.0723549  98.1263748  78.6788817
 106.4369382  98.1998374  79.3909721 106.7420955  98.7157347  78.0007896
 112.3021898  92.6266131  84.8833138 113.0347070  92.0565348  85.1170968
 111.5461254  92.2387731  85.3239644 101.5766477  95.5883225  78.3749792
 101.4602735  94.9128129  79.0430876 101.6868737  95.1015599  77.5581945
 103.9198018  95.0493372  82.0796481 103.5556225  94.5223993  82.7909402
 104.7765134  94.6591841  81.9062966 109.8247319  86.3387705  89.3427747
 109.4930643  87.2083116  89.1188962 109.2292932  86.0223989  90.0221777
 103.5603505  90.0783272  77.0757829 103.7277907  90.9463508  77.4428300
 103.3700674  90.2410554  76.1519119 106.3178838  98.5400251  88.7423660
 106.0179561  99.4425290  88.6339467 105.9729898  98.2732434  89.5944813
  99.7691320  94.9914048  84.7760364  98.8441816  94.8590262  84.9838056
 100.0175733  95.7708267  85.2730306 109.7175982  91.0582791  86.4221097
 108.8092859  90.9898199  86.1279858 109.6663578  91.5354736  87.2502922
 103.5392726  92.5340929  78.0604496 103.4192351  92.9797980  78.8989976
 102.8445314  92.8826247  77.5018034  97.1300131  94.6347321  85.6104153
  97.2592512  94.8881800  86.5243565  96.4497582  95.2275029  85.2908808
 101.2999618 105.3044571  81.7094627 101.2223648 106.2552396  81.7883108
 100.6961262 104.9590444  82.3669554 103.7916848  92.4772437  94.3655994
 103.0150182  93.0366357  94.3558859 104.4307411  92.9629220  94.8870864
 111.5837628  89.2599229  88.1998971 110.9412009  89.5531763  87.5538765
 111.0792557  89.1452150  89.0052168 109.2377792  93.0062403  78.8884830
 110.1495648  93.2389789  78.7132528 108.7287439  93.5899447  78.3259909
 102.0463220  95.2857890  93.9273961 102.7877904  95.8242934  93.6508785
 101.3400206  95.9124179  94.0845513 107.5218560  97.4287030  92.5246123
 107.9301916  96.9869441  91.7800755 106.7995821  96.8539658  92.7780316
 103.8749630  92.3659637  89.8979680 104.7210825  92.7899051  90.0414329
 103.8148267  91.7093262  90.5918243 107.8447374  97.9888221  86.2798412
 107.2156237  98.1533935  85.5774479 107.4573036  98.4029831  87.0509376
 111.7236606  98.9242659  83.6342775 111.0387644  99.3041560  83.0839809
 111.8080456  99.5337986  84.3674723 107.0249075  90.0264006  91.5560853
 106.7810007  90.7806066  91.0195129 107.3009006  90.4049353  92.3908100
 108.9787538  96.5702618  90.2338119 109.1904433  97.2134378  89.5572500
 108.9317286  95.7364935  89.7660049 106.5813767  89.1820439  87.1374691
 105.7198246  89.4801692  87.4291429 106.6076201  89.3990838  86.2055724
 103.3975336  97.7262629  83.5448497 103.8613682  98.0050332  82.7553119
 103.1332134  96.8246074  83.3621587 100.2899417  97.2734111  86.4828260
 100.8600774  97.7021379  85.8445744 100.8807529  96.9916695  87.1812446
 102.3344222  93.8485782  80.3538062 103.0368266  94.3006825  80.8211988
 102.0024851  93.2069600  80.9817955 100.7824584  92.4397538  94.7289271
 100.1523244  93.1213819  94.9624668 100.6760672  92.3280620  93.7842409
  96.0769556  92.1069334  85.6555195  95.2868610  92.3626863  85.1795306
  96.5680804  92.9217672  85.7607236 110.0933366  99.4474573  88.4060476
 110.9150810  99.0454761  88.1243158 110.0895769  99.3442808  89.3576592
  98.0284302  92.4713913  82.6138672  97.2315465  92.5832608  83.1322168
  97.8009894  92.8100566  81.7479563 103.8589969  98.9958617  90.5621187
 103.9234402  99.4579024  91.3979359 103.1500893  98.3655982  90.6903497
  94.3607259  92.3599825  88.0870186  94.6115298  93.2446835  88.3527762
  94.8966808  92.1804426  87.3145278 118.1839359  95.7913322  84.7545448
 117.4303067  95.2220720  84.5989452 118.3186900  95.7575986  85.7016082
 103.5737987 100.6626724  80.4300167 103.4383662 101.5078260  80.8585015
 104.1147799 100.8646002  79.6666101 100.0605327  86.7418304  97.0914522
  99.6672272  86.1884503  97.7662167 100.8771467  87.0528883  97.4821040
  97.0267384  98.1802162  81.0028092  97.5391905  98.9745412  81.1533657
  97.6790097  97.4828453  80.9361694  98.8362269 101.2967919  83.0850845
  99.0128897 102.2185883  82.8971829  99.6319103 100.9826338  83.5145225
 102.9773288  88.1576183  94.6834779 103.7183001  88.7583336  94.6039241
 103.2091210  87.4153821  94.1252821  98.1214626  93.3432550  92.9613009
  98.0068141  92.4417808  93.2620107  97.2659143  93.5896247  92.6097825
 105.2006463 101.2850291  94.5600509 104.7570317 100.4986669  94.2421414
 105.8623677 101.4729441  93.8944400  99.9593584 102.8146092  89.0861188
 100.5101010 102.6863156  88.3138182  99.1205060 103.1140981  88.7356080
 107.2987701 101.5653091  92.5881910 107.2806177 102.3861972  92.0962180
 108.2207621 101.4407166  92.8132052 103.7560756  99.0797220  93.4305419
 104.2889092  98.3185508  93.2004727 103.2274837  98.7870872  94.1729573
 106.9230450  84.1857286  88.9599061 106.5794720  85.0758928  88.8838171
 107.2909413  83.9958944  88.0968646  94.9916301  96.5090817  81.7787663
  95.8291523  96.9187825  81.5621370  95.1694569  95.5690259  81.7487857
 106.8880733  94.1765897  77.4671496 106.3727357  94.9470502  77.7059883
 106.6158042  93.5031033  78.0904557 104.4727844  89.0215598  82.5256734
 103.6169441  88.6322448  82.3462373 104.8854796  89.1007559  81.6656520
 106.0026991  86.5561941  86.9248294 105.4991786  86.5192076  86.1116099
 106.2957598  87.4654684  86.9844950 102.2469877  86.6400671  85.9314476
 103.1122874  86.4443480  85.5720365 102.3147386  86.4111023  86.8583832
 111.8615007  96.9298252  79.4024669 111.0844450  96.5909411  78.9579831
 112.5406488  96.9350875  78.7279634 106.6767036  92.0492989  79.2931277
 106.3717172  92.3639138  80.1441420 107.6297479  92.1274409  79.3358610
 105.1213468  98.2083213  80.9424231 104.5934830  97.4735972  80.6297468
 104.6200971  98.9857889  80.6964199 110.1006314  96.4032233  86.0591277
 109.4429989  97.0931494  86.1471406 110.9046713  96.7928665  86.4025263
  99.8532196  88.8702879  83.3030842 100.4275948  88.6478060  82.5704035
 100.4403178  88.9391573  84.0559444 108.9111773  94.7576606  84.1095219
 109.4243655  95.3906598  84.6116929 109.5612997  94.1577801  83.7438579
 102.1554864  85.7444128  82.0305912 101.5019276  85.4293145  81.4062527
 102.1135338  85.1219868  82.7565735 103.2666068  96.0263423  73.9459204
 102.3593130  95.7952676  74.1450353 103.7637100  95.2301042  74.1333185
 106.1734147 104.7360930  76.8655890 105.4995846 105.0392627  77.4740848
 106.5599969 105.5390010  76.5161347 105.3892604  92.2326061  86.3553559
 104.4715165  92.4541008  86.1975247 105.8052748  92.3072372  85.4965267
 106.1727652  93.6317477  81.4856240 106.9199471  94.1438874  81.1763362
 106.4419241  93.3101530  82.3460633 104.4454302  96.1276018  78.4683194
 103.5365521  95.8435051  78.5655664 104.4749386  96.5475096  77.6086501
 109.6773569  99.7382607  82.2374362 109.2235896  98.8973517  82.2939552
 109.0467536 100.3744006  82.5749142 108.6206489  90.6674593  83.4675029
 107.8829246  90.1551979  83.7985272 108.8733262  90.2274975  82.6558306
 108.1206509 101.5759104  83.1724180 108.4129483 102.1364161  82.4536545
 108.6305129 101.8687665  83.9277339 108.7218116  83.4450845  84.0616798
 109.0276993  82.5848209  83.7742713 109.4470721  84.0368465  83.8615792
  95.0142472  93.8481532  82.4498396  94.8166872  93.2550893  81.7249463
  94.4589136  93.5433742  83.1674335 102.9939196  93.7404638  84.5692989
 103.0487806  92.7878475  84.4935466 102.1830398  93.8964077  85.0534288
 104.1430390  97.6684761  75.8071273 103.7049820  96.9520620  75.3476910
 104.8840831  97.8960876  75.2456364 100.9331556  92.3581698  82.3283368
 100.1199421  92.6575869  82.7348560 101.4290550  91.9637387  83.0457850
 103.0840134 102.3539455  84.2617633 103.0416312 102.5800301  83.3326165
 104.0002833 102.1202830  84.4103434 106.5305767  92.8223523  91.1598262
 106.8855155  93.0494996  92.0192728 107.1777899  93.1541899  90.5375517
 112.2603504  95.9441958  81.8647591 112.1221403  96.1343554  80.9368780
 111.9039723  96.7061341  82.3215642 100.4245631  89.9300054  87.9444603
 101.0645010  89.7888813  87.2467566  99.5923161  89.6434567  87.5683205
 112.2872884  98.0118485  86.8758863 112.7209391  97.9193775  87.7241917
 113.0004465  97.9875986  86.2378879 101.2005934  99.2302484  84.0579596
 101.9946533  98.7352804  83.8562171 100.4897627  98.7020347  83.6947301
 106.0200779 101.6120580  88.4091963 106.0737801 102.1811516  89.1769679
 105.1515560 101.7822465  88.0446000  97.4274247  89.9000379  82.7217590
  97.6881064  90.8145712  82.6126750  98.2491419  89.4324821  82.8714203
  98.8999172  91.3138136  89.8916414  99.5722226  91.1055498  89.2429063
  98.0728959  91.1160222  89.4521647 113.1488434  98.0542186  89.4091748
 113.3424324  98.9587997  89.6551023 113.0489052  97.5949605  90.2430333
 104.8024744  87.9400077  91.9082075 104.1552659  88.6390026  91.8146552
 105.5725760  88.3736221  92.2758324 108.2103542  98.2048929  94.9832629
 108.0589049  97.9759481  94.0662712 108.2008222  99.1619530  94.9963974
 104.9788879  95.7780842  89.9678895 105.9080939  95.9292001  89.7947862
 104.5579909  95.8664862  89.1127542 103.7777210  99.8031506  87.7377433
 103.6388296  99.4350290  88.6103371 102.9891807 100.3179145  87.5661390
 104.3725362 104.9040602  79.0802969 104.5477118 104.4328646  79.8948592
 103.6858150 105.5306369  79.3084230 105.3282426  99.1813109  85.1266270
 104.9932258  99.1413879  86.0223920 104.8286371  98.5157825  84.6536681
  99.3026670  94.5880739  90.6518852  99.1646468  93.8560978  91.2530391
 100.2131593  94.4989639  90.3703039 108.2641617  96.5269143  75.4003330
 107.6470788  95.8015971  75.3036383 107.7958106  97.2878503  75.0570404
 101.9308970  94.3000698  90.1402531 102.6408589  93.6593890  90.0989150
 101.8878278  94.5513593  91.0628712 109.9195749 101.2368051  93.0609110
 109.8608295 100.5527272  92.3939693 110.3215267 101.9787041  92.6089736
 100.6437904  91.2865916  91.9598171 100.1075261  90.8356654  92.6119767
 100.0554613  91.4211825  91.2168635  98.9386448 108.0529965  85.8542829
  99.1783046 108.6848489  86.5321848  98.0955644 107.7018005  86.1408189
 100.0540163  90.7454567  74.5224634  99.1769629  90.6243368  74.1586881
 100.5297916  89.9540646  74.2703523 109.9213156  99.2007635  91.2923090
 109.0339935  98.8633557  91.4149489 110.4911707  98.4690667  91.5291856
  91.5742303  95.5331727  84.6166142  92.2613343  95.2193457  84.0287157
  91.4190432  96.4373092  84.3433393  96.3777025  90.4221924  89.0451165
  96.2935214  89.8147593  88.3101575  95.5559732  90.9130942  89.0460662
 103.4514310 103.8609088  88.2584333 103.3784481 104.6664059  88.7703638
 103.0091703 104.0601053  87.4332355 103.2404089 103.0980858  81.7687155
 102.4571611 103.6402538  81.8625379 103.9396834 103.6154837  82.1681396
 106.5500739  88.9075487  84.4121360 107.0469439  88.1545449  84.0922431
 105.7787721  88.9439804  83.8464570 114.4030497  94.6115853  86.0539652
 114.3920373  95.4940568  85.6833585 113.5347876  94.2587404  85.8594189
 105.9112993 103.7595922  90.4142492 106.6240965 104.3943387  90.3418393
 105.4203022 103.8559788  89.5982494 107.6330520  97.6647174  81.9859784
 106.6986799  97.7848637  81.8164488 107.8107188  96.7619641  81.7219794
 103.1335708  91.0492870  84.1393045 102.7633496  90.4963911  84.8273950
 103.6294801  90.4451004  83.5868045 111.0203071  93.5064494  82.5209818
 111.4863524  94.3392485  82.4470120 111.4710572  93.0409475  83.2255076
 100.9624907 101.5090365  91.2348063 101.6634366 102.1426848  91.3877457
 100.4920022 101.8505097  90.4743702 109.0879302  99.8508315  79.5195970
 109.3639146  99.7364910  80.4289844 108.2183801  99.4525800  79.4808143
 108.9919734  85.8745081  86.5600719 108.0782814  86.1049307  86.7282926
 109.4212836  85.9583525  87.4114752 108.7626193  94.0634973  89.0600613
 108.1097643  94.3110880  88.4053066 109.1406573  93.2499111  88.7263090
 105.7233366 104.0994666  83.1628783 105.9055761 103.2816322  83.6256536
 106.5466352 104.3162358  82.7253673 106.0575532 103.0262851  80.4243832
 106.5863298 102.5155306  79.8113994 106.3203752 102.7105381  81.2889365
 104.8113766  94.8054784  95.5466650 104.1354403  94.7048913  96.2169025
 105.6341400  94.6493997  96.0102647  96.5592625 101.0426720  88.1679165
  97.1446062 100.2970408  88.3007070  96.3617463 101.3530677  89.0515829
  99.4131280 104.0777968  83.1841608  98.7441655 104.5624095  82.7005648
  99.2744150 104.3247188  84.0984986  91.1510279  93.6132320  86.8883609
  91.1894379  93.0795911  87.6820727  90.6450572  93.0867526  86.2694586
 103.5536549 106.1121711  89.7824266 104.1054857 106.2753333  90.5473351
 103.8942742 106.7026149  89.1104291  98.5301042  88.4596861  90.3846151
  98.5942368  89.3211692  89.9723549  98.4668162  87.8470863  89.6518509
  98.0053314  90.5319993  94.0319185  98.6325353  90.1497071  94.6456710
  97.1481233  90.3134195  94.3974878 108.4047423 100.9382969  95.6372921
 108.9487327 101.5512927  95.1427875 107.8234268 101.4962547  96.1539934
 106.6904936 104.0603687  86.7687948 106.5656075 103.2593426  86.2598894
 107.3484027 104.5549880  86.2801918  98.3113104  90.4152419  85.9465089
  97.5899690  91.0288387  85.8072562  99.1006360  90.9510184  85.8681735
 108.7539844 101.8612707  88.3967498 107.8070180 101.7418058  88.3245825
 109.1022617 100.9735205  88.4793760 101.1139418  87.7506846  92.2205740
 101.6373819  87.9969142  92.9832050 100.8951751  88.5826880  91.8008878
 105.7586277 101.6565423  84.5971851 105.6111240 100.7282130  84.7779421
 106.5839771 101.6785514  84.1128926  99.6248522  90.3083490  80.4552343
  99.9644594  90.8369411  79.7330951 100.0720642  90.6463896  81.2310909
 109.3620399 102.4793982  85.6836723 110.2866947 102.2736843  85.5461175
 109.1935703 102.2310383  86.5926065 102.3191963  88.6920541  89.9055411
 101.9788783  87.8928354  90.3076091 101.6130969  88.9922252  89.3332244
 102.9708434  85.7769853  88.3582734 103.7934504  85.3030331  88.2361624
 103.2146498  86.5560337  88.8581420 101.6116669  88.8058112  78.6545636
 102.3325031  89.1839364  78.1509352 100.9881973  89.5246988  78.7580614
 105.7547792  89.5103261  79.5903968 105.9711406  90.3927898  79.2892796
 105.2741859  89.1189474  78.8609610 100.4947013  92.4688974  86.1674713
 100.3491594  92.7829277  87.0598994 100.0172217  93.0873874  85.6145611
 102.3543396  89.4591522  86.2155602 102.3404965  88.5632615  85.8787900
 103.0715824  89.4662186  86.8493888 104.2069527  89.8928862  88.2608730
 103.9487305  90.8145933  88.2593060 103.6754567  89.4959297  88.9509194
 109.1515716 102.9979649  81.0398815 109.3252593 102.4326072  80.2872667
 109.6444607 103.7980544  80.8578305  94.9692675  95.0094318  89.1062374
  94.4246143  95.7854126  89.2382648  95.8472025  95.3565123  88.9481495
 101.7580292  88.3405902  81.4843172 101.8796203  87.4122548  81.6834060
 101.4682334  88.3544588  80.5721488 104.6271482  86.0260813  84.6209892
 104.6493179  86.0900146  83.6661872 105.0439541  85.1865321  84.8150398
 115.0055107  95.7616072  82.6589115 115.4486253  95.0123397  82.2608238
 114.1281617  95.7526208  82.2762847 110.1390888 102.3146414  78.1395713
 110.8341793 102.9353106  78.3583028 110.4814038 101.4641765  78.4148091
  95.7558697  94.1364214  91.9992531  95.0140433  94.2846850  92.5857161
  95.4351441  94.3972480  91.1359280 112.0382311  99.7646119  79.6683044
 112.5633635 100.1033392  78.9432364 111.9504664  98.8293134  79.4846179
 103.7002360 103.6780193  91.7972921 104.0089486 103.4329339  92.6695620
 104.4977842 103.8826831  91.3091791 103.7222972 105.8318102  84.0278297
 103.2827962 105.3394481  84.7211154 104.4731089 105.2891070  83.7870372
  96.2015311 102.0229643  84.0302925  97.0273331 101.7233415  83.6501569
  95.8509363 101.2537266  84.4792714 101.1696844 101.3756111  86.1000599
 100.5476853 100.7126816  85.8002827 101.8401711 101.4017243  85.4174247
  94.4023916  99.9415970  84.9891859  93.5655824  99.5138144  84.8075860
  94.3747561 100.1348413  85.9262650 101.2421372  89.8537899  95.6933105
 101.2909527  90.7300022  95.3110874 101.7843886  89.3115293  95.1204748
 111.7276217 100.3979023  94.9734242 110.9371761 100.3803162  94.4338741
 111.4909572 100.9367316  95.7283279 111.8474092  97.2471489  92.2866970
 111.8972097  97.0821497  93.2282493 111.7388016  96.3798748  91.8964851
 100.7310351  99.9260035  79.5759059 100.8798471 100.6095499  78.9225732
 101.5376794  99.9065125  80.0908515 109.1377855  93.2302417  93.6026277
 110.0387717  93.0908882  93.3110275 109.2125829  93.3956872  94.5424455
 103.4720660  90.6069272  92.4479464 102.6023969  90.9002838  92.1762052
 103.7080140  91.1909717  93.1686727 113.3492289  99.6668431  92.5308992
 113.0577097 100.0298411  93.3672453 112.7364420  98.9535439  92.3522324
 114.5487971  97.2321310  85.0511562 115.3834863  97.6711114  85.2149123
 114.6847100  96.7559964  84.2319808 111.5979477  94.7901045  90.9989050
 112.0733599  94.9828692  90.1907901 110.6745043  94.8460231  90.7532434
  98.4862984  95.9525212  80.5820128  98.2409026  95.0487542  80.7800338
  98.6558898  95.9542363  79.6399606 106.1759694  86.8248889  89.9644884
 106.6941638  87.5609916  89.6391372 105.8214827  87.1312882  90.7991643
 106.4272288  83.2449171  85.4845780 106.7074042  82.5772360  86.1106207
 107.2122895  83.4378267  84.9720444 104.2305756 102.4208165  77.0470807
 103.6579724 103.0398352  76.5941279 104.8038550 102.9707527  77.5810729
 110.2981146  91.6666805  89.2317356 111.2498569  91.7664903  89.2529580
 110.1284597  90.8745074  89.7415440 108.3195526  88.7522389  89.4176757
 107.7245458  89.0327401  88.7223245 108.0345222  89.2416289  90.1893498
 107.4503016 102.7045315  78.1779389 108.3833689 102.6390877  78.3812265
 107.3626229 103.5401582  77.7193922 110.0791033 102.0211186  75.1383337
 110.0004664 101.6871049  76.0319095 110.9000700 102.5132954  75.1374809
 112.7769224  94.8872925  88.3459655 112.7445544  93.9488926  88.5319339
 113.3869848  94.9656962  87.6125480 104.6152555  93.7568978  74.3886859
 105.5611660  93.6275186  74.4575277 104.2366800  93.0183640  74.8656287
 112.9263713  91.6783968  88.3917938 112.4102761  90.8942425  88.2047867
 113.8103661  91.3502685  88.5564458 110.5874440  85.4224984  84.3513751
 110.3899261  85.1140072  85.2357083 111.1974145  86.1486623  84.4811681
 118.5945774  95.9488932  87.4865692 119.3249162  95.6874220  88.0473395
 117.9852719  95.2117654  87.5267760 116.6761071  94.0896794  88.0840143
 115.9494235  93.9552759  87.4756635 116.2608358  94.3973623  88.8896861
 104.4991247  97.8086724  95.8487516 105.4194257  97.9865323  96.0427563
 104.4640831  96.8642769  95.6967216 102.7995472  91.6818954  74.3241745
 101.8926928  91.3852067  74.4004458 103.0771453  91.3848772  73.4576031
  93.7173412  93.0025318  84.7740791  93.3976197  92.1490626  84.4815165
  93.1706841  93.2173896  85.5298758  97.4953320  95.7187759  88.4910297
  97.7139330  96.6504867  88.5098331  97.9079094  95.3595733  89.2765101
 104.4157538  86.2255844  80.4785986 103.6058266  85.8802929  80.8541232
 105.1041955  85.9163388  81.0673597 106.3448086  85.3033891  82.1010282
 106.8979125  85.7229344  82.7600306 106.5818172  84.3769639  82.1433238
 102.3681185  91.2920965  97.8813046 102.2677912  92.2415321  97.8125137
 102.1502727  90.9639203  97.0089116  93.5861672  96.6228229  86.7433913
  92.8925144  96.2082182  86.2303867  94.3334663  96.6648766  86.1467331
 109.7226893  87.4134416  81.6088947 109.1425562  88.0719220  81.2266999
 109.4562826  86.5911761  81.1976364 108.1730460  86.8139474  83.8110267
 108.6730238  86.9256008  83.0024586 108.8166068  86.5100527  84.4511075
 102.2312455  94.7218103  96.6978108 101.7479537  95.5218463  96.9041997
 102.3173394  94.7326048  95.7445552  95.4998415  96.5546483  84.6199927
  95.4769103  96.6534170  83.6681810  95.8099052  97.4011634  84.9417094
  98.1585793  98.6122638  88.7346542  99.1129046  98.5806580  88.6676473
  97.9598316  98.1513262  89.5496768  98.7485175  97.1823754  91.3017339
  99.5678064  97.6767833  91.3252177  99.0221983  96.2655722  91.2734907
 108.5051771  89.5734506  80.6645295 107.6177626  89.8584157  80.4465490
 108.9205760  89.4128270  79.8172572 111.8566307  89.5981027  84.3799634
 112.6326697  90.0877480  84.6524251 111.1314442  90.0239082  84.8371504
 114.2938866  90.3108647  85.4373575 114.8883357  90.0704383  84.7266883
 114.3665450  89.5915777  86.0647111  96.5136022 104.1542258  85.7516740
  96.3790490 103.3942658  85.1854738  96.0968084 104.8783157  85.2845529
 107.6494985  99.3379181  74.7593315 108.3530835  99.5429184  75.3750971
 106.9257633  99.9055943  75.0242398 108.4792795  95.0889042  80.8795585
 108.4227996  95.5457594  80.0403218 109.0321137  94.3279727  80.7018428
 112.2897601  90.8778774  81.7045705 112.0334535  90.4775410  82.5353912
 111.6650469  91.5922568  81.5795844 116.6009939  93.6174847  84.2116996
 116.0409497  93.6868037  84.9848558 115.9953442  93.4415832  83.4916492
  99.6705148 105.0511575  85.9635182  99.5537532 105.9957007  85.8613873
  98.8497594 104.7485136  86.3520982 109.5581682  99.7761710  76.8091775
 110.3927286  99.3442909  76.6269250 109.3966025  99.6043724  77.7368669
 109.2127574  96.2793824  78.1748114 109.1576378  96.1138095  77.2336558
 108.5873630  96.9869857  78.3310304  94.0020089  91.5161888  92.0009537
  94.6478953  91.0060842  92.4896762  93.7937240  92.2530570  92.5752962
 106.5273481  98.5842735  97.5001677 107.3964641  98.7583388  97.1388312
 106.0480233  99.4037152  97.3777406 100.6959662 105.7039836  89.1791111
 101.5986908 105.7363447  89.4957606 100.4697032 104.7740287  89.1937447
 102.4513264 104.4570823  85.8401189 101.5008895 104.4572685  85.7265562
 102.7545750 103.7103558  85.3237224 106.3375819  82.3744709  82.0079370
 105.5708215  81.8203196  82.1536052 106.7486524  82.4466578  82.8693521
  98.3417580  88.6629505  96.0984551  99.2049042  88.3066310  96.3087875
  97.7682991  88.3243400  96.7859955 118.1865957 110.2931361  86.9046952
 118.8244367 110.1738109  86.2010292 118.0686800 111.2412205  86.9634904
 114.9955663 110.2458790  86.8408476 114.6574175 110.1299854  85.9529011
 115.8645432 109.8449955  86.8209483 110.8542479 112.0994266  82.8305367
 110.2907344 112.0084203  82.0621655 110.7394874 111.2794170  83.3107860
 115.4775446 111.3993641  92.7994682 115.4664087 111.0046440  91.9275186
 115.6396086 110.6659714  93.3928453 108.4006911 113.5945458  85.6689588
 109.1928203 113.2536282  85.2535887 108.6403561 113.7040433  86.5891741
 116.4342038 115.7665234  78.1419832 115.7830018 116.3519314  77.7553846
 117.2286401 116.2971429  78.2014870 110.3597665 112.8554371  78.5406967
 111.1328541 112.3083358  78.4019842 110.7123064 113.7198620  78.7521428
 112.1982708 114.1830753  91.7473866 111.9072574 115.0876384  91.6320532
 112.8339692 114.2247281  92.4617936 113.1238914 111.5607602  88.3375226
 113.7202487 111.3363624  87.6232189 113.1813886 110.8192347  88.9400673
 112.6963943 109.0147037  76.1725417 112.9489464 108.4928558  75.4108880
 111.7588502 108.8513182  76.2752100 117.7407226 108.0182815  83.9800160
 118.5270315 107.6002238  83.6290577 118.0045930 108.9228907  84.1481808
 117.9117303 113.4555666  78.6788817 117.2763136 113.5290292  79.3909721
 117.5814709 114.0449264  78.0007896 123.1415653 107.9558048  84.8833138
 123.8740825 107.3857265  85.1170968 122.3855009 107.5679649  85.3239644
 112.4160232 110.9175143  78.3749792 112.2996490 110.2420046  79.0430876
 112.5262491 110.4307517  77.5581945 114.7591773 110.3785290  82.0796481
 114.3949980 109.8515911  82.7909402 115.6158888 109.9883759  81.9062966
 120.6641073 101.6679623  89.3427747 120.3324398 102.5375034  89.1188962
 120.0686687 101.3515907  90.0221777 114.3997260 105.4075190  77.0757829
 114.5671662 106.2755426  77.4428300 114.2094429 105.5702471  76.1519119
 117.1572593 113.8692169  88.7423660 116.8573316 114.7717207  88.6339467
 116.8123652 113.6024352  89.5944813 110.6085074 110.3205965  84.7760364
 109.6835571 110.1882180  84.9838056 110.8569487 111.1000185  85.2730306
 120.5569736 106.3874709  86.4221097 119.6486614 106.3190117  86.1279858
 120.5057332 106.8646654  87.2502922 114.3786480 107.8632847  78.0604496
 114.2586106 108.3089898  78.8989976 113.6839069 108.2118165  77.5018034
 107.9693885 109.9639239  85.6104153 108.0986266 110.2173718  86.5243565
 107.2891337 110.5566947  85.2908808 112.1393373 120.6336489  81.7094627
 112.0617402 121.5844314  81.7883108 111.5355016 120.2882361  82.3669554
 114.6310602 107.8064354  94.3655994 113.8543936 108.3658274  94.3558859
 115.2701165 108.2921137  94.8870864 122.4231383 104.5891147  88.1998971
 121.7805763 104.8823680  87.5538765 121.9186311 104.4744067  89.0052168
 120.0771547 108.3354320  78.8884830 120.9889403 108.5681707  78.7132528
 119.5681194 108.9191365  78.3259909 112.8856975 110.6149808  93.9273961
 113.6271659 111.1534852  93.6508785 112.1793960 111.2416096  94.0845513
 118.3612314 112.7578948  92.5246123 118.7695670 112.3161359  91.7800755
 117.6389576 112.1831576  92.7780316 114.7143384 107.6951555  89.8979680
 115.5604579 108.1190968  90.0414329 114.6542022 107.0385179  90.5918243
 118.6841129 113.3180139  86.2798412 118.0549991 113.4825853  85.5774479
 118.2966791 113.7321748  87.0509376 122.5630361 114.2534577  83.6342775
 121.8781399 114.6333478  83.0839809 122.6474210 114.8629903  84.3674723
 117.8642830 105.3555923  91.5560853 117.6203761 106.1097984  91.0195129
 118.1402760 105.7341271  92.3908100 119.8181292 111.8994536  90.2338119
 120.0298188 112.5426296  89.5572500 119.7711041 111.0656852  89.7660049
 117.4207521 104.5112356  87.1374691 116.5592000 104.8093610  87.4291429
 117.4469956 104.7282755  86.2055724 114.2369091 113.0554547  83.5448497
 114.7007436 113.3342250  82.7553119 113.9725889 112.1537991  83.3621587
 111.1293172 112.6026028  86.4828260 111.6994529 113.0313297  85.8445744
 111.7201284 112.3208613  87.1812446 113.1737977 109.1777699  80.3538062
 113.8762020 109.6298743  80.8211988 112.8418605 108.5361518  80.9817955
 111.6218338 107.7689456  94.7289271 110.9916999 108.4505737  94.9624668
 111.5154426 107.6572537  93.7842409 106.9163311 107.4361252  85.6555195
 106.1262365 107.6918780  85.1795306 107.4074558 108.2509590  85.7607236
 120.9327120 114.7766491  88.4060476 121.7544564 114.3746678  88.1243158
 120.9289523 114.6734725  89.3576592 108.8678056 107.8005831  82.6138672
 108.0709219 107.9124525  83.1322168 108.6403648 108.1392483  81.7479563
 114.6983724 114.3250534  90.5621187 114.7628156 114.7870942  91.3979359
 113.9894648 113.6947899  90.6903497 105.2001014 107.6891742  88.0870186
 105.4509052 108.5738752  88.3527762 105.7360562 107.5096344  87.3145278
 129.0233113 111.1205240  84.7545448 128.2696822 110.5512638  84.5989452
 129.1580655 111.0867904  85.7016082 114.4131741 115.9918642  80.4300167
 114.2777416 116.8370178  80.8585015 114.9541554 116.1937920  79.6666101
 110.8999081 102.0710222  97.0914522 110.5066027 101.5176420  97.7662167
 111.7165221 102.3820800  97.4821040 107.8661139 113.5094080  81.0028092
 108.3785659 114.3037330  81.1533657 108.5183852 112.8120370  80.9361694
 109.6756024 116.6259836  83.0850845 109.8522652 117.5477801  82.8971829
 110.4712857 116.3118255  83.5145225 113.8167042 103.4868101  94.6834779
 114.5576755 104.0875254  94.6039241 114.0484965 102.7445739  94.1252821
 108.9608380 108.6724468  92.9613009 108.8461895 107.7709725  93.2620107
 108.1052898 108.9188165  92.6097825 116.0400218 116.6142208  94.5600509
 115.5964072 115.8278587  94.2421414 116.7017431 116.8021359  93.8944400
 110.7987339 118.1438010  89.0861188 111.3494764 118.0155073  88.3138182
 109.9598815 118.4432899  88.7356080 118.1381456 116.8945008  92.5881910
 118.1199931 117.7153889  92.0962180 119.0601376 116.7699084  92.8132052
 114.5954510 114.4089138  93.4305419 115.1282847 113.6477426  93.2004727
 114.0668591 114.1162790  94.1729573 117.7624205  99.5149204  88.9599061
 117.4188474 100.4050845  88.8838171 118.1303168  99.3250861  88.0968646
 105.8310056 111.8382734  81.7787663 106.6685278 112.2479743  81.5621370
 106.0088323 110.8982176  81.7487857 117.7274488 109.5057815  77.4671496
 117.2121111 110.2762419  77.7059883 117.4551796 108.8322951  78.0904557
 115.3121599 104.3507516  82.5256734 114.4563195 103.9614366  82.3462373
 115.7248551 104.4299476  81.6656520 116.8420745 101.8853859  86.9248294
 116.3385541 101.8483994  86.1116099 117.1351352 102.7946602  86.9844950
 113.0863631 101.9692589  85.9314476 113.9516628 101.7735397  85.5720365
 113.1541140 101.7402940  86.8583832 122.7008762 112.2590169  79.4024669
 121.9238205 111.9201329  78.9579831 123.3800243 112.2642793  78.7279634
 117.5160791 107.3784907  79.2931277 117.2110926 107.6931056  80.1441420
 118.4691233 107.4566327  79.3358610 115.9607223 113.5375130  80.9424231
 115.4328584 112.8027890  80.6297468 115.4594725 114.3149807  80.6964199
 120.9400069 111.7324151  86.0591277 120.2823743 112.4223412  86.1471406
 121.7440468 112.1220583  86.4025263 110.6925950 104.1994797  83.3030842
 111.2669702 103.9769978  82.5704035 111.2796933 104.2683491  84.0559444
 119.7505528 110.0868523  84.1095219 120.2637409 110.7198515  84.6116929
 120.4006751 109.4869719  83.7438579 111.0195537 106.2299258  77.3226728
 110.1832850 106.5673944  77.6436002 110.8800307 106.0948237  76.3853865
 112.9948618 101.0736045  82.0305912 112.3413030 100.7585063  81.4062527
 112.9529092 100.4511786  82.7565735 114.1059823 111.3555341  73.9459204
 113.1986885 111.1244594  74.1450353 114.6030855 110.5592960  74.1333185
 117.0127902 120.0652848  76.8655890 116.3389601 120.3684544  77.4740848
 117.3993724 120.8681928  76.5161347 116.2286358 107.5617979  86.3553559
 115.3108920 107.7832926  86.1975247 116.6446502 107.6364289  85.4965267
 117.0121406 108.9609395  81.4856240 117.7593225 109.4730792  81.1763362
 117.2812996 108.6393447  82.3460633 115.2848056 111.4567935  78.4683194
 114.3759276 111.1726968  78.5655664 115.3143140 111.8767014  77.6086501
 120.5167324 115.0674525  82.2374362 120.0629651 114.2265435  82.2939552
 119.8861290 115.7035923  82.5749142 119.4600243 105.9966511  83.4675029
 118.7223000 105.4843897  83.7985272 119.7127017 105.5566893  82.6558306
 118.9600263 116.9051022  83.1724180 119.2523237 117.4656079  82.4536545
 119.4698884 117.1979583  83.9277339 119.5611871  98.7742763  84.0616798
 119.8670747  97.9140126  83.7742713 120.2864475  99.3660383  83.8615792
 105.8536227 109.1773450  82.4498396 105.6560627 108.5842810  81.7249463
 105.2982891 108.8725660  83.1674335 113.8332950 109.0696556  84.5692989
 113.8881560 108.1170392  84.4935466 113.0224152 109.2255995  85.0534288
 114.9824144 112.9976679  75.8071273 114.5443574 112.2812538  75.3476910
 115.7234585 113.2252794  75.2456364 111.7725310 107.6873616  82.3283368
 110.9593176 107.9867786  82.7348560 112.2684304 107.2929305  83.0457850
 113.9233888 117.6831373  84.2617633 113.8810067 117.9092219  83.3326165
 114.8396587 117.4494747  84.4103434 117.3699522 108.1515440  91.1598262
 117.7248910 108.3786913  92.0192728 118.0171653 108.4833817  90.5375517
 123.0997259 111.2733876  81.8647591 122.9615158 111.4635472  80.9368780
 122.7433478 112.0353259  82.3215642 111.2639385 105.2591971  87.9444603
 111.9038764 105.1180730  87.2467566 110.4316916 104.9726485  87.5683205
 123.1266639 113.3410403  86.8758863 123.5603145 113.2485692  87.7241917
 123.8398219 113.3167904  86.2378879 112.0399689 114.5594402  84.0579596
 112.8340287 114.0644722  83.8562171 111.3291381 114.0312265  83.6947301
 116.8594533 116.9412497  88.4091963 116.9131556 117.5103434  89.1769679
 115.9909315 117.1114382  88.0446000 108.3482452 108.7037483  80.1339348
 107.4180041 108.6421939  80.3509310 108.4439924 108.1813436  79.3375990
 108.2668001 105.2292296  82.7217590 108.5274819 106.1437629  82.6126750
 109.0885174 104.7616739  82.8714203 109.7392927 106.6430053  89.8916414
 110.4115980 106.4347416  89.2429063 108.9122713 106.4452139  89.4521647
 123.9882188 113.3834104  89.4091748 124.1818078 114.2879914  89.6551023
 123.8882806 112.9241523  90.2430333 115.6418499 103.2691994  91.9082075
 114.9946414 103.9681944  91.8146552 116.4119514 103.7028138  92.2758324
 119.0497297 113.5340847  94.9832629 118.8982803 113.3051398  94.0662712
 119.0401976 114.4911448  94.9963974 115.8182633 111.1072759  89.9678895
 116.7474693 111.2583919  89.7947862 115.3973663 111.1956780  89.1127542
 114.6170965 115.1323424  87.7377433 114.4782051 114.7642208  88.6103371
 113.8285561 115.6471063  87.5661390 115.2119117 120.2332520  79.0802969
 115.3870873 119.7620563  79.8948592 114.5251905 120.8598286  79.3084230
 116.1676180 114.5105026  85.1266270 115.8326013 114.4705796  86.0223920
 115.6680126 113.8449742  84.6536681 110.1420424 109.9172656  90.6518852
 110.0040222 109.1852895  91.2530391 111.0525348 109.8281556  90.3703039
 119.1035372 111.8561061  75.4003330 118.4864542 111.1307889  75.3036383
 118.6351860 112.6170421  75.0570404 112.7702725 109.6292616  90.1402531
 113.4802343 108.9885808  90.0989150 112.7272033 109.8805511  91.0628712
 120.7589503 116.5659969  93.0609110 120.7002050 115.8819189  92.3939693
 121.1609022 117.3078959  92.6089736 111.4831659 106.6157834  91.9598171
 110.9469016 106.1648572  92.6119767 110.8948367 106.7503742  91.2168635
 109.7780202 123.3821883  85.8542829 110.0176800 124.0140407  86.5321848
 108.9349399 123.0309923  86.1408189 110.8933918 106.0746485  74.5224634
 110.0163384 105.9535286  74.1586881 111.3691671 105.2832563  74.2703523
 120.7606911 114.5299553  91.2923090 119.8733689 114.1925475  91.4149489
 121.3305462 113.7982584  91.5291856 102.4136058 110.8623645  84.6166142
 103.1007098 110.5485375  84.0287157 102.2584186 111.7665009  84.3433393
 107.2170780 105.7513841  89.0451165 107.1328969 105.1439511  88.3101575
 106.3953486 106.2422860  89.0460662 114.2908064 119.1901005  88.2584333
 114.2178236 119.9955977  88.7703638 113.8485457 119.3892971  87.4332355
 114.0797844 118.4272775  81.7687155 113.2965366 118.9694456  81.8625379
 114.7790589 118.9446755  82.1681396 117.3894494 104.2367405  84.4121360
 117.8863193 103.4837367  84.0922431 116.6181475 104.2731721  83.8464570
 125.2424251 109.9407770  86.0539652 125.2314127 110.8232486  85.6833585
 124.3741631 109.5879321  85.8594189 116.7506748 119.0887839  90.4142492
 117.4634720 119.7235304  90.3418393 116.2596776 119.1851705  89.5982494
 118.4724275 112.9939092  81.9859784 117.5380553 113.1140555  81.8164488
 118.6500943 112.0911559  81.7219794 113.9729463 106.3784788  84.1393045
 113.6027250 105.8255828  84.8273950 114.4688555 105.7742921  83.5868045
 121.8596826 108.8356411  82.5209818 122.3257278 109.6684403  82.4470120
 122.3104326 108.3701393  83.2255076 111.8018661 116.8382283  91.2348063
 112.5028121 117.4718766  91.3877457 111.3313776 117.1797014  90.4743702
 119.9273057 115.1800233  79.5195970 120.2032901 115.0656827  80.4289844
 119.0577556 114.7817717  79.4808143 119.8313489 101.2036998  86.5600719
 118.9176568 101.4341225  86.7282926 120.2606590 101.2875442  87.4114752
 119.6019947 109.3926890  89.0600613 118.9491397 109.6402798  88.4053066
 119.9800327 108.5791028  88.7263090 116.5627121 119.4286583  83.1628783
 116.7449516 118.6108239  83.6256536 117.3860107 119.6454276  82.7253673
 116.8969286 118.3554769  80.4243832 117.4257053 117.8447223  79.8113994
 117.1597506 118.0397299  81.2889365 115.6507520 110.1346701  95.5466650
 114.9748157 110.0340831  96.2169025 116.4735154 109.9785915  96.0102647
 107.3986379 116.3718638  88.1679165 107.9839816 115.6262326  88.3007070
 107.2011218 116.6822595  89.0515829 110.2525034 119.4069885  83.1841608
 109.5835410 119.8916013  82.7005648 110.1137904 119.6539106  84.0984986
 101.9904034 108.9424238  86.8883609 102.0288133 108.4087829  87.6820727
 101.4844327 108.4159444  86.2694586 114.3930303 121.4413629  89.7824266
 114.9448611 121.6045250  90.5473351 114.7336496 122.0318067  89.1104291
 109.3694796 103.7888779  90.3846151 109.4336123 104.6503610  89.9723549
 109.3061916 103.1762780  89.6518509 108.8447069 105.8611911  94.0319185
 109.4719108 105.4788988  94.6456710 107.9874988 105.6426113  94.3974878
 119.2441177 116.2674886  95.6372921 119.7881081 116.8804845  95.1427875
 118.6628022 116.8254465  96.1539934 105.6212612 107.6688340  79.9637540
 105.9166053 106.7599019  79.9104594 104.7200647 107.6476080  79.6418542
 117.5298690 119.3895604  86.7687948 117.4049830 118.5885344  86.2598894
 118.1877781 119.8841798  86.2801918 109.1506859 105.7444337  85.9465089
 108.4293444 106.3580305  85.8072562 109.9400114 106.2802102  85.8681735
 119.5933599 117.1904624  88.3967498 118.6463934 117.0709976  88.3245825
 119.9416372 116.3027122  88.4793760 111.9533172 103.0798763  92.2205740
 112.4767574 103.3261060  92.9832050 111.7345505 103.9118798  91.8008878
 107.3500453 105.3502438  80.0876865 107.0213159 104.4699817  79.9051971
 107.7039824 105.2950107  80.9753254 116.5980032 116.9857341  84.5971851
 116.4504994 116.0574048  84.7779421 117.4233525 117.0077431  84.1128926
 110.4642276 105.6375408  80.4552343 110.8038349 106.1661329  79.7330951
 110.9114397 105.9755814  81.2310909 120.2014154 117.8085899  85.6836723
 121.1260701 117.6028761  85.5461175 120.0329457 117.5602301  86.5926065
 113.1585717 104.0212458  89.9055411 112.8182537 103.2220271  90.3076091
 112.4524723 104.3214169  89.3332244 113.8102189 101.1061771  88.3582734
 114.6328258 100.6322249  88.2361624 114.0540252 101.8852255  88.8581420
 112.4510423 104.1350029  78.6545636 113.1718786 104.5131282  78.1509352
 111.8275728 104.8538906  78.7580614 116.5941546 104.8395178  79.5903968
 116.8105161 105.7219816  79.2892796 116.1135613 104.4481392  78.8609610
 111.3340768 107.7980891  86.1674713 111.1885348 108.1121195  87.0598994
 110.8565971 108.4165792  85.6145611 113.1937151 104.7883439  86.2155602
 113.1798719 103.8924533  85.8787900 113.9109579 104.7954103  86.8493888
 115.0463281 105.2220780  88.2608730 114.7881059 106.1437850  88.2593060
 114.5148322 104.8251214  88.9509194 119.9909470 118.3271567  81.0398815
 120.1646348 117.7617989  80.2872667 120.4838361 119.1272462  80.8578305
 105.8086430 110.3386236  89.1062374 105.2639898 111.1146044  89.2382648
 106.6865780 110.6857040  88.9481495 112.5974046 103.6697820  81.4843172
 112.7189958 102.7414466  81.6834060 112.3076089 103.6836506  80.5721488
 115.4665237 101.3552730  84.6209892 115.4886934 101.4192063  83.6661872
 115.8833296 100.5157239  84.8150398 125.8448861 111.0907990  82.6589115
 126.2880007 110.3415315  82.2608238 124.9675371 111.0818126  82.2762847
 120.9784643 117.6438331  78.1395713 121.6735547 118.2645024  78.3583028
 121.3207793 116.7933682  78.4148091 106.5952452 109.4656132  91.9992531
 105.8534188 109.6138768  92.5857161 106.2745196 109.7264398  91.1359280
 122.8776066 115.0938037  79.6683044 123.4027390 115.4325310  78.9432364
 122.7898418 114.1585052  79.4846179 114.5396114 119.0072110  91.7972921
 114.8483241 118.7621257  92.6695620 115.3371596 119.2118749  91.3091791
 114.5616726 121.1610020  84.0278297 114.1221717 120.6686399  84.7211154
 115.3124843 120.6182988  83.7870372 107.0409065 117.3521561  84.0302925
 107.8667085 117.0525333  83.6501569 106.6903117 116.5829183  84.4792714
 112.0090599 116.7048029  86.1000599 111.3870608 116.0418734  85.8002827
 112.6795465 116.7309161  85.4174247 105.2417670 115.2707887  84.9891859
 104.4049579 114.8430062  84.8075860 105.2141316 115.4640331  85.9262650
 112.0815126 105.1829817  95.6933105 112.1303281 106.0591940  95.3110874
 112.6237640 104.6407210  95.1204748 122.5669972 115.7270940  94.9734242
 121.7765515 115.7095079  94.4338741 122.3303326 116.2659234  95.7283279
 122.6867847 112.5763407  92.2866970 122.7365852 112.4113414  93.2282493
 122.5781770 111.7090666  91.8964851 111.5704105 115.2551952  79.5759059
 111.7192226 115.9387417  78.9225732 112.3770549 115.2357043  80.0908515
 119.9771609 108.5594335  93.6026277 120.8781472 108.4200800  93.3110275
 120.0519584 108.7248790  94.5424455 114.3114414 105.9361190  92.4479464
 113.4417724 106.2294756  92.1762052 114.5473895 106.5201635  93.1686727
 124.1886044 114.9960348  92.5308992 123.8970852 115.3590329  93.3672453
 123.5758175 114.2827357  92.3522324 125.3881726 112.5613228  85.0511562
 126.2228617 113.0003032  85.2149123 125.5240855 112.0851881  84.2319808
 122.4373232 110.1192963  90.9989050 122.9127353 110.3120609  90.1907901
 121.5138797 110.1752149  90.7532434 109.3256738 111.2817130  80.5820128
 109.0802780 110.3779460  80.7800338 109.4952653 111.2834281  79.6399606
 117.0153448 102.1540806  89.9644884 117.5335392 102.8901833  89.6391372
 116.6608581 102.4604800  90.7991643 108.5952386 107.0145488  78.0806290
 107.9021631 107.0889843  77.4246326 108.3504138 106.2505831  78.6027807
 117.2666042  98.5741089  85.4845780 117.5467796  97.9064278  86.1106207
 118.0516649  98.7670185  84.9720444 115.0699511 117.7500083  77.0470807
 114.4973478 118.3690270  76.5941279 115.6432305 118.2999445  77.5810729
 121.1374901 106.9958723  89.2317356 122.0892324 107.0956821  89.2529580
 120.9678351 106.2036992  89.7415440 119.1589280 104.0814306  89.4176757
 118.5639212 104.3619319  88.7223245 118.8738977 104.5708207  90.1893498
 118.2896771 118.0337233  78.1779389 119.2227444 117.9682795  78.3812265
 118.2019984 118.8693500  77.7193922 120.9184787 117.3503103  75.1383337
 120.8398419 117.0162967  76.0319095 121.7394454 117.8424871  75.1374809
 123.6162979 110.2164843  88.3459655 123.5839299 109.2780843  88.5319339
 124.2263602 110.2948879  87.6125480 115.4546309 109.0860896  74.3886859
 116.4005414 108.9567104  74.4575277 115.0760554 108.3475558  74.8656287
 123.7657467 107.0075886  88.3917938 123.2496516 106.2234343  88.2047867
 124.6497416 106.6794603  88.5564458 121.4268194 100.7516902  84.3513751
 121.2293015 100.4431990  85.2357083 122.0367900 101.4778541  84.4811681
 129.4339528 111.2780850  87.4865692 130.1642917 111.0166138  88.0473395
 128.8246474 110.5409571  87.5267760 127.5154826 109.4188712  88.0840143
 126.7887989 109.2844677  87.4756635 127.1002112 109.7265541  88.8896861
 115.3385002 113.1378642  95.8487516 116.2588011 113.3157241  96.0427563
 115.3034585 112.1934687  95.6967216 113.6389227 107.0110872  74.3241745
 112.7320682 106.7143985  74.4004458 113.9165208 106.7140690  73.4576031
 104.5567167 108.3317235  84.7740791 104.2369951 107.4782544  84.4815165
 104.0100595 108.5465814  85.5298758 108.3347075 111.0479676  88.4910297
 108.5533084 111.9796784  88.5098331 108.7472848 110.6887651  89.2765101
 115.2551292 101.5547762  80.4785986 114.4452021 101.2094847  80.8541232
 115.9435709 101.2455305  81.0673597 117.1841841 100.6325809  82.1010282
 117.7372879 101.0521262  82.7600306 117.4211927  99.7061557  82.1433238
 113.2074940 106.6212882  97.8813046 113.1071667 107.5707239  97.8125137
 112.9896482 106.2931121  97.0089116 112.4088011 103.8697807  74.4653724
 113.2707175 104.1952706  74.7249541 112.5938355 103.0829303  73.9526790
 104.4255427 111.9520147  86.7433913 103.7318898 111.5374100  86.2303867
 105.1728418 111.9940683  86.1467331 120.5620648 102.7426334  81.6088947
 119.9819317 103.4011138  81.2266999 120.2956580 101.9203678  81.1976364
 119.0124214 102.1431391  83.8110267 119.5123992 102.2547926  83.0024586
 119.6559822 101.8392444  84.4511075 113.0706210 110.0510021  96.6978108
 112.5873292 110.8510381  96.9041997 113.1567149 110.0617966  95.7445552
 106.3392170 111.8838401  84.6199927 106.3162858 111.9826088  83.6681810
 106.6492806 112.7303552  84.9417094 108.9979547 113.9414556  88.7346542
 109.9522801 113.9098498  88.6676473 108.7992071 113.4805179  89.5496768
 109.5878930 112.5115672  91.3017339 110.4071819 113.0059750  91.3252177
 109.8615737 111.5947640  91.2734907 119.3445526 104.9026424  80.6645295
 118.4571381 105.1876075  80.4465490 119.7599515 104.7420187  79.8172572
 122.6960062 104.9272945  84.3799634 123.4720452 105.4169398  84.6524251
 121.9708196 105.3530999  84.8371504 125.1332620 105.6400564  85.4373575
 125.7277111 105.3996300  84.7266883 125.2059204 104.9207695  86.0647111
 107.3529776 119.4834175  85.7516740 107.2184244 118.7234576  85.1854738
 106.9361838 120.2075075  85.2845529 118.4888739 114.6671099  74.7593315
 119.1924589 114.8721101  75.3750971 117.7651388 115.2347861  75.0242398
 119.3186549 110.4180960  80.8795585 119.2621751 110.8749511  80.0403218
 119.8714892 109.6571645  80.7018428 123.1291355 106.2070692  81.7045705
 122.8728290 105.8067328  82.5353912 122.5044223 106.9214486  81.5795844
 127.4403693 108.9466765  84.2116996 126.8803251 109.0159954  84.9848558
 126.8347197 108.7707750  83.4916492 110.5098902 120.3803492  85.9635182
 110.3931286 121.3248925  85.8613873 109.6891348 120.0777054  86.3520982
 120.3975437 115.1053628  76.8091775 121.2321041 114.6734826  76.6269250
 120.2359780 114.9335642  77.7368669 120.0521329 111.6085741  78.1748114
 119.9970133 111.4430013  77.2336558 119.4267384 112.3161774  78.3310304
 104.8413844 106.8453806  92.0009537 105.4872707 106.3352760  92.4896762
 104.6330995 107.5822487  92.5752962 117.3667236 113.9134653  97.5001677
 118.2358396 114.0875305  97.1388312 116.8873987 114.7329070  97.3777406
 113.3617454 101.1093850  77.7533433 113.3496124 102.0535690  77.9101704
 114.2540876 100.9263996  77.4592894 111.5353416 121.0331754  89.1791111
 112.4380663 121.0655364  89.4957606 111.3090786 120.1032205  89.1937447
 113.2907018 119.7862741  85.8401189 112.3402649 119.7864602  85.7265562
 113.5939504 119.0395475  85.3237224 117.1769574  97.7036627  82.0079370
 116.4101970  97.1495114  82.1536052 117.5880279  97.7758496  82.8693521
 109.1811335 103.9921423  96.0984551 110.0442796 103.6358228  96.3087875
 108.6076745 103.6535318  96.7859955 129.0259712 125.6223279  86.9046952
 129.6638122 125.5030026  86.2010292 128.9080555 126.5704123  86.9634904
 125.8349418 125.5750707  86.8408476 125.4967929 125.4591772  85.9529011
 126.7039186 125.1741872  86.8209483 121.6936234 127.4286184  82.8305367
 121.1301099 127.3376121  82.0621655 121.5788629 126.6086088  83.3107860
 126.3169201 126.7285559  92.7994682 126.3057842 126.3338357  91.9275186
 126.4789840 125.9951632  93.3928453 119.2400666 128.9237375  85.6689588
 120.0321958 128.5828200  85.2535887 119.4797316 129.0332350  86.5891741
 127.2735792 131.0957151  78.1419832 126.6223772 131.6811232  77.7553846
 128.0680155 131.6263346  78.2014870 121.1991420 128.1846288  78.5406967
 121.9722296 127.6375276  78.4019842 121.5516818 129.0490538  78.7521428
 123.0376462 129.5122671  91.7473866 122.7466328 130.4168302  91.6320532
 123.6733446 129.5539198  92.4617936 123.9632669 126.8899519  88.3375226
 124.5596241 126.6655542  87.6232189 124.0207640 126.1484265  88.9400673
 123.5357697 124.3438955  76.1725417 123.7883218 123.8220476  75.4108880
 122.5982256 124.1805100  76.2752100 128.5800980 123.3474733  83.9800160
 129.3664069 122.9294156  83.6290577 128.8439685 124.2520825  84.1481808
 128.7511058 128.7847583  78.6788817 128.1156891 128.8582210  79.3909721
 128.4208464 129.3741182  78.0007896 133.9809407 123.2849966  84.8833138
 134.7134579 122.7149183  85.1170968 133.2248763 122.8971567  85.3239644
 123.2553986 126.2467061  78.3749792 123.1390244 125.5711964  79.0430876
 123.3656246 125.7599434  77.5581945 125.5985527 125.7077208  82.0796481
 125.2343734 125.1807829  82.7909402 126.4552643 125.3175677  81.9062966
 131.5034828 116.9971540  89.3427747 131.1718152 117.8666951  89.1188962
 130.9080441 116.6807824  90.0221777 125.2391014 120.7367107  77.0757829
 125.4065416 121.6047344  77.4428300 125.0488183 120.8994389  76.1519119
 127.9966347 129.1984086  88.7423660 127.6967070 130.1009125  88.6339467
 127.6517407 128.9316269  89.5944813 121.4478829 125.6497883  84.7760364
 120.5229325 125.5174097  84.9838056 121.6963242 126.4292102  85.2730306
 131.3963491 121.7166626  86.4221097 130.4880368 121.6482035  86.1279858
 131.3451087 122.1938571  87.2502922 125.2180235 123.1924765  78.0604496
 125.0979860 123.6381816  78.8989976 124.5232823 123.5410083  77.5018034
 118.8087640 125.2931157  85.6104153 118.9380021 125.5465636  86.5243565
 118.1285091 125.8858865  85.2908808 122.9787127 135.9628407  81.7094627
 122.9011157 136.9136232  81.7883108 122.3748771 135.6174279  82.3669554
 125.4704357 123.1356272  94.3655994 124.6937691 123.6950192  94.3558859
 126.1094920 123.6213055  94.8870864 133.2625137 119.9183065  88.1998971
 132.6199518 120.2115598  87.5538765 132.7580066 119.8035985  89.0052168
 130.9165301 123.6646238  78.8884830 131.8283157 123.8973625  78.7132528
 130.4074948 124.2483282  78.3259909 123.7250729 125.9441725  93.9273961
 124.4665413 126.4826769  93.6508785 123.0187715 126.5708014  94.0845513
 129.2006069 128.0870866  92.5246123 129.6089425 127.6453276  91.7800755
 128.4783330 127.5123493  92.7780316 125.5537139 123.0243473  89.8979680
 126.3998334 123.4482886  90.0414329 125.4935776 122.3677097  90.5918243
 129.5234883 128.6472056  86.2798412 128.8943746 128.8117771  85.5774479
 129.1360545 129.0613666  87.0509376 128.7036584 120.6847841  91.5560853
 128.4597516 121.4389901  91.0195129 128.9796515 121.0633189  92.3908100
 130.6575047 127.2286453  90.2338119 130.8691942 127.8718213  89.5572500
 130.6104795 126.3948770  89.7660049 128.2601276 119.8404274  87.1374691
 127.3985755 120.1385528  87.4291429 128.2863710 120.0574673  86.2055724
 125.0762845 128.3846465  83.5448497 125.5401191 128.6634168  82.7553119
 124.8119643 127.4829909  83.3621587 121.9686926 127.9317946  86.4828260
 122.5388283 128.3605214  85.8445744 122.5595038 127.6500531  87.1812446
 124.0131731 124.5069617  80.3538062 124.7155775 124.9590661  80.8211988
 123.6812360 123.8653436  80.9817955 122.4612093 123.0981374  94.7289271
 121.8310753 123.7797654  94.9624668 122.3548181 122.9864455  93.7842409
 117.7557065 122.7653170  85.6555195 116.9656119 123.0210698  85.1795306
 118.2468313 123.5801507  85.7607236 131.7720875 130.1058409  88.4060476
 132.5938319 129.7038596  88.1243158 131.7683278 130.0026643  89.3576592
 119.7071811 123.1297749  82.6138672 118.9102974 123.2416443  83.1322168
 119.4797403 123.4684401  81.7479563 125.5377478 129.6542452  90.5621187
 125.6021911 130.1162859  91.3979359 124.8288402 129.0239817  90.6903497
 116.0394768 123.0183660  88.0870186 116.2902807 123.9030670  88.3527762
 116.5754317 122.8388262  87.3145278 125.2525496 131.3210560  80.4300167
 125.1171171 132.1662095  80.8585015 125.7935308 131.5229837  79.6666101
 121.7392836 117.4002139  97.0914522 121.3459781 116.8468338  97.7662167
 122.5558976 117.7112718  97.4821040 118.7054893 128.8385998  81.0028092
 119.2179414 129.6329248  81.1533657 119.3577606 128.1412288  80.9361694
 120.5149778 131.9551754  83.0850845 120.6916406 132.8769719  82.8971829
 121.3106612 131.6410173  83.5145225 124.6560797 118.8160018  94.6834779
 125.3970510 119.4167172  94.6039241 124.8878719 118.0737656  94.1252821
 119.8002135 124.0016386  92.9613009 119.6855650 123.1001643  93.2620107
 118.9446652 124.2480083  92.6097825 126.8793972 131.9434126  94.5600509
 126.4357826 131.1570505  94.2421414 127.5411186 132.1313277  93.8944400
 121.6381093 133.4729928  89.0861188 122.1888519 133.3446991  88.3138182
 120.7992569 133.7724817  88.7356080 125.4348265 129.7381055  93.4305419
 125.9676601 128.9769344  93.2004727 124.9062346 129.4454707  94.1729573
 128.6017959 114.8441121  88.9599061 128.2582229 115.7342763  88.8838171
 128.9696922 114.6542779  88.0968646 116.6703810 127.1674652  81.7787663
 117.5079032 127.5771660  81.5621370 116.8482078 126.2274094  81.7487857
 128.5668242 124.8349733  77.4671496 128.0514866 125.6054337  77.7059883
 128.2945551 124.1614869  78.0904557 126.1515353 119.6799433  82.5256734
 125.2956950 119.2906284  82.3462373 126.5642305 119.7591394  81.6656520
 127.6814500 117.2145777  86.9248294 127.1779295 117.1775912  86.1116099
 127.9745107 118.1238519  86.9844950 123.9257386 117.2984506  85.9314476
 124.7910383 117.1027315  85.5720365 123.9934895 117.0694858  86.8583832
 133.5402516 127.5882087  79.4024669 132.7631959 127.2493247  78.9579831
 134.2193997 127.5934710  78.7279634 128.3554545 122.7076825  79.2931277
 128.0504681 123.0222974  80.1441420 129.3084987 122.7858245  79.3358610
 126.8000977 128.8667048  80.9424231 126.2722339 128.1319808  80.6297468
 126.2988480 129.6441724  80.6964199 131.7793823 127.0616068  86.0591277
 131.1217498 127.7515330  86.1471406 132.5834222 127.4512500  86.4025263
 121.5319705 119.5286714  83.3030842 122.1063457 119.3061896  82.5704035
 122.1190687 119.5975409  84.0559444 130.5899282 125.4160441  84.1095219
 131.1031164 126.0490433  84.6116929 131.2400506 124.8161637  83.7438579
 121.8589292 121.5591175  77.3226728 121.0226604 121.8965862  77.6436002
 121.7194062 121.4240155  76.3853865 123.8342373 116.4027963  82.0305912
 123.1806785 116.0876980  81.4062527 123.7922847 115.7803704  82.7565735
 124.9453577 126.6847258  73.9459204 124.0380639 126.4536512  74.1450353
 125.4424609 125.8884877  74.1333185 127.0680113 122.8909897  86.3553559
 126.1502674 123.1124844  86.1975247 127.4840257 122.9656207  85.4965267
 127.8515161 124.2901312  81.4856240 128.5986980 124.8022710  81.1763362
 128.1206750 123.9685365  82.3460633 126.1241811 126.7859853  78.4683194
 125.2153030 126.5018886  78.5655664 126.1536895 127.2058932  77.6086501
 131.3561078 130.3966443  82.2374362 130.9023405 129.5557352  82.2939552
 130.7255045 131.0327841  82.5749142 130.2993998 121.3258429  83.4675029
 129.5616755 120.8135815  83.7985272 130.5520771 120.8858810  82.6558306
 130.4005625 114.1034681  84.0616798 130.7064502 113.2432044  83.7742713
 131.1258230 114.6952301  83.8615792 116.6929981 124.5065367  82.4498396
 116.4954381 123.9134728  81.7249463 116.1376645 124.2017577  83.1674335
 124.6726705 124.3988474  84.5692989 124.7275315 123.4462310  84.4935466
 123.8617907 124.5547913  85.0534288 125.8217899 128.3268597  75.8071273
 125.3837329 127.6104456  75.3476910 126.5628339 128.5544712  75.2456364
 122.6119065 123.0165533  82.3283368 121.7986930 123.3159704  82.7348560
 123.1078059 122.6221222  83.0457850 124.7627643 133.0123290  84.2617633
 124.7203821 133.2384137  83.3326165 125.6790342 132.7786665  84.4103434
 128.2093276 123.4807358  91.1598262 128.5642664 123.7078831  92.0192728
 128.8565408 123.8125735  90.5375517 133.9391013 126.6025794  81.8647591
 133.8008912 126.7927390  80.9368780 133.5827232 127.3645177  82.3215642
 122.1033140 120.5883889  87.9444603 122.7432519 120.4472648  87.2467566
 121.2710670 120.3018402  87.5683205 133.9660393 128.6702321  86.8758863
 134.3996900 128.5777610  87.7241917 134.6791974 128.6459821  86.2378879
 122.8793443 129.8886319  84.0579596 123.6734042 129.3936639  83.8562171
 122.1685136 129.3604182  83.6947301 127.6988288 132.2704415  88.4091963
 127.7525310 132.8395351  89.1769679 126.8303069 132.4406300  88.0446000
 119.1876207 124.0329401  80.1339348 118.2573795 123.9713857  80.3509310
 119.2833679 123.5105354  79.3375990 119.1061756 120.5584214  82.7217590
 119.3668573 121.4729547  82.6126750 119.9278928 120.0908656  82.8714203
 120.5786681 121.9721971  89.8916414 121.2509735 121.7639333  89.2429063
 119.7516468 121.7744057  89.4521647 126.4812253 118.5983912  91.9082075
 125.8340168 119.2973862  91.8146552 127.2513269 119.0320056  92.2758324
 129.8891051 128.8632764  94.9832629 129.7376558 128.6343316  94.0662712
 129.8795731 129.8203366  94.9963974 126.6576388 126.4364677  89.9678895
 127.5868448 126.5875837  89.7947862 126.2367418 126.5248698  89.1127542
 125.4564719 130.4615341  87.7377433 125.3175805 130.0934126  88.6103371
 124.6679316 130.9762981  87.5661390 127.0069935 129.8396944  85.1266270
 126.6719767 129.7997714  86.0223920 126.5073880 129.1741660  84.6536681
 120.9814179 125.2464574  90.6518852 120.8433976 124.5144813  91.2530391
 121.8919102 125.1573474  90.3703039 129.9429126 127.1852978  75.4003330
 129.3258297 126.4599807  75.3036383 129.4745615 127.9462339  75.0570404
 123.6096479 124.9584533  90.1402531 124.3196098 124.3177726  90.0989150
 123.5665787 125.2097428  91.0628712 122.3225413 121.9449751  91.9598171
 121.7862770 121.4940490  92.6119767 121.7342122 122.0795660  91.2168635
 121.7327672 121.4038403  74.5224634 120.8557138 121.2827203  74.1586881
 122.2085425 120.6124481  74.2703523 131.6000665 129.8591471  91.2923090
 130.7127444 129.5217392  91.4149489 132.1699216 129.1274502  91.5291856
 113.2529812 126.1915562  84.6166142 113.9400852 125.8777292  84.0287157
 113.0977941 127.0956927  84.3433393 118.0564534 121.0805759  89.0451165
 117.9722723 120.4731429  88.3101575 117.2347241 121.5714777  89.0460662
 125.1301819 134.5192923  88.2584333 125.0571990 135.3247895  88.7703638
 124.6879212 134.7184889  87.4332355 124.9191598 133.7564693  81.7687155
 124.1359120 134.2986373  81.8625379 125.6184343 134.2738673  82.1681396
 128.2288248 119.5659323  84.4121360 128.7256948 118.8129285  84.0922431
 127.4575230 119.6023639  83.8464570 136.0818006 125.2699688  86.0539652
 136.0707882 126.1524403  85.6833585 135.2135385 124.9171239  85.8594189
 129.3118029 128.3231010  81.9859784 128.3774308 128.4432472  81.8164488
 129.4894697 127.4203477  81.7219794 124.8123217 121.7076706  84.1393045
 124.4421005 121.1547746  84.8273950 125.3082310 121.1034839  83.5868045
 132.6990580 124.1648329  82.5209818 133.1651033 124.9976321  82.4470120
 133.1498081 123.6993311  83.2255076 122.6412416 132.1674201  91.2348063
 123.3421875 132.8010683  91.3877457 122.1707531 132.5088932  90.4743702
 130.7666811 130.5092150  79.5195970 131.0426655 130.3948745  80.4289844
 129.8971310 130.1109635  79.4808143 130.6707243 116.5328916  86.5600719
 129.7570323 116.7633143  86.7282926 131.1000345 116.6167360  87.4114752
 130.4413702 124.7218808  89.0600613 129.7885152 124.9694715  88.4053066
 130.8194081 123.9082946  88.7263090 127.7363041 133.6846686  80.4243832
 128.2650807 133.1739141  79.8113994 127.9991261 133.3689216  81.2889365
 126.4901275 125.4638619  95.5466650 125.8141912 125.3632748  96.2169025
 127.3128908 125.3077833  96.0102647 118.2380134 131.7010556  88.1679165
 118.8233570 130.9554243  88.3007070 118.0404972 132.0114512  89.0515829
 121.0918789 134.7361803  83.1841608 120.4229164 135.2207931  82.7005648
 120.9531659 134.9831023  84.0984986 112.8297788 124.2716156  86.8883609
 112.8681888 123.7379746  87.6820727 112.3238081 123.7451361  86.2694586
 120.2088551 119.1180696  90.3846151 120.2729877 119.9795527  89.9723549
 120.1455671 118.5054698  89.6518509 119.6840823 121.1903829  94.0319185
 120.3112862 120.8080906  94.6456710 118.8268742 120.9718031  94.3974878
 116.4606366 122.9980258  79.9637540 116.7559807 122.0890936  79.9104594
 115.5594402 122.9767997  79.6418542 119.9900613 121.0736254  85.9465089
 119.2687199 121.6872222  85.8072562 120.7793869 121.6094019  85.8681735
 122.7926927 118.4090681  92.2205740 123.3161328 118.6552978  92.9832050
 122.5739260 119.2410716  91.8008878 118.1894208 120.6794356  80.0876865
 117.8606914 119.7991735  79.9051971 118.5433578 120.6242024  80.9753254
 127.4373786 132.3149258  84.5971851 127.2898749 131.3865966  84.7779421
 128.2627280 132.3369349  84.1128926 121.3036031 120.9667325  80.4552343
 121.6432103 121.4953247  79.7330951 121.7508151 121.3047732  81.2310909
 123.9979472 119.3504376  89.9055411 123.6576292 118.5512189  90.3076091
 123.2918478 119.6506087  89.3332244 124.6495943 116.4353689  88.3582734
 125.4722013 115.9614167  88.2361624 124.8934007 117.2144172  88.8581420
 123.2904178 119.4641947  78.6545636 124.0112540 119.8423200  78.1509352
 122.6669482 120.1830824  78.7580614 127.4335301 120.1687096  79.5903968
 127.6498915 121.0511734  79.2892796 126.9529368 119.7773309  78.8609610
 122.1734522 123.1272809  86.1674713 122.0279103 123.4413112  87.0598994
 121.6959726 123.7457710  85.6145611 124.0330905 120.1175357  86.2155602
 124.0192474 119.2216450  85.8787900 124.7503333 120.1246021  86.8493888
 125.8857036 120.5512697  88.2608730 125.6274814 121.4729768  88.2593060
 125.3542076 120.1543132  88.9509194 116.6480184 125.6678154  89.1062374
 116.1033652 126.4437962  89.2382648 117.5259534 126.0148958  88.9481495
 123.4367801 118.9989737  81.4843172 123.5583712 118.0706384  81.6834060
 123.1469843 119.0128423  80.5721488 126.3058991 116.6844648  84.6209892
 126.3280688 116.7483981  83.6661872 126.7227050 115.8449157  84.8150398
 136.6842616 126.4199907  82.6589115 137.1273762 125.6707233  82.2608238
 135.8069126 126.4110044  82.2762847 117.4346206 124.7948050  91.9992531
 116.6927942 124.9430685  92.5857161 117.1138950 125.0556315  91.1359280
 125.3789869 134.3364028  91.7972921 125.6876995 134.0913175  92.6695620
 126.1765351 134.5410667  91.3091791 117.8802820 132.6813479  84.0302925
 118.7060840 132.3817250  83.6501569 117.5296872 131.9121101  84.4792714
 122.8484353 132.0339947  86.1000599 122.2264362 131.3710652  85.8002827
 123.5189220 132.0601079  85.4174247 116.0811425 130.5999805  84.9891859
 115.2443333 130.1721979  84.8075860 116.0535070 130.7932248  85.9262650
 122.9208881 120.5121735  95.6933105 122.9697036 121.3883858  95.3110874
 123.4631395 119.9699128  95.1204748 133.5261601 127.9055324  92.2866970
 133.5759606 127.7405332  93.2282493 133.4175525 127.0382583  91.8964851
 122.4097860 130.5843870  79.5759059 122.5585980 131.2679335  78.9225732
 123.2164303 130.5648960  80.0908515 130.8165364 123.8886252  93.6026277
 131.7175226 123.7492717  93.3110275 130.8913338 124.0540707  94.5424455
 125.1508169 121.2653107  92.4479464 124.2811478 121.5586673  92.1762052
 125.3867649 121.8493552  93.1686727 133.2766986 125.4484881  90.9989050
 133.7521108 125.6412527  90.1907901 132.3532552 125.5044066  90.7532434
 120.1650493 126.6109048  80.5820128 119.9196535 125.7071378  80.7800338
 120.3346407 126.6126198  79.6399606 127.8547203 117.4832724  89.9644884
 128.3729147 118.2193751  89.6391372 127.5002336 117.7896717  90.7991643
 119.4346140 122.3437405  78.0806290 118.7415385 122.4181760  77.4246326
 119.1897892 121.5797749  78.6027807 128.1059797 113.9033007  85.4845780
 128.3861551 113.2356196  86.1106207 128.8910404 114.0962102  84.9720444
 125.9093265 133.0792001  77.0470807 125.3367233 133.6982188  76.5941279
 126.4826059 133.6291362  77.5810729 131.9768655 122.3250641  89.2317356
 132.9286078 122.4248738  89.2529580 131.8072106 121.5328909  89.7415440
 129.9983035 119.4106224  89.4176757 129.4032967 119.6911237  88.7223245
 129.7132731 119.9000125  90.1893498 134.4556733 125.5456760  88.3459655
 134.4233053 124.6072761  88.5319339 135.0657357 125.6240797  87.6125480
 126.2940064 124.4152813  74.3886859 127.2399169 124.2859021  74.4575277
 125.9154309 123.6767475  74.8656287 134.6051222 122.3367804  88.3917938
 134.0890270 121.5526260  88.2047867 135.4891170 122.0086520  88.5564458
 132.2661948 116.0808819  84.3513751 132.0686770 115.7723908  85.2357083
 132.8761654 116.8070458  84.4811681 138.3548580 124.7480630  88.0840143
 137.6281744 124.6136595  87.4756635 137.9395867 125.0557458  88.8896861
 126.1778756 128.4670559  95.8487516 127.0981766 128.6449158  96.0427563
 126.1428340 127.5226605  95.6967216 124.4782981 122.3402790  74.3241745
 123.5714436 122.0435902  74.4004458 124.7558962 122.0432608  73.4576031
 115.3960921 123.6609153  84.7740791 115.0763706 122.8074461  84.4815165
 114.8494350 123.8757731  85.5298758 119.1740829 126.3771594  88.4910297
 119.3926839 127.3088702  88.5098331 119.5866603 126.0179569  89.2765101
 126.0945047 116.8839679  80.4785986 125.2845775 116.5386764  80.8541232
 126.7829464 116.5747223  81.0673597 128.0235595 115.9617726  82.1010282
 128.5766634 116.3813180  82.7600306 128.2605681 115.0353474  82.1433238
 124.0468694 121.9504800  97.8813046 123.9465421 122.8999157  97.8125137
 123.8290236 121.6223039  97.0089116 123.2481766 119.1989725  74.4653724
 124.1100930 119.5244623  74.7249541 123.4332110 118.4121221  73.9526790
 115.2649181 127.2812065  86.7433913 114.5712653 126.8666017  86.2303867
 116.0122172 127.3232601  86.1467331 131.4014402 118.0718251  81.6088947
 130.8213071 118.7303055  81.2266999 131.1350335 117.2495596  81.1976364
 129.8517969 117.4723309  83.8110267 130.3517747 117.5839844  83.0024586
 130.4953576 117.1684362  84.4511075 123.9099964 125.3801939  96.6978108
 123.4267046 126.1802299  96.9041997 123.9960903 125.3909884  95.7445552
 117.1785924 127.2130318  84.6199927 117.1556612 127.3118006  83.6681810
 117.4886560 128.0595469  84.9417094 119.8373302 129.2706473  88.7346542
 120.7916555 129.2390416  88.6676473 119.6385825 128.8097097  89.5496768
 120.4272684 127.8407589  91.3017339 121.2465573 128.3351668  91.3252177
 120.7009492 126.9239558  91.2734907 130.1839280 120.2318342  80.6645295
 129.2965135 120.5167992  80.4465490 130.5993269 120.0712105  79.8172572
 133.5353816 120.2564863  84.3799634 134.3114206 120.7461315  84.6524251
 132.8101951 120.6822917  84.8371504 135.9726375 120.9692482  85.4373575
 136.5670866 120.7288218  84.7266883 136.0452959 120.2499613  86.0647111
 118.1923531 134.8126093  85.7516740 118.0577999 134.0526494  85.1854738
 117.7755593 135.5366993  85.2845529 129.3282494 129.9963016  74.7593315
 130.0318344 130.2013019  75.3750971 128.6045142 130.5639778  75.0242398
 130.1580304 125.7472878  80.8795585 130.1015505 126.2041429  80.0403218
 130.7108646 124.9863562  80.7018428 133.9685110 121.5362610  81.7045705
 133.7122044 121.1359245  82.5353912 133.3437978 122.2506404  81.5795844
 138.2797448 124.2758683  84.2116996 137.7197006 124.3451872  84.9848558
 137.6740951 124.0999667  83.4916492 121.3492657 135.7095410  85.9635182
 121.2325041 136.6540842  85.8613873 120.5285103 135.4068971  86.3520982
 131.2369191 130.4345546  76.8091775 132.0714795 130.0026744  76.6269250
 131.0753534 130.2627559  77.7368669 130.8915083 126.9377659  78.1748114
 130.8363887 126.7721930  77.2336558 130.2661139 127.6453692  78.3310304
 115.6807598 122.1745723  92.0009537 116.3266462 121.6644677  92.4896762
 115.4724749 122.9114405  92.5752962 128.2060990 129.2426571  97.5001677
 129.0752150 129.4167223  97.1388312 127.7267742 130.0620988  97.3777406
 124.2011209 116.4385768  77.7533433 124.1889879 117.3827608  77.9101704
 125.0934631 116.2555913  77.4592894 122.3747171 136.3623672  89.1791111
 123.2774417 136.3947282  89.4957606 122.1484541 135.4324123  89.1937447
 124.1300773 135.1154658  85.8401189 123.1796404 135.1156520  85.7265562
 124.4333259 134.3687393  85.3237224 128.0163328 113.0328545  82.0079370
 127.2495724 112.4787031  82.1536052 128.4274033 113.1050413  82.8693521
 120.0205089 119.3213340  96.0984551 120.8836551 118.9650145  96.3087875
 119.4470500 118.9827235  96.7859955  53.1503432  -4.6758022  73.6292258
  53.7881841  -4.7951275  72.9255598  53.0324274  -3.7277178  73.6880211
  49.9593138  -4.7230594  73.5653783  49.6211649  -4.8389529  72.6774318
  50.8282906  -5.1239429  73.5454789  45.8179953  -2.8695118  69.5550674
  45.2544819  -2.9605181  68.7866962  45.7032349  -3.6895213  70.0353167
  50.4412921  -3.5695742  79.5239989  50.4301562  -3.9642944  78.6520492
  50.6033560  -4.3029670  80.1173760  43.3644385  -1.3743926  72.3934895
  44.1565677  -1.7153101  71.9781194  43.6041036  -1.2648951  73.3137048
  51.3979512   0.7975850  64.8665139  50.7467492   1.3829931  64.4799153
  52.1923875   1.3282045  64.9260176  45.3235139  -2.1135013  65.2652273
  46.0966015  -2.6606026  65.1265149  45.6760538  -1.2490763  65.4766735
  47.1620182  -0.7858630  78.4719173  46.8710048   0.1187000  78.3565839
  47.7977166  -0.7442103  79.1863242  48.0876389  -3.4081782  75.0620532
  48.6839961  -3.6325760  74.3477495  48.1451360  -4.1497036  75.6645980
  47.6601417  -5.9542347  62.8970723  47.9126938  -6.4760825  62.1354186
  46.7225976  -6.1176201  62.9997407  52.7044700  -6.9506568  70.7045466
  53.4907789  -7.3687145  70.3535883  52.9683404  -6.0460476  70.8727115
  52.8754777  -1.5133718  65.4034123  52.2400610  -1.4399091  66.1155028
  52.5452184  -0.9240119  64.7253203  58.1053127  -7.0131335  71.6078445
  58.8378299  -7.5832118  71.8416274  57.3492483  -7.4009735  72.0484951
  47.3797706  -4.0514241  65.0995098  47.2633964  -4.7269337  65.7676182
  47.4899966  -4.5381867  64.2827251  49.7229247  -4.5904094  68.8041787
  49.3587454  -5.1173473  69.5154709  50.5796363  -4.9805624  68.6308273
  49.3634734  -9.5614194  63.8003136  49.5309136  -8.6933957  64.1673607
  49.1731903  -9.3986912  62.8764425  52.1210067  -1.0997215  75.4668966
  51.8210790  -0.1972176  75.3584774  51.7761127  -1.3665032  76.3190119
  45.5722548  -4.6483418  71.5005671  44.6473045  -4.7807204  71.7083362
  45.8206962  -3.8689199  71.9975613  55.5207211  -8.5814675  73.1466404
  54.6124088  -8.6499266  72.8525165  55.4694807  -8.1042730  73.9748229
  49.3423955  -7.1056536  64.7849803  49.2223580  -6.6599486  65.6235283
  48.6476543  -6.7571219  64.2263341  42.9331360  -5.0050145  72.3349460
  43.0623741  -4.7515666  73.2488871  42.2528811  -4.4122437  72.0154115
  47.1030847   5.6647105  68.4339934  47.0254877   6.6154931  68.5128415
  46.4992490   5.3192978  69.0914860  49.5948077  -7.1625029  81.0901301
  48.8181411  -6.6031109  81.0804166  50.2338640  -6.6768246  81.6116171
  55.0409021  -6.6335063  65.6130137  55.9526877  -6.4007676  65.4377834
  54.5318668  -6.0498019  65.0505215  47.8494449  -4.3539576  80.6519268
  48.5909133  -3.8154532  80.3754091  47.1431434  -3.7273287  80.8090820
  53.3249789  -2.2110435  79.2491429  53.7333145  -2.6528025  78.5046062
  52.6027050  -2.7857808  79.5025622  49.6780859  -7.2737829  76.6224986
  50.5242054  -6.8498415  76.7659635  49.6179496  -7.9304204  77.3163549
  53.6478603  -1.6509245  73.0043718  53.0187466  -1.4863531  72.3019786
  53.2604265  -1.2367635  73.7754682  57.5267835  -0.7154807  70.3588082
  56.8418873  -0.3355905  69.8085115  57.6111684  -0.1059480  71.0920030
  52.8280304  -9.6133460  78.2806160  52.5841236  -8.8591400  77.7440436
  53.1040234  -9.2348113  79.1153407  54.7818767  -3.0694848  76.9583426
  54.9935662  -2.4263088  76.2817807  54.7348515  -3.9032531  76.4905356
  52.3844996 -10.4577027  73.8619998  51.5229475 -10.1595774  74.1536735
  52.4107430 -10.2406628  72.9301030  49.2006565  -1.9134837  70.2693803
  49.6644911  -1.6347134  69.4798426  48.9363363  -2.8151392  70.0866894
  46.0930646  -2.3663355  73.2073567  46.6632003  -1.9376087  72.5691051
  46.6838758  -2.6480770  73.9057752  48.1375451  -5.7911684  67.0783368
  48.8399494  -5.3390641  67.5457295  47.8056080  -6.4327865  67.7063262
  46.5855813  -7.1999928  81.4534578  45.9554473  -6.5183647  81.6869975
  46.4791901  -7.3116846  80.5087716  41.8800785  -7.5328132  72.3800502
  41.0899839  -7.2770603  71.9040613  42.3712032  -6.7179794  72.4852543
  55.8964595  -0.1922892  75.1305783  56.7182038  -0.5942705  74.8488465
  55.8926997  -0.2954658  76.0821899  43.8315530  -7.1683552  69.3383979
  43.0346694  -7.0564858  69.8567474  43.6041123  -6.8296900  68.4724869
  49.6621198  -0.6438849  77.2866493  49.7265631  -0.1818442  78.1224665
  48.9532122  -1.2741484  77.4148803  63.9870588  -3.8484144  71.4790754
  63.2334296  -4.4176746  71.3234759  64.1218129  -3.8821479  72.4261389
  49.3769216   1.0229258  67.1545474  49.2414891   1.8680794  67.5830322
  49.9179028   1.2248536  66.3911408  42.8298613  -1.4595304  67.7273399
  43.3423134  -0.6652053  67.8778963  43.4821326  -2.1569013  67.6607000
  44.6393498   1.6570453  69.8096152  44.8160126   2.5788417  69.6217136
  45.4350331   1.3428872  70.2390532  43.9245854  -6.2964915  79.6858315
  43.8099369  -7.1979658  79.9865414  43.0690372  -6.0501219  79.3343132
  51.0037692   1.6452825  81.2845816  50.5601546   0.8589203  80.9666720
  51.6654906   1.8331975  80.6189707  45.7624813   3.1748626  75.8106494
  46.3132238   3.0465690  75.0383488  44.9236289   3.4743516  75.4601387
  53.1018930   1.9255625  79.3127217  53.0837406   2.7464506  78.8207486
  54.0238850   1.8009700  79.5377358  49.5591984  -0.5600246  80.1550725
  50.0920321  -1.3211958  79.9250033  49.0306065  -0.8526594  80.8974880
  40.7947530  -3.1306649  68.5032969  41.6322752  -2.7209641  68.2866677
  40.9725798  -4.0707207  68.4733163  52.6911962  -5.4631569  64.1916802
  52.1758585  -4.6926964  64.4305190  52.4189270  -6.1366432  64.8149864
  50.2759073 -10.6181868  69.2502041  49.4200669 -11.0075017  69.0707679
  50.6886025 -10.5389907  68.3901826  57.6646236  -2.7099214  66.1269976
  56.8875679  -3.0488054  65.6825138  58.3437717  -2.7046591  65.4524941
  52.4798265  -7.5904477  66.0176583  52.1748401  -7.2758327  66.8686727
  53.4328707  -7.5123057  66.0603916  50.9244697  -1.4314253  67.6669537
  50.3966059  -2.1661494  67.3542775  50.4232200  -0.6539577  67.4209506
  55.9037543  -3.2365233  72.7836584  55.2461217  -2.5465971  72.8716712
  56.7077942  -2.8468801  73.1270570  54.7143002  -4.8820860  70.8340525
  55.2274884  -4.2490868  71.3362235  55.3644226  -5.4819665  70.4683886
  45.9833012  -8.7390126  64.0472034  45.1470324  -8.4015439  64.3681309
  45.8437781  -8.8741146  63.1099171  49.0697297  -3.6134043  60.6704510
  48.1624359  -3.8444789  60.8695659  49.5668329  -4.4096424  60.8578492
  51.9765376   5.0963464  63.5901197  51.3027075   5.3995161  64.1986154
  52.3631198   5.8992545  63.2406654  51.1923833  -7.4071404  73.0798866
  50.2746394  -7.1856457  72.9220554  51.6083976  -7.3325094  72.2210573
  51.9758880  -6.0079989  68.2101546  52.7230699  -5.4958592  67.9008668
  52.2450470  -6.3295936  69.0705940  50.2485531  -3.5121448  65.1928501
  49.3396750  -3.7962415  65.2900970  50.2780614  -3.0922370  64.3331807
  55.4804798   0.0985141  68.9619668  55.0267125  -0.7423949  69.0184859
  54.8498765   0.7346540  69.2994448  54.4237718  -8.9722873  70.1920336
  53.6860474  -9.4845486  70.5230578  54.6764491  -9.4122491  69.3803612
  53.9237737   1.9361638  69.8969486  54.2160712   2.4966695  69.1781852
  54.4336358   2.2290199  70.6522645  40.8173701  -5.7915934  69.1743703
  40.6198101  -6.3846573  68.4494769  40.2620365  -6.0963724  69.8919642
  48.7970425  -5.8992827  71.2938296  48.8519034  -6.8518991  71.2180773
  47.9861627  -5.7433388  71.7779594  49.9461618  -1.9712704  62.5316579
  49.5081048  -2.6876845  62.0722216  50.6872059  -1.7436590  61.9701671
  46.7362785  -7.2815768  69.0528675  45.9230650  -6.9821597  69.4593867
  47.2321779  -7.6760079  69.7703157  48.8871362   2.7141989  70.9862939
  48.8447541   2.9402836  70.0571471  49.8034061   2.4805364  71.1348741
  52.3336996  -6.8173943  77.8843569  52.6886384  -6.5902470  78.7438034
  52.9809128  -6.4855566  77.2620824  58.0634733  -3.6955507  68.5892898
  57.9252632  -3.5053911  67.6614087  57.7070952  -2.9336125  69.0460949
  46.2276859  -9.7097412  74.6689910  46.8676239  -9.8508653  73.9712873
  45.3954390  -9.9962899  74.2928512  58.0904113  -1.6278980  73.6004169
  58.5240620  -1.7203691  74.4487223  58.8035694  -1.6521480  72.9624185
  47.0037163  -0.4094982  70.7824902  47.7977762  -0.9044662  70.5807477
  46.2928856  -0.9377119  70.4192608  51.8232008   1.9723114  75.1337270
  51.8769030   2.5414050  75.9014986  50.9546789   2.1424999  74.7691307
  43.3119927  -6.2651900  66.8584655  42.3817515  -6.3267445  67.0754617
  43.4077399  -6.7875947  66.0621296  44.7030401  -8.3259330  76.6161721
  45.3753455  -8.5341968  75.9674370  43.8760188  -8.5237244  76.1766953
  58.9519662  -1.5855280  76.1337055  59.1455552  -0.6809469  76.3796330
  58.8520281  -2.0447861  76.9675640  54.0134771  -1.4348537  81.7077935
  53.8620277  -1.6637985  80.7908019  54.0039451  -0.4777936  81.7209280
  50.7820107  -3.8616624  76.6924202  51.7112167  -3.7105465  76.5193169
  50.3611138  -3.7732603  75.8372848  49.5808439   0.1634040  74.4622739
  49.4419525  -0.2047175  75.3348677  48.7923035   0.6781680  74.2906697
  50.1756591   5.2643137  65.8048276  50.3508347   4.7931180  66.6193899
  49.4889379   5.8908903  66.0329537  51.1313654  -0.4584357  71.8511577
  50.7963487  -0.4983587  72.7469227  50.6317600  -1.1239641  71.3781987
  45.1057898  -5.0516727  77.3764158  44.9677696  -5.7836488  77.9775697
  46.0162822  -5.1407827  77.0948346  54.0672846  -3.1128323  62.1248637
  53.4502017  -3.8381495  62.0281689  53.5989335  -2.3518962  61.7815711
  47.7340199  -5.3396768  76.8647838  48.4439818  -5.9803576  76.8234456
  47.6909507  -5.0883873  77.7874019  55.7226978   1.5970586  79.7854417
  55.6639524   0.9129806  79.1185000  56.1246496   2.3389576  79.3335043
  46.4469133  -8.3531550  78.6843477  45.9106490  -8.8040811  79.3365074
  45.8585841  -8.2185641  77.9413942  44.7417677   8.4132499  72.5788136
  44.9814275   9.0451024  73.2567155  43.8986873   8.0620539  72.8653495
  45.8571392  -8.8942898  61.2469941  44.9800858  -9.0154098  60.8832188
  46.3329145  -9.6856820  60.9948830  55.7244385  -0.4389830  78.0168397
  54.8371164  -0.7763909  78.1394796  56.2942936  -1.1706799  78.2537162
  37.3773532  -4.1065739  71.3411448  38.0644572  -4.4204009  70.7532463
  37.2221661  -3.2024374  71.0678700  49.2545538   4.2211622  74.9829640
  49.1815710   5.0266593  75.4948945  48.8122931   4.4203588  74.1577661
  49.0435318   3.4583392  68.4932462  48.2602840   4.0005072  68.5870686
  49.7428063   3.9757372  68.8926703  60.2061726  -5.0281613  72.7784958
  60.1951602  -4.1456898  72.4078892  59.3379105  -5.3810062  72.5839495
  51.7144222   4.1198456  77.1387799  52.4272194   4.7545921  77.0663700
  51.2234251   4.2162322  76.3227800  53.4361749  -1.9750291  68.7105090
  52.5018028  -1.8548829  68.5409795  53.6138417  -2.8777825  68.4465100
  48.9366937  -8.5904596  70.8638351  48.5664724  -9.1433555  71.5519257
  49.4326029  -9.1946462  70.3113352  56.8234300  -6.1332972  69.2455124
  57.2894752  -5.3004981  69.1715427  57.2741801  -6.5987991  69.9500383
  46.7656135   1.8692899  77.9593369  47.4665595   2.5029382  78.1122764
  46.2951250   2.2107631  77.1989009  54.8910531   0.2110849  66.2441276
  55.1670375   0.0967444  67.1535151  54.0215030  -0.1871666  66.2053450
  54.5657421  -5.5762493  75.7845920  53.9128872  -5.3286586  75.1298373
  54.9437801  -6.3898355  75.4508397  51.5264595   4.4597200  69.8874090
  51.7086990   3.6418856  70.3501842  52.3497581   4.6764892  69.4498980
  51.8606761   3.3865385  67.1489139  52.3894527   2.8757840  66.5359301
  52.1234980   3.0707915  68.0134672  50.6144994  -4.8342682  82.2711957
  49.9385631  -4.9348553  82.9414332  51.4372628  -4.9903468  82.7347954
  42.3623854   1.4029254  74.8924472  42.9477290   0.6572942  75.0252376
  42.1648692   1.7133211  75.7761136  45.2162509   4.4380502  69.9086915
  44.5472884   4.9226629  69.4250955  45.0775378   4.6849722  70.8230293
  49.3567777   6.4724245  76.5069573  49.9086085   6.6355867  77.2718658
  49.6973971   7.0628683  75.8349598  54.2078652   1.2985503  82.3618227
  54.7518556   1.9115461  81.8673182  53.6265496   1.8565081  82.8785240
  52.4936165   4.4206221  73.4933255  52.3687304   3.6195961  72.9844201
  53.1515256   4.9152414  73.0047225  44.1144333  -9.2245047  72.6710395
  43.3930919  -8.6109079  72.5317869  44.9037589  -8.6887282  72.5927041
  54.5571073   2.2215241  75.1212805  53.6101409   2.1020592  75.0491132
  54.9053846   1.3337739  75.2039067  51.5617506   2.0167957  71.3217157
  51.4142469   1.0884665  71.5024727  52.3871000   2.0388048  70.8374233
  45.4279751  -9.3313976  67.1797650  45.7675823  -8.8028055  66.4576258
  45.8751871  -8.9933570  67.9556216  55.1651628   2.8396516  72.4082030
  56.0898176   2.6339377  72.2706481  54.9966931   2.5912917  73.3171372
  48.1223191 -10.9476925  76.6300718  47.7820012 -11.7469112  77.0321397
  47.4162198 -10.6475214  76.0577551  47.4147898 -10.8339354  65.3790942
  48.1356260 -10.4558101  64.8754659  46.7913202 -10.1150477  65.4825920
  51.5579021 -10.1294205  66.3149275  51.7742635  -9.2469567  66.0138103
  51.0773088 -10.5207992  65.5854917  46.2978242  -7.1708492  72.8920019
  46.1522823  -6.8568189  73.7844301  45.8203446  -6.5523592  72.3390918
  48.1574625 -10.1805944  72.9400909  48.1436194 -11.0764851  72.6033207
  48.8747053 -10.1735280  73.5739195  50.0100756  -9.7468604  74.9854036
  49.7518533  -8.8251533  74.9838367  49.4785796 -10.1438169  75.6754500
  54.9546944   3.3582183  67.7644122  55.1283822   2.7928606  67.0117974
  55.4475836   4.1583078  67.5823612  40.7723904  -4.6303148  75.8307680
  40.2277372  -3.8543340  75.9627955  41.6503254  -4.2832343  75.6726802
  60.8086335  -3.8781394  69.3834421  61.2517482  -4.6274069  68.9853545
  59.9312846  -3.8871257  69.0008153  55.9422117   2.6748948  64.8641020
  56.6373021   3.2955640  65.0828334  56.2845267   1.8244299  65.1393398
  41.5589926  -5.5033251  78.7237837  40.8171662  -5.3550616  79.3102468
  41.2382670  -5.2424986  77.8604587  57.8413540   0.1248653  66.3928351
  58.3664864   0.4635926  65.6677671  57.7535892  -0.8104331  66.2091485
  49.5033589   4.0382727  78.5218227  49.8120715   3.7931874  79.3940927
  50.3009071   4.2429365  78.0337097  49.5254201   6.1920637  70.7523604
  49.0859191   5.6997015  71.4456461  50.2762318   5.6493604  70.5115679
  42.0046540   2.3832177  70.7548232  42.8304560   2.0835949  70.3746875
  41.6540592   1.6139800  71.2038021  46.9728073   1.7358646  72.8245905
  46.3508082   1.0729351  72.5248133  47.6432940   1.7619778  72.1419553
  40.2055145   0.3018504  71.7137165  39.3687053  -0.1259322  71.5321167
  40.1778790   0.4950947  72.6507957  47.0452600  -9.7859566  82.4178412
  47.0940756  -8.9097444  82.0356181  47.5875115 -10.3282173  81.8450055
  57.5307446   0.7581557  81.6979549  56.7402990   0.7405696  81.1584048
  57.2940801   1.2969851  82.4528585  57.6505321  -2.3925977  79.0112277
  57.7003326  -2.5575969  79.9527800  57.5419244  -3.2598718  78.6210158
  46.5341580   0.2862569  66.3004366  46.6829700   0.9698033  65.6471039
  47.3408023   0.2667659  66.8153822  54.9409083  -6.4095049  80.3271584
  55.8418946  -6.5488584  80.0355582  55.0157058  -6.2440594  81.2669761
  49.2751889  -9.0328194  79.1724770  48.4055198  -8.7394628  78.9007359
  49.5111369  -8.4487749  79.8932034  59.1523518   0.0270965  79.2554299
  58.8608326   0.3900945  80.0917760  58.5395649  -0.6862027  79.0767631
  60.3519200  -2.4076155  71.7756869  61.1866092  -1.9686351  71.9394429
  60.4878329  -2.8837502  70.9565115  57.4010706  -4.8496421  77.7234357
  57.8764828  -4.6568774  76.9153208  56.4776271  -4.7937235  77.4777740
  44.2894213  -3.6872253  67.3065435  44.0440255  -4.5909923  67.5045645
  44.4590127  -3.6855103  66.3644913  43.5589860  -7.9543896  64.8051596
  42.8659105  -7.8799541  64.1491632  43.3141612  -8.7183552  65.3273113
  50.0336985   2.7810699  63.7716113  49.4610952   3.4000887  63.3186585
  50.6069779   3.3310061  64.3056035  56.1012375  -7.9730660  75.9562662
  57.0529798  -7.8732563  75.9774886  55.9315826  -8.7652392  76.4660747
  53.2534245   3.0647850  64.9024696  54.1864918   2.9993411  65.1057571
  53.1657458   3.9004116  64.4439228  55.8822262   2.3813720  61.8628643
  55.8035893   2.0473584  62.7564401  56.7031929   2.8735488  61.8620116
  58.5800453  -4.7524541  75.0704962  58.5476773  -5.6908540  75.2564646
  59.1901077  -4.6740504  74.3370787  50.4183784  -5.8828488  61.1132166
  51.3642888  -6.0122280  61.1820584  50.0398029  -6.6213826  61.5901594
  64.3977003  -3.6908534  74.2110999  65.1280391  -3.9523246  74.7718702
  63.7883948  -4.4279812  74.2513067  62.4792300  -5.5500671  74.8085450
  61.7525463  -5.6844706  74.2001941  62.0639587  -5.2423843  75.6142168
  50.3022476  -1.8310742  82.5732823  51.2225486  -1.6532143  82.7672869
  50.2672059  -2.7754696  82.4212522  48.6026701  -7.9578511  61.0487051
  47.6958156  -8.2545399  61.1249765  48.8802682  -8.2548693  60.1821337
  43.2984549  -3.9209707  75.2155604  43.5170559  -2.9892599  75.2343638
  43.7110323  -4.2801733  76.0010408  48.1712414  -8.3476501  84.6058353
  48.0709141  -7.3982144  84.5370444  47.9533956  -8.6758262  83.7334423
  47.3725486 -11.0991576  61.1899030  48.2344650 -10.7736678  61.4494848
  47.5575830 -11.8860080  60.6772096  39.3892901  -3.0169237  73.4679219
  38.6956373  -3.4315284  72.9549174  40.1365892  -2.9748700  72.8712638
  48.0343684  -4.9179362  83.4223415  47.5510766  -4.1179002  83.6287304
  48.1204623  -4.9071418  82.4690859  41.3029644  -3.0850983  71.3445234
  41.2800332  -2.9863295  70.3927117  41.6130280  -2.2385832  71.6662400
  43.9617022  -1.0274828  75.4591848  44.9160275  -1.0590885  75.3921780
  43.7629545  -1.4884204  76.2742074  44.5516404  -2.4573712  78.0262646
  45.3709293  -1.9629633  78.0497483  44.8253212  -3.3741744  77.9980214
  42.3167250   4.5144792  72.4762046  42.1821718   3.7545193  71.9100044
  41.8999313   5.2385692  72.0090835  53.4526214  -0.3018285  61.4838622
  54.1562064  -0.0968282  62.0996277  52.7288862   0.2658477  61.7487705
  54.2824024  -4.5508423  67.6040892  54.2259225  -4.0939872  66.7648524
  54.8352366  -5.3117739  67.4263735  62.4041168  -6.0222618  70.9362303
  61.8440726  -5.9529429  71.7093865  61.7984671  -6.1981634  70.2161799
  45.4736376   5.4114109  72.6880489  45.3568761   6.3559541  72.5859179
  44.6528823   5.1087670  73.0766288  55.3612911   0.1364245  63.5337082
  56.1958515  -0.2954557  63.3514556  55.1997254  -0.0353742  64.4613976
  55.0158803  -3.3603642  64.8993421  54.9607607  -3.5259371  63.9581865
  54.3904858  -2.6527609  65.0555611  52.3304710  -1.0554730  84.2246984
  53.1995870  -0.8814078  83.8633619  51.8511462  -0.2360313  84.1022713
  46.4990890   6.0642371  75.9036417  47.4018137   6.0965981  76.2202912
  46.2728261   5.1342822  75.9182753  48.2544493   4.8173357  72.5646496
  47.3040124   4.8175219  72.4510868  48.5576979   4.0706092  72.0482531
  63.9897186  10.6533896  73.6292258  64.6275596  10.5340643  72.9255598
  63.8718029  11.6014740  73.6880211  60.7986892  10.6061324  73.5653783
  60.4605404  10.4902388  72.6774318  61.6676660  10.2052489  73.5454789
  56.6573708  12.4596800  69.5550674  56.0938573  12.3686737  68.7866962
  56.5426103  11.6396705  70.0353167  61.2806675  11.7596175  79.5239989
  61.2695316  11.3648974  78.6520492  61.4427315  11.0262248  80.1173760
  54.2038140  13.9547992  72.3934895  54.9959432  13.6138816  71.9781194
  54.4434790  14.0642967  73.3137048  62.2373267  16.1267768  64.8665139
  61.5861246  16.7121848  64.4799153  63.0317629  16.6573963  64.9260176
  56.1628894  13.2156905  65.2652273  56.9359770  12.6685892  65.1265149
  56.5154293  14.0801154  65.4766735  58.0013936  14.5433287  78.4719173
  57.7103802  15.4478918  78.3565839  58.6370921  14.5849815  79.1863242
  58.9270143  11.9210136  75.0620532  59.5233716  11.6966158  74.3477495
  58.9845115  11.1794881  75.6645980  58.4995172   9.3749571  62.8970723
  58.7520692   8.8531092  62.1354186  57.5619731   9.2115717  62.9997407
  63.5438454   8.3785349  70.7045466  64.3301544   7.9604773  70.3535883
  63.8077159   9.2831442  70.8727115  63.7148532  13.8158200  65.4034123
  63.0794365  13.8892826  66.1155028  63.3845938  14.4051799  64.7253203
  68.9446882   8.3160583  71.6078445  69.6772054   7.7459799  71.8416274
  68.1886237   7.9282183  72.0484951  58.2191460  11.2777677  65.0995098
  58.1027719  10.6022580  65.7676182  58.3293720  10.7910051  64.2827251
  60.5623001  10.7387824  68.8041787  60.1981209  10.2118445  69.5154709
  61.4190117  10.3486293  68.6308273  66.4672302   2.0282157  76.0673054
  66.1355627   2.8977568  75.8434269  65.8717915   1.7118441  76.7467084
  60.2028488   5.7677724  63.8003136  60.3702891   6.6357960  64.1673607
  60.0125657   5.9305006  62.8764425  62.9603821  14.2294703  75.4668966
  62.6604545  15.1319742  75.3584774  62.6154881  13.9626886  76.3190119
  56.4116303  10.6808500  71.5005671  55.4866799  10.5484714  71.7083362
  56.6600716  11.4602719  71.9975613  66.3600965   6.7477243  73.1466404
  65.4517843   6.6792651  72.8525165  66.3088561   7.2249188  73.9748229
  60.1817709   8.2235381  64.7849803  60.0617334   8.6692432  65.6235283
  59.4870298   8.5720699  64.2263341  53.7725114  10.3241773  72.3349460
  53.9017495  10.5776252  73.2488871  53.0922565  10.9169481  72.0154115
  57.9424601  20.9939023  68.4339934  57.8648631  21.9446848  68.5128415
  57.3386245  20.6484896  69.0914860  60.4341831   8.1666889  81.0901301
  59.6575165   8.7260809  81.0804166  61.0732394   8.6523672  81.6116171
  68.2262612   4.9493681  74.9244278  67.5836992   5.2426215  74.2784072
  67.7217540   4.8346602  75.7297474  65.8802775   8.6956855  65.6130137
  66.7920631   8.9284241  65.4377834  65.3712422   9.2793899  65.0505215
  58.6888203  10.9752342  80.6519268  59.4302888  11.5137386  80.3754091
  57.9825189  11.6018631  80.8090820  64.1643543  13.1181482  79.2491429
  64.5726899  12.6763893  78.5046062  63.4420805  12.5434110  79.5025622
  60.5174613   8.0554089  76.6224986  61.3635808   8.4793503  76.7659635
  60.4573251   7.3987713  77.3163549  63.6674058   5.7158457  78.2806160
  63.4234990   6.4700518  77.7440436  63.9433989   6.0943805  79.1153407
  65.6212521  12.2597070  76.9583426  65.8329416  12.9028830  76.2817807
  65.5742269  11.4259386  76.4905356  63.2238750   4.8714891  73.8619998
  62.3623229   5.1696144  74.1536735  63.2501185   5.0885289  72.9301030
  60.0400320  13.4157081  70.2693803  60.5038665  13.6944784  69.4798426
  59.7757118  12.5140526  70.0866894  56.9324401  12.9628563  73.2073567
  57.5025758  13.3915831  72.5691051  57.5232512  12.6811147  73.9057752
  58.9769206   9.5380233  67.0783368  59.6793249   9.9901277  67.5457295
  58.6449834   8.8964052  67.7063262  57.4249567   8.1291990  81.4534578
  56.7948228   8.8108271  81.6869975  57.3185655   8.0175072  80.5087716
  52.7194540   7.7963786  72.3800502  51.9293594   8.0521315  71.9040613
  53.2105787   8.6112124  72.4852543  54.6709285   8.1608365  69.3383979
  53.8740448   8.2727060  69.8567474  54.4434877   8.4995018  68.4724869
  60.5014953  14.6853069  77.2866493  60.5659385  15.1473476  78.1224665
  59.7925876  14.0550434  77.4148803  51.0032243   8.0494277  74.8115493
  51.2540281   8.9341286  75.0773069  51.5391791   7.8698878  74.0390585
  74.8264342  11.4807774  71.4790754  74.0728051  10.9115172  71.3234759
  74.9611883  11.4470438  72.4261389  60.2162970  16.3521176  67.1545474
  60.0808645  17.1972712  67.5830322  60.7572783  16.5540454  66.3911408
  56.7030310   2.4312756  83.8159829  56.3097255   1.8778954  84.4907473
  57.5196450   2.7423334  84.2066346  53.6692368  13.8696614  67.7273399
  54.1816888  14.6639864  67.8778963  54.3215080  13.1722905  67.6607000
  55.4787252  16.9862370  69.8096152  55.6553881  17.9080335  69.6217136
  56.2744086  16.6720790  70.2390532  59.6198271   3.8470635  81.4080085
  60.3607984   4.4477788  81.3284548  59.8516194   3.1048273  80.8498128
  54.7639609   9.0327002  79.6858315  54.6493124   8.1312260  79.9865414
  53.9084127   9.2790699  79.3343132  61.8431447  16.9744743  81.2845816
  61.3995301  16.1881121  80.9666720  62.5048660  17.1623893  80.6189707
  56.6018568  18.5040544  75.8106494  57.1525993  18.3757608  75.0383488
  55.7630044  18.8035433  75.4601387  63.9412685  17.2547543  79.3127217
  63.9231160  18.0756424  78.8207486  64.8632605  17.1301618  79.5377358
  60.3985739  14.7691672  80.1550725  60.9314076  14.0079960  79.9250033
  59.8699820  14.4765324  80.8974880  63.5655434  -0.1248262  75.6844367
  63.2219703   0.7653380  75.6083478  63.9334396  -0.3146604  74.8213952
  51.6341284  12.1985268  68.5032969  52.4716506  12.6082277  68.2866677
  51.8119552  11.2584711  68.4733163  63.5305717   9.8660349  64.1916802
  63.0152340  10.6364954  64.4305190  63.2583025   9.1925485  64.8149864
  61.1152828   4.7110050  69.2502041  60.2594424   4.3216900  69.0707679
  61.5279779   4.7902011  68.3901826  62.6451974   2.2456393  73.6493600
  62.1416770   2.2086528  72.8361406  62.9382581   3.1549136  73.7090257
  58.8894860   2.3295123  72.6559782  59.7547857   2.1337932  72.2965672
  58.9572369   2.1005475  73.5829139  63.3192020   7.7387441  66.0176583
  63.0142155   8.0533590  66.8686727  64.2722462   7.8168861  66.0603916
  56.4957179   4.5597331  70.0276149  57.0700931   4.3372512  69.2949342
  57.0828162   4.6286025  70.7804750  56.8226766   6.5901792  64.0472034
  55.9864078   6.9276478  64.3681309  56.6831536   6.4550772  63.1099171
  58.7979847   1.4338580  68.7551218  58.1444259   1.1187597  68.1307833
  58.7560321   0.8114320  69.4811041  59.9091052  11.7157875  60.6704510
  59.0018113  11.4847128  60.8695659  60.4062084  10.9195494  60.8578492
  62.8159131  20.4255382  63.5901197  62.1420829  20.7287079  64.1986154
  63.2024953  21.2284462  63.2406654  62.0317587   7.9220513  73.0798866
  61.1140149   8.1435460  72.9220554  62.4477731   7.9966824  72.2210573
  62.8152635   9.3211929  68.2101546  63.5624454   9.8333326  67.9008668
  63.0844225   8.9995982  69.0705940  61.0879285  11.8170470  65.1928501
  60.1790504  11.5329502  65.2900970  61.1174369  12.2369548  64.3331807
  65.2631472   6.3569045  70.1920336  64.5254229   5.8446431  70.5230578
  65.5158246   5.9169427  69.3803612  65.3643099  -0.8654703  70.7862105
  65.6701976  -1.7257339  70.4988020  66.0895704  -0.2737083  70.5861099
  51.6567456   9.5375984  69.1743703  51.4591855   8.9445344  68.4494769
  51.1014120   9.2328194  69.8919642  59.6364179   9.4299090  71.2938296
  59.6912789   8.4772927  71.2180773  58.8255381   9.5858529  71.7779594
  60.7855373  13.3579213  62.5316579  60.3474803  12.6415072  62.0722216
  61.5265814  13.5855328  61.9701671  57.5756539   8.0476150  69.0528675
  56.7624405   8.3470321  69.4593867  58.0715533   7.6531839  69.7703157
  59.7265117  18.0433907  70.9862939  59.6841296  18.2694753  70.0571471
  60.6427816  17.8097281  71.1348741  63.1730751   8.5117974  77.8843569
  63.5280139   8.7389448  78.7438034  63.8202882   8.8436351  77.2620824
  57.0670614   5.6194505  74.6689910  57.7069993   5.4783265  73.9712873
  56.2348144   5.3329019  74.2928512  57.8430918  14.9196936  70.7824902
  58.6371516  14.4247256  70.5807477  57.1322610  14.3914799  70.4192608
  62.6625762  17.3015031  75.1337270  62.7162785  17.8705968  75.9014986
  61.7940544  17.4716916  74.7691307  54.1513681   9.0640018  66.8584655
  53.2211269   9.0024473  67.0754617  54.2471153   8.5415970  66.0621296
  54.0699230   5.5894830  69.4462897  54.3306048   6.5040164  69.3372057
  54.8916403   5.1219273  69.5959509  55.5424156   7.0032588  76.6161721
  56.2147209   6.7949950  75.9674370  54.7153942   6.8054674  76.1766953
  69.7913417  13.7436638  76.1337055  69.9849307  14.6482448  76.3796330
  69.6914035  13.2844057  76.9675640  61.4449728   3.6294529  78.6327382
  60.7977643   4.3284478  78.5391858  62.2150743   4.0630672  79.0003630
  64.8528526  13.8943381  81.7077935  64.7014032  13.6653932  80.7908019
  64.8433205  14.8513982  81.7209280  61.6213862  11.4675293  76.6924202
  62.5505922  11.6186453  76.5193169  61.2004892  11.5559314  75.8372848
  60.4202194  15.4925958  74.4622739  60.2813279  15.1244742  75.3348677
  59.6316790  16.0073597  74.2906697  61.0150346  20.5935054  65.8048276
  61.1902101  20.1223098  66.6193899  60.3283134  21.2200821  66.0329537
  55.9451653  10.2775191  77.3764158  55.8071451   9.5455429  77.9775697
  56.8556576  10.1884091  77.0948346  64.9066601  12.2163595  62.1248637
  64.2895771  11.4910423  62.0281689  64.4383089  12.9772955  61.7815711
  58.5733954   9.9895150  76.8647838  59.2833572   9.3488342  76.8234456
  58.5303262  10.2408045  77.7874019  66.5620732  16.9262503  79.7854417
  66.5033278  16.2421723  79.1185000  66.9640251  17.6681493  79.3335043
  57.2862888   6.9760368  78.6843477  56.7500245   6.5251106  79.3365074
  56.6979596   7.1106277  77.9413942  55.5811431  23.7424417  72.5788136
  55.8208029  24.3742941  73.2567155  54.7380627  23.3912457  72.8653495
  56.6965146   6.4349019  61.2469941  55.8194613   6.3137820  60.8832188
  57.1722900   5.6435098  60.9948830  66.5638139  14.8902087  78.0168397
  65.6764918  14.5528009  78.1394796  67.1336691  14.1585118  78.2537162
  48.2167287  11.2226179  71.3411448  48.9038326  10.9087909  70.7532463
  48.0615415  12.1267544  71.0678700  53.0202009   6.1116376  75.7696472
  52.9360197   5.5042045  75.0346882  52.1984715   6.6025394  75.7705968
  60.0939293  19.5503540  74.9829640  60.0209464  20.3558511  75.4948945
  59.6516686  19.7495505  74.1577661  59.8829072  18.7875310  68.4932462
  59.0996594  19.3296990  68.5870686  60.5821818  19.3049289  68.8926703
  63.1925723   4.5969939  71.1366667  63.6894422   3.8439901  70.8167737
  62.4212704   4.6334256  70.5709876  71.0455480  10.3010305  72.7784958
  71.0345356  11.1835020  72.4078892  70.1772859   9.9481855  72.5839495
  62.5537976  19.4490374  77.1387799  63.2665949  20.0837838  77.0663700
  62.0628005  19.5454240  76.3227800  59.7760691   6.7387322  70.8638351
  59.4058479   6.1858362  71.5519257  60.2719784   6.1345456  70.3113352
  57.6049890  17.1984817  77.9593369  58.3059349  17.8321300  78.1122764
  57.1345005  17.5399549  77.1989009  65.6344717   1.5639533  73.2846026
  64.7207797   1.7943759  73.4528233  66.0637819   1.6477977  74.1360058
  65.4051176   9.7529425  75.7845920  64.7522626  10.0005332  75.1298373
  65.7831556   8.9393563  75.4508397  62.3658350  19.7889118  69.8874090
  62.5480744  18.9710774  70.3501842  63.1891336  20.0056810  69.4498980
  62.7000515  18.7157303  67.1489139  63.2288282  18.2049757  66.5359301
  62.9628735  18.3999833  68.0134672  61.4538749  10.4949236  82.2711957
  60.7779386  10.3943365  82.9414332  62.2766383  10.3388449  82.7347954
  53.2017608  16.7321172  74.8924472  53.7871045  15.9864860  75.0252376
  53.0042446  17.0425129  75.7761136  56.0556263  19.7672419  69.9086915
  55.3866638  20.2518547  69.4250955  55.9169133  20.0141640  70.8230293
  47.7935263   9.3026772  73.6128915  47.8319362   8.7690363  74.4066033
  47.2875556   8.7761978  72.9939892  60.1961532  21.8016163  76.5069573
  60.7479840  21.9647785  77.2718658  60.5367725  22.3920601  75.8349598
  55.1726025   4.1491313  77.1091458  55.2367352   5.0106144  76.6968855
  55.1093145   3.5365314  76.3763816  54.6478298   6.2214445  80.7564492
  55.2750336   5.8391523  81.3702016  53.7906216   6.0028647  81.1220184
  65.0472406  16.6277421  82.3618227  65.5912310  17.2407379  81.8673182
  64.4659251  17.1856999  82.8785240  51.4243840   8.0290874  66.6882847
  51.7197281   7.1201553  66.6349900  50.5231876   8.0078614  66.3663849
  63.3329919  19.7498139  73.4933255  63.2081059  18.9487878  72.9844201
  63.9909010  20.2444332  73.0047225  54.9538087   6.1046871  72.6710395
  54.2324673   6.7182839  72.5317869  55.7431343   6.6404636  72.5927041
  65.3964827  17.5507159  75.1212805  64.4495163  17.4312510  75.0491132
  65.7447601  16.6629657  75.2039067  57.7564401   3.4401298  78.9451047
  58.2798803   3.6863594  79.7077356  57.5376734   4.2721332  78.5254184
  53.1531682   5.7104972  66.8122172  52.8244388   4.8302351  66.6297278
  53.5071053   5.6552641  67.6998561  62.4011261  17.3459875  71.3217157
  62.2536223  16.4176582  71.5024727  63.2264754  17.3679966  70.8374233
  56.2673505   5.9977942  67.1797650  56.6069578   6.5263863  66.4576258
  56.7145626   6.3358348  67.9556216  58.9616946   4.3814993  76.6300718
  58.6213766   3.5822806  77.0321397  58.2555952   4.6816703  76.0577551
  59.6133418   1.4664305  75.0828041  60.4359487   0.9924783  74.9606931
  59.8571481   2.2454789  75.5826727  58.2541652   4.4952564  65.3790942
  58.9750015   4.8733816  64.8754659  57.6306956   5.2141440  65.4825920
  62.3972775   5.1997712  66.3149275  62.6136389   6.0822350  66.0138103
  61.9166842   4.8083926  65.5854917  57.1371996   8.1583426  72.8920019
  56.9916577   8.4723729  73.7844301  56.6597200   8.7768326  72.3390918
  58.9968379   5.1485974  72.9400909  58.9829948   4.2527067  72.6033207
  59.7140807   5.1556637  73.5739195  60.8494510   5.5823314  74.9854036
  60.5912288   6.5040385  74.9838367  60.3179550   5.1853748  75.6754500
  51.6117659  10.6988770  75.8307680  51.0671127  11.4748578  75.9627955
  52.4897008  11.0459575  75.6726802  58.4005275   4.0300354  68.2088479
  58.5221186   3.1017000  68.4079366  58.1107318   4.0439040  67.2966794
  61.2696466   1.7155264  71.3455199  61.2918162   1.7794598  70.3907178
  61.6864525   0.8759773  71.5395705  52.3983680   9.8258666  78.7237837
  51.6565417   9.9741302  79.3102468  52.0776425  10.0866932  77.8604587
  60.3427343  19.3674645  78.5218227  60.6514470  19.1223791  79.3940927
  61.1402825  19.5721283  78.0337097  60.3647955  21.5212554  70.7523604
  59.9252945  21.0288933  71.4456461  61.1156072  20.9785522  70.5115679
  52.8440294  17.7124095  70.7548232  53.6698314  17.4127867  70.3746875
  52.4934346  16.9431718  71.2038021  57.8121827  17.0650563  72.8245905
  57.1901837  16.4021268  72.5248133  58.4826694  17.0911695  72.1419553
  51.0448899  15.6310422  71.7137165  50.2080808  15.2032596  71.5321167
  51.0172545  15.8242865  72.6507957  57.8846355   5.5432351  82.4178412
  57.9334510   6.4194474  82.0356181  58.4268869   5.0009744  81.8450055
  68.3701200  16.0873475  81.6979549  67.5796744  16.0697613  81.1584048
  68.1334555  16.6261768  82.4528585  68.4899076  12.9365941  79.0112277
  68.5397080  12.7715948  79.9527800  68.3812999  12.0693200  78.6210158
  57.3735334  15.6154487  66.3004366  57.5223455  16.2989951  65.6471039
  58.1801778  15.5959577  66.8153822  65.7802838   8.9196869  80.3271584
  66.6812701   8.7803334  80.0355582  65.8550812   9.0851324  81.2669761
  60.1145643   6.2963724  79.1724770  59.2448953   6.5897290  78.9007359
  60.3505124   6.8804169  79.8932034  69.9917272  15.3562882  79.2554299
  69.7002081  15.7192863  80.0917760  69.3789404  14.6429891  79.0767631
  68.2404461  10.4795497  77.7234357  68.7158582  10.6723143  76.9153208
  67.3170026  10.5354683  77.4777740  55.1287967  11.6419664  67.3065435
  54.8834009  10.7381994  67.5045645  55.2983882  11.6436815  66.3644913
  62.8184677   2.5143341  76.6890191  63.3366621   3.2504368  76.3636679
  62.4639810   2.8207334  77.5236950  54.3983615   7.3748022  64.8051596
  53.7052860   7.4492377  64.1491632  54.1535367   6.6108366  65.3273113
  63.0697271  -1.0656377  72.2091087  63.3499025  -1.7333188  72.8351514
  63.8547878  -0.8727281  71.6965751  60.8730740  18.1102617  63.7716113
  60.3004707  18.7292804  63.3186585  61.4463533  18.6601979  64.3056035
  66.9406130   7.3561257  75.9562662  67.8923553   7.4559355  75.9774886
  66.7709580   6.5639526  76.4660747  64.9620509   4.4416840  76.1422063
  64.3670441   4.7221853  75.4468552  64.6770206   4.9310741  76.9138804
  64.0928000  18.3939767  64.9024696  65.0258673  18.3285329  65.1057571
  64.0051212  19.2296034  64.4439228  66.7216016  17.7105638  61.8628643
  66.6429648  17.3765501  62.7564401  67.5425683  18.2027405  61.8620116
  69.4194207  10.5767377  75.0704962  69.3870528   9.6383378  75.2564646
  70.0294831  10.6551414  74.3370787  61.2577538   9.4463430  61.1132166
  62.2036643   9.3169638  61.1820584  60.8791783   8.7078092  61.5901594
  69.5688696   7.3678420  75.1163245  69.0527745   6.5836877  74.9293174
  70.4528644   7.0397137  75.2809765  67.2299423   1.1119436  71.0759058
  67.0324244   0.8034524  71.9602390  67.8399128   1.8381075  71.2056988
  75.2370757  11.6383384  74.2110999  75.9674146  11.3768672  74.7718702
  74.6277703  10.9012106  74.2513067  73.3186054   9.7791246  74.8085450
  72.5919218   9.6447211  74.2001941  72.9033341  10.0868075  75.6142168
  61.1416231  13.4981176  82.5732823  62.0619240  13.6759775  82.7672869
  61.1065814  12.5537221  82.4212522  59.4420455   7.3713406  61.0487051
  58.5351911   7.0746519  61.1249765  59.7196436   7.0743224  60.1821337
  50.3598396   8.6919770  71.4986098  50.0401180   7.8385078  71.2060472
  49.8131824   8.9068348  72.2544065  54.1378303  11.4082211  75.2155604
  54.3564313  12.3399318  75.2343638  54.5504077  11.0490185  76.0010408
  61.0582521   1.9150296  67.2031292  60.2483249   1.5697381  67.5786539
  61.7466938   1.6057840  67.7918904  62.9873069   0.9928343  68.8255589
  63.5404108   1.4123796  69.4845612  63.2243156   0.0664091  68.8678545
  59.0106169   6.9815416  84.6058353  58.9102896   7.9309773  84.5370444
  58.7927711   6.6533655  83.7334423  58.2119240   4.2300341  61.1899030
  59.0738404   4.5555240  61.4494848  58.3969584   3.4431837  60.6772096
  50.2286656  12.3122681  73.4679219  49.5350127  11.8976634  72.9549174
  50.9759647  12.3543218  72.8712638  66.3651877   3.1028868  68.3334253
  65.7850546   3.7613672  67.9512306  66.0987809   2.2806213  67.9221671
  64.8155443   2.5033926  70.5355574  65.3155221   2.6150460  69.7269893
  65.4591051   2.1994978  71.1756382  58.8737439  10.4112555  83.4223415
  58.3904520  11.2112915  83.6287304  58.9598378  10.4220500  82.4690859
  52.1423398  12.2440935  71.3445234  52.1194086  12.3428622  70.3927117
  52.4524035  13.0906086  71.6662400  54.8010776  14.3017090  75.4591848
  55.7554030  14.2701032  75.3921780  54.6023300  13.8407714  76.2742074
  55.3910158  12.8718206  78.0262646  56.2103047  13.3662285  78.0497483
  55.6646966  11.9550174  77.9980214  65.1476755   5.2628958  67.3890602
  64.2602610   5.5478609  67.1710796  65.5630744   5.1022722  66.5417879
  68.4991291   5.2875479  71.1044941  69.2751681   5.7771932  71.3769558
  67.7739425   5.7133533  71.5616810  70.9363849   6.0003099  72.1618881
  71.5308340   5.7598834  71.4512190  71.0090433   5.2810229  72.7892418
  53.1561005  19.8436709  72.4762046  53.0215473  19.0837110  71.9100044
  52.7393067  20.5677609  72.0090835  64.2919968  15.0273633  61.4838622
  64.9955818  15.2323635  62.0996277  63.5682617  15.5950395  61.7487705
  68.9322584   6.5673226  68.4291011  68.6759518   6.1669862  69.2599219
  68.3075452   7.2817020  68.3041150  73.2434922   9.3069299  70.9362303
  72.6834480   9.3762489  71.7093865  72.6378425   9.1310284  70.2161799
  56.3130131  20.7406026  72.6880489  56.1962515  21.6851459  72.5859179
  55.4922577  20.4379588  73.0766288  65.8552558  11.9688275  64.8993421
  65.8001361  11.8032547  63.9581865  65.2298613  12.6764308  65.0555611
  50.6445073   7.2056340  78.7254843  51.2903936   6.6955294  79.2142068
  50.4362224   7.9425022  79.2998268  63.1698465  14.2737187  84.2246984
  64.0389624  14.4477840  83.8633619  62.6905216  15.0931604  84.1022713
  59.1648683   1.4696384  64.4778739  59.1527353   2.4138224  64.6347010
  60.0572105   1.2866530  64.1838201  57.3384645  21.3934288  75.9036417
  58.2411892  21.4257899  76.2202912  57.1122015  20.4634739  75.9182753
  59.0938247  20.1465275  72.5646496  58.1433878  20.1467137  72.4510868
  59.3970733  19.3998009  72.0482531  62.9800802  -1.9360839  68.7324676
  62.2133198  -2.4902352  68.8781359  63.3911507  -1.8638970  69.5938828
  54.9842564   4.3523957  82.8229857  55.8474025   3.9960762  83.0333182
  54.4107974   4.0137852  83.5105262  74.8290940  25.9825813  73.6292258
  75.4669350  25.8632561  72.9255598  74.7111783  26.9306657  73.6880211
  71.6380647  25.9353241  73.5653783  71.2999158  25.8194306  72.6774318
  72.5070415  25.5344406  73.5454789  72.1200430  27.0888093  79.5239989
  72.1089071  26.6940891  78.6520492  72.2821069  26.3554166  80.1173760
  65.0431894  29.2839909  72.3934895  65.8353186  28.9430734  71.9781194
  65.2828545  29.3934884  73.3137048  68.8407691  29.8725205  78.4719173
  68.5497557  30.7770836  78.3565839  69.4764675  29.9141733  79.1863242
  69.3388926  24.7041489  62.8970723  69.5914447  24.1823010  62.1354186
  68.4013485  24.5407634  62.9997407  74.3832209  23.7077267  70.7045466
  75.1695298  23.2896690  70.3535883  74.6470913  24.6123359  70.8727115
  79.7840636  23.6452500  71.6078445  80.5165808  23.0751717  71.8416274
  79.0279992  23.2574101  72.0484951  77.3066056  17.3574074  76.0673054
  76.9749381  18.2269485  75.8434269  76.7111670  17.0410358  76.7467084
  67.2510057  26.0100417  71.5005671  66.3260554  25.8776631  71.7083362
  67.4994471  26.7894637  71.9975613  64.6118869  25.6533691  72.3349460
  64.7411250  25.9068170  73.2488871  63.9316320  26.2461399  72.0154115
  71.2735586  23.4958806  81.0901301  70.4968920  24.0552726  81.0804166
  71.9126149  23.9815589  81.6116171  79.0656366  20.2785599  74.9244278
  78.4230746  20.5718132  74.2784072  78.5611295  20.1638519  75.7297474
  69.5281958  26.3044260  80.6519268  70.2696642  26.8429304  80.3754091
  68.8218943  26.9310548  80.8090820  75.0037298  28.4473400  79.2491429
  75.4120654  28.0055811  78.5046062  74.2814559  27.8726028  79.5025622
  71.3568368  23.3846007  76.6224986  72.2029563  23.8085420  76.7659635
  71.2967005  22.7279631  77.3163549  74.5067813  21.0450375  78.2806160
  74.2628745  21.7992436  77.7440436  74.7827743  21.4235723  79.1153407
  76.4606276  27.5888988  76.9583426  76.6723171  28.2320747  76.2817807
  76.4136024  26.7551304  76.4905356  68.2643322  23.4583908  81.4534578
  67.6341982  24.1400189  81.6869975  68.1579409  23.3466989  80.5087716
  63.5588294  23.1255704  72.3800502  62.7687348  23.3813232  71.9040613
  64.0499541  23.9404042  72.4852543  65.5103039  23.4900283  69.3383979
  64.7134203  23.6018977  69.8567474  65.2828632  23.8286935  68.4724869
  61.8425997  23.3786194  74.8115493  62.0934035  24.2633204  75.0773069
  62.3785545  23.1990796  74.0390585  67.5424064  17.7604674  83.8159829
  67.1491010  17.2070872  84.4907473  68.3590205  18.0715252  84.2066346
  64.5086122  29.1988532  67.7273399  65.0210643  29.9931782  67.8778963
  65.1608835  28.5014822  67.6607000  70.4592025  19.1762553  81.4080085
  71.2001739  19.7769706  81.3284548  70.6909948  18.4340190  80.8498128
  65.6033363  24.3618920  79.6858315  65.4886878  23.4604177  79.9865414
  64.7477881  24.6082617  79.3343132  72.6825201  32.3036660  81.2845816
  72.2389055  31.5173039  80.9666720  73.3442415  32.4915811  80.6189707
  74.7806439  32.5839460  79.3127217  74.7624915  33.4048341  78.8207486
  75.7026359  32.4593535  79.5377358  71.2379493  30.0983590  80.1550725
  71.7707830  29.3371878  79.9250033  70.7093574  29.8057241  80.8974880
  74.4049188  15.2043656  75.6844367  74.0613458  16.0945297  75.6083478
  74.7728151  15.0145313  74.8213952  62.4735039  27.5277186  68.5032969
  63.3110261  27.9374194  68.2866677  62.6513307  26.5876628  68.4733163
  67.6620521  21.9193709  64.0472034  66.8257833  22.2568396  64.3681309
  67.5225290  21.7842689  63.1099171  72.8711342  23.2512431  73.0798866
  71.9533903  23.4727378  72.9220554  73.2871485  23.3258741  72.2210573
  62.4961210  24.8667901  69.1743703  62.2985610  24.2737262  68.4494769
  61.9407874  24.5620112  69.8919642  70.4757934  24.7591008  71.2938296
  70.5306543  23.8064844  71.2180773  69.6649136  24.9150447  71.7779594
  74.0124505  23.8409892  77.8843569  74.3673893  24.0681365  78.7438034
  74.6596636  24.1728269  77.2620824  67.9064368  20.9486423  74.6689910
  68.5463748  20.8075182  73.9712873  67.0741899  20.6620937  74.2928512
  64.9907436  24.3931935  66.8584655  64.0605024  24.3316391  67.0754617
  65.0864908  23.8707888  66.0621296  64.9092985  20.9186748  69.4462897
  65.1699802  21.8332081  69.3372057  65.7310157  20.4511191  69.5959509
  66.3817910  22.3324505  76.6161721  67.0540964  22.1241867  75.9674370
  65.5547697  22.1346591  76.1766953  80.6307171  29.0728556  76.1337055
  80.8243061  29.9774366  76.3796330  80.5307790  28.6135975  76.9675640
  72.2843482  18.9586446  78.6327382  71.6371397  19.6576396  78.5391858
  73.0544498  19.3922590  79.0003630  75.6922280  29.2235298  81.7077935
  75.5407786  28.9945850  80.7908019  75.6826960  30.1805900  81.7209280
  72.4607616  26.7967211  76.6924202  73.3899676  26.9478371  76.5193169
  72.0398646  26.8851232  75.8372848  66.7845407  25.6067108  77.3764158
  66.6465205  24.8747347  77.9775697  67.6950331  25.5176008  77.0948346
  69.4127708  25.3187068  76.8647838  70.1227327  24.6780260  76.8234456
  69.3697016  25.5699962  77.7874019  77.4014487  32.2554421  79.7854417
  77.3427033  31.5713641  79.1185000  77.8034005  32.9973411  79.3335043
  68.1256642  22.3052285  78.6843477  67.5893999  21.8543024  79.3365074
  67.5373350  22.4398194  77.9413942  67.5358901  21.7640937  61.2469941
  66.6588367  21.6429738  60.8832188  68.0116654  20.9727015  60.9948830
  77.4031894  30.2194005  78.0168397  76.5158673  29.8819927  78.1394796
  77.9730445  29.4877036  78.2537162  59.0561041  26.5518097  71.3411448
  59.7432081  26.2379827  70.7532463  58.9009170  27.4559461  71.0678700
  63.8595763  21.4408293  75.7696472  63.7753952  20.8333963  75.0346882
  63.0378470  21.9317312  75.7705968  81.8849235  25.6302222  72.7784958
  81.8739111  26.5126938  72.4078892  81.0166614  25.2773773  72.5839495
  76.2444930  25.0821342  75.7845920  75.5916381  25.3297250  75.1298373
  76.6225310  24.2685480  75.4508397  72.2932503  25.8241153  82.2711957
  71.6173140  25.7235283  82.9414332  73.1160137  25.6680367  82.7347954
  64.0411362  32.0613090  74.8924472  64.6264799  31.3156778  75.0252376
  63.8436201  32.3717046  75.7761136  58.6329017  24.6318690  73.6128915
  58.6713117  24.0982281  74.4066033  58.1269310  24.1053895  72.9939892
  66.0119780  19.4783230  77.1091458  66.0761106  20.3398061  76.6968855
  65.9486900  18.8657232  76.3763816  65.4872052  21.5506363  80.7564492
  66.1144091  21.1683440  81.3702016  64.6299971  21.3320565  81.1220184
  75.8866161  31.9569338  82.3618227  76.4306065  32.5699296  81.8673182
  75.3053005  32.5148917  82.8785240  62.2637595  23.3582792  66.6882847
  62.5591036  22.4493471  66.6349900  61.3625631  23.3370532  66.3663849
  65.7931842  21.4338789  72.6710395  65.0718428  22.0474756  72.5317869
  66.5825098  21.9696554  72.5927041  68.5958155  18.7693215  78.9451047
  69.1192557  19.0155512  79.7077356  68.3770489  19.6013250  78.5254184
  63.9925436  21.0396890  66.8122172  63.6638143  20.1594269  66.6297278
  64.3464807  20.9844558  67.6998561  69.8010700  19.7106910  76.6300718
  69.4607521  18.9114723  77.0321397  69.0949707  20.0108621  76.0577551
  67.9765751  23.4875343  72.8920019  67.8310332  23.8015646  73.7844301
  67.4990955  24.1060244  72.3390918  69.8362134  20.4777891  72.9400909
  69.8223703  19.5818985  72.6033207  70.5534562  20.4848555  73.5739195
  71.6888265  20.9115232  74.9854036  71.4306042  21.8332302  74.9838367
  71.1573305  20.5145666  75.6754500  62.4511413  26.0280688  75.8307680
  61.9064881  26.8040496  75.9627955  63.3290763  26.3751492  75.6726802
  63.2377435  25.1550584  78.7237837  62.4959171  25.3033219  79.3102468
  62.9170179  25.4158850  77.8604587  63.6834049  33.0416013  70.7548232
  64.5092069  32.7419785  70.3746875  63.3328101  32.2723635  71.2038021
  61.8842654  30.9602339  71.7137165  61.0474562  30.5324514  71.5321167
  61.8566299  31.1534783  72.6507957  68.7240109  20.8724269  82.4178412
  68.7728265  21.7486392  82.0356181  69.2662624  20.3301662  81.8450055
  79.2094955  31.4165392  81.6979549  78.4190499  31.3989531  81.1584048
  78.9728310  31.9553686  82.4528585  79.3292830  28.2657859  79.0112277
  79.3790835  28.1007866  79.9527800  79.2206753  27.3985118  78.6210158
  76.6196592  24.2488787  80.3271584  77.5206455  24.1095252  80.0355582
  76.6944567  24.4143242  81.2669761  70.9539398  21.6255641  79.1724770
  70.0842707  21.9189207  78.9007359  71.1898878  22.2096086  79.8932034
  80.8311027  30.6854800  79.2554299  80.5395835  31.0484781  80.0917760
  80.2183158  29.9721808  79.0767631  79.0798215  25.8087415  77.7234357
  79.5552337  26.0015061  76.9153208  78.1563780  25.8646601  77.4777740
  73.6578432  17.8435258  76.6890191  74.1760375  18.5796285  76.3636679
  73.3033564  18.1499252  77.5236950  65.2377369  22.7039940  64.8051596
  64.5446614  22.7784295  64.1491632  64.9929121  21.9400283  65.3273113
  77.7799884  22.6853175  75.9562662  78.7317307  22.7851273  75.9774886
  77.6103335  21.8931443  76.4660747  80.2587962  25.9059295  75.0704962
  80.2264282  24.9675295  75.2564646  80.8688586  25.9843331  74.3370787
  80.4082450  22.6970338  75.1163245  79.8921499  21.9128795  74.9293174
  81.2922399  22.3689055  75.2809765  86.0764512  26.9675301  74.2110999
  86.8067900  26.7060590  74.7718702  85.4671457  26.2304023  74.2513067
  84.1579809  25.1083164  74.8085450  83.4312972  24.9739129  74.2001941
  83.7427096  25.4159993  75.6142168  71.9809985  28.8273094  82.5732823
  72.9012995  29.0051693  82.7672869  71.9459568  27.8829139  82.4212522
  61.1992150  24.0211687  71.4986098  60.8794935  23.1676996  71.2060472
  60.6525578  24.2360265  72.2544065  64.9772058  26.7374128  75.2155604
  65.1958068  27.6691236  75.2343638  65.3897832  26.3782103  76.0010408
  69.8499923  22.3107334  84.6058353  69.7496650  23.2601691  84.5370444
  69.6321465  21.9825573  83.7334423  69.0512995  19.5592259  61.1899030
  69.9132159  19.8847157  61.4494848  69.2363339  18.7723755  60.6772096
  61.0680410  27.6414599  73.4679219  60.3743882  27.2268552  72.9549174
  61.8153401  27.6835135  72.8712638  69.7131193  25.7404473  83.4223415
  69.2298275  26.5404833  83.6287304  69.7992132  25.7512418  82.4690859
  62.9817153  27.5732853  71.3445234  62.9587841  27.6720540  70.3927117
  63.2917789  28.4198003  71.6662400  66.2303913  28.2010124  78.0262646
  67.0496802  28.6954202  78.0497483  66.5040721  27.2842092  77.9980214
  81.7757604  21.3295016  72.1618881  82.3702095  21.0890752  71.4512190
  81.8484187  20.6102147  72.7892418  63.9954759  35.1728627  72.4762046
  63.8609227  34.4129028  71.9100044  63.5786822  35.8969527  72.0090835
  61.4838827  22.5348258  78.7254843  62.1297691  22.0247212  79.2142068
  61.2755978  23.2716939  79.2998268  74.0092219  29.6029105  84.2246984
  74.8783379  29.7769757  83.8633619  73.5298971  30.4223522  84.1022713
  65.8236318  19.6815875  82.8229857  66.6867780  19.3252679  83.0333182
  65.2501729  19.3429769  83.5105262  85.6684695  41.3117731  73.6292258
  86.3063105  41.1924478  72.9255598  85.5505538  42.2598575  73.6880211
  85.2225963  39.0369185  70.7045466  86.0089053  38.6188608  70.3535883
  85.4864668  39.9415277  70.8727115  88.1459811  32.6865992  76.0673054
  87.8143136  33.5561403  75.8434269  87.5505424  32.3702276  76.7467084
  88.0388474  37.4061078  73.1466404  87.1305352  37.3376487  72.8525165
  87.9876070  37.8833023  73.9748229  82.1129340  38.8250724  81.0901301
  81.3362674  39.3844644  81.0804166  82.7519903  39.3107507  81.6116171
  89.9050121  35.6077517  74.9244278  89.2624501  35.9010050  74.2784072
  89.4005049  35.4930437  75.7297474  82.1962122  38.7137924  76.6224986
  83.0423317  39.1377338  76.7659635  82.1360760  38.0571549  77.3163549
  85.3461567  36.3742293  78.2806160  85.1022499  37.1284353  77.7440436
  85.6221498  36.7527640  79.1153407  87.3000030  42.9180905  76.9583426
  87.5116925  43.5612665  76.2817807  87.2529778  42.0843222  76.4905356
  84.9026259  35.5298726  73.8619998  84.0410738  35.8279979  74.1536735
  84.9288694  35.7469125  72.9301030  79.1037076  38.7875825  81.4534578
  78.4735737  39.4692106  81.6869975  78.9973164  38.6758907  80.5087716
  96.5051851  42.1391609  71.4790754  95.7515560  41.5699007  71.3234759
  96.6399392  42.1054274  72.4261389  78.3817819  33.0896591  83.8159829
  77.9884764  32.5362790  84.4907473  79.1983959  33.4007170  84.2066346
  81.2985780  34.5054470  81.4080085  82.0395493  35.1061624  81.3284548
  81.5303703  33.7632108  80.8498128  85.2442943  30.5335573  75.6844367
  84.9007212  31.4237215  75.6083478  85.6121905  30.3437231  74.8213952
  83.7105096  38.5804349  73.0798866  82.7927658  38.8019296  72.9220554
  84.1265240  38.6550659  72.2210573  84.8518260  39.1701810  77.8843569
  85.2067647  39.3973283  78.7438034  85.4990391  39.5020187  77.2620824
  90.6085376  44.3596773  73.6004169  91.0421883  44.2672062  74.4487223
  91.3216957  44.3354273  72.9624185  91.4700926  44.4020473  76.1337055
  91.6636816  45.3066284  76.3796330  91.3701544  43.9427892  76.9675640
  83.1237237  34.2878364  78.6327382  82.4765152  34.9868314  78.5391858
  83.8938252  34.7214508  79.0003630  78.9650396  37.6344203  78.6843477
  78.4287754  37.1834942  79.3365074  78.3767105  37.7690112  77.9413942
  88.2425648  45.5485923  78.0168397  87.3552427  45.2111844  78.1394796
  88.8124200  44.8168954  78.2537162  92.7242989  40.9594140  72.7784958
  92.7132865  41.8418855  72.4078892  91.8560368  40.6065691  72.5839495
  87.0838685  40.4113260  75.7845920  86.4310135  40.6589167  75.1298373
  87.4619065  39.5977398  75.4508397  76.8513534  34.8075148  77.1091458
  76.9154860  35.6689979  76.6968855  76.7880654  34.1949150  76.3763816
  76.3265807  36.8798281  80.7564492  76.9537845  36.4975358  81.3702016
  75.4693725  36.6612483  81.1220184  86.7259915  47.2861256  82.3618227
  87.2699819  47.8991214  81.8673182  86.1446760  47.8440834  82.8785240
  79.4351910  34.0985133  78.9451047  79.9586312  34.3447429  79.7077356
  79.2164243  34.9305168  78.5254184  79.5633864  36.2016187  82.4178412
  79.6122019  37.0778309  82.0356181  80.1056378  35.6593580  81.8450055
  90.0488709  46.7457310  81.6979549  89.2584253  46.7281449  81.1584048
  89.8122064  47.2845604  82.4528585  90.1686585  43.5949776  79.0112277
  90.2184589  43.4299784  79.9527800  90.0600508  42.7277035  78.6210158
  87.4590347  39.5780704  80.3271584  88.3600210  39.4387169  80.0355582
  87.5338321  39.7435159  81.2669761  81.7933152  36.9547559  79.1724770
  80.9236462  37.2481125  78.9007359  82.0292633  37.5388004  79.8932034
  91.6704781  46.0146718  79.2554299  91.3789590  46.3776698  80.0917760
  91.0576913  45.3013726  79.0767631  89.9191970  41.1379332  77.7234357
  90.3946091  41.3306979  76.9153208  88.9957535  41.1938518  77.4777740
  84.4972186  33.1727176  76.6890191  85.0154130  33.9088203  76.3636679
  84.1427319  33.4791169  77.5236950  88.6193639  38.0145093  75.9562662
  89.5711061  38.1143190  75.9774886  88.4497089  37.2223361  76.4660747
  86.6408018  35.1000676  76.1422063  86.0457950  35.3805688  75.4468552
  86.3557715  35.5894577  76.9138804  91.0981716  41.2351212  75.0704962
  91.0658036  40.2967213  75.2564646  91.7082340  41.3135249  74.3370787
  91.2476205  38.0262256  75.1163245  90.7315254  37.2420712  74.9293174
  92.1316153  37.6980972  75.2809765  96.9158266  42.2967219  74.2110999
  97.6461655  42.0352507  74.7718702  96.3065212  41.5595941  74.2513067
  94.9973563  40.4375082  74.8085450  94.2706727  40.3031047  74.2001941
  94.5820850  40.7451910  75.6142168  80.6893678  37.6399252  84.6058353
  80.5890405  38.5893609  84.5370444  80.4715220  37.3117491  83.7334423
  80.5524948  41.0696391  83.4223415  80.0692029  41.8696751  83.6287304
  80.6385887  41.0804335  82.4690859  90.1778800  35.9459315  71.1044941
  90.9539190  36.4355767  71.3769558  89.4526934  36.3717369  71.5616810
  92.6151358  36.6586934  72.1618881  93.2095849  36.4182670  71.4512190
  92.6877942  35.9394064  72.7892418  94.9222431  39.9653135  70.9362303
  94.3621989  40.0346324  71.7093865  94.3165934  39.7894119  70.2161799
  84.8485974  44.9321023  84.2246984  85.7177133  45.1061675  83.8633619
  84.3692725  45.7515440  84.1022713  76.6630073  35.0107792  82.8229857
  77.5261534  34.6544597  83.0333182  76.0895483  34.6721687  83.5105262
  86.7219403  59.9423745  72.3934895  87.5140695  59.6014569  71.9781194
  86.9616054  60.0518720  73.3137048  98.9853565  48.0157910  76.0673054
  98.6536890  48.8853321  75.8434269  98.3899179  47.6994194  76.7467084
 100.7443875  50.9369434  74.9244278 100.1018255  51.2301968  74.2784072
 100.2398804  50.8222355  75.7297474  89.9430831  54.1167743  81.4534578
  89.3129491  54.7984024  81.6869975  89.8366918  54.0050825  80.5087716
  89.2211573  48.4188509  83.8159829  88.8278519  47.8654708  84.4907473
  90.0377714  48.7299087  84.2066346  92.1379534  49.8346388  81.4080085
  92.8789248  50.4353541  81.3284548  92.3697457  49.0924026  80.8498128
  96.0836697  45.8627491  75.6844367  95.7400967  46.7529133  75.6083478
  96.4515660  45.6729149  74.8213952  95.1633238  48.2332146  73.6493600
  94.6598033  48.1962281  72.8361406  95.4563845  49.1424889  73.7090257
  97.8824363  45.1221050  70.7862105  98.1883240  44.2618414  70.4988020
  98.6076968  45.7138670  70.5861099  93.9630991  49.6170282  78.6327382
  93.3158906  50.3160231  78.5391858  94.7332006  50.0506426  79.0003630
  89.8044151  52.9636121  78.6843477  89.2681508  52.5126859  79.3365074
  89.2160859  53.0982030  77.9413942  98.1525981  47.5515286  73.2846026
  97.2389061  47.7819512  73.4528233  98.5819082  47.6353730  74.1360058
  97.5653670  62.6153174  82.3618227  98.1093574  63.2283132  81.8673182
  96.9840514  63.1732752  82.8785240  90.2745664  49.4277051  78.9451047
  90.7980066  49.6739347  79.7077356  90.0557998  50.2597085  78.5254184
  83.5630163  61.6186175  71.7137165  82.7262071  61.1908349  71.5321167
  83.5353808  61.8118618  72.6507957  90.4027618  51.5308104  82.4178412
  90.4515774  52.4070227  82.0356181  90.9450132  50.9885497  81.8450055
 100.8882464  62.0749228  81.6979549 100.0978008  62.0573366  81.1584048
 100.6515819  62.6137521  82.4528585  92.6326907  52.2839477  79.1724770
  91.7630216  52.5773043  78.9007359  92.8686387  52.8679922  79.8932034
 100.7585724  56.4671250  77.7234357 101.2339846  56.6598896  76.9153208
  99.8351289  56.5230436  77.4777740  95.3365941  48.5019094  76.6890191
  95.8547884  49.2380121  76.3636679  94.9821073  48.8083087  77.5236950
  95.5878535  44.9219376  72.2091087  95.8680289  44.2542565  72.8351514
  96.3729142  45.1148472  71.6965751  99.4587393  53.3437010  75.9562662
 100.4104816  53.4435108  75.9774886  99.2890843  52.5515279  76.4660747
  97.4801773  50.4292593  76.1422063  96.8851705  50.7097606  75.4468552
  97.1951469  50.9186494  76.9138804 102.0869959  53.3554173  75.1163245
 101.5709008  52.5712630  74.9293174 102.9709908  53.0272890  75.2809765
  99.7480686  47.0995189  71.0759058  99.5505507  46.7910277  71.9602390
 100.3580392  47.8256828  71.2056988  91.5287432  52.9691169  84.6058353
  91.4284159  53.9185526  84.5370444  91.3108974  52.6409408  83.7334423
  87.9091422  58.8593959  78.0262646  88.7284311  59.3538038  78.0497483
  88.1828230  57.9425927  77.9980214 100.0605328  63.7480427  83.8159829
  99.6672273  63.1946625  84.4907473 100.8771468  64.0591005  84.2066346
 107.2987703  78.5715213  79.3127217 107.2806178  79.3924094  78.8207486
 108.2207623  78.4469288  79.5377358 109.9195750  78.2430174  79.7854417
 109.8608296  77.5589394  79.1185000 110.3215269  78.9849164  79.3335043
 108.4047424  77.9445091  82.3618227 108.9487328  78.5575050  81.8673182
 107.8234269  78.5024670  82.8785240 111.7276218  77.4041145  81.6979549
 110.9371762  77.3865284  81.1584048 111.4909573  77.9429439  82.4528585
 118.5945775  72.9551054  74.2110999 119.3249164  72.6936343  74.7718702
 117.9852721  72.2179776  74.2513067 116.6761072  71.0958917  74.8085450
 115.9494236  70.9614882  74.2001941 116.2608359  71.4035746  75.6142168
  98.3417582  65.6691628  82.8229857  99.2049043  65.3128433  83.0333182
  97.7682992  65.3305522  83.5105262 118.1865958  87.2993484  73.6292258
 118.8244368  87.1800231  72.9255598 118.0686801  88.2474328  73.6880211
 114.9955665  87.2520912  73.5653783 114.6574176  87.1361977  72.6774318
 115.8645433  86.8512077  73.5454789 115.4775448  88.4055764  79.5239989
 115.4664088  88.0108562  78.6520492 115.6396087  87.6721836  80.1173760
 116.4342039  92.7727356  64.8665139 115.7830019  93.3581437  64.4799153
 117.2286402  93.3033551  64.9260176 112.1982709  91.1892876  78.4719173
 111.9072575  92.0938506  78.3565839 112.8339693  91.2309403  79.1863242
 113.1238916  88.5669724  75.0620532 113.7202488  88.3425747  74.3477495
 113.1813887  87.8254470  75.6645980 112.6963944  86.0209159  62.8970723
 112.9489465  85.4990681  62.1354186 111.7588503  85.8575305  62.9997407
 117.7407227  85.0244938  70.7045466 118.5270316  84.6064361  70.3535883
 118.0045931  85.9291030  70.8727115 117.9117304  90.4617788  65.4034123
 117.2763137  90.5352415  66.1155028 117.5814711  91.0511387  64.7253203
 123.1415654  84.9620171  71.6078445 123.8740826  84.3919388  71.8416274
 122.3855010  84.5741771  72.0484951 114.7591774  87.3847413  68.8041787
 114.3949981  86.8578034  69.5154709 115.6158890  86.9945882  68.6308273
 120.6641074  78.6741745  76.0673054 120.3324399  79.5437156  75.8434269
 120.0686688  78.3578029  76.7467084 117.1572594  90.8754291  75.4668966
 116.8573317  91.7779330  75.3584774 116.8123653  90.6086474  76.3190119
 120.5569738  83.3936831  73.1466404 119.6486615  83.3252240  72.8525165
 120.5057334  83.8708776  73.9748229 112.1393374  97.6398611  68.4339934
 112.0617403  98.5906437  68.5128415 111.5355017  97.2944484  69.0914860
 114.6310604  84.8126477  81.0901301 113.8543938  85.3720397  81.0804166
 115.2701167  85.2983260  81.6116171 122.4231384  81.5953270  74.9244278
 121.7805764  81.8885803  74.2784072 121.9186313  81.4806190  75.7297474
 120.0771548  85.3416443  65.6130137 120.9889404  85.5743830  65.4377834
 119.5681195  85.9253487  65.0505215 112.8856976  87.6211930  80.6519268
 113.6271660  88.1596974  80.3754091 112.1793961  88.2478219  80.8090820
 118.3612315  89.7641071  79.2491429 118.7695672  89.3223481  78.5046062
 117.6389577  89.1893698  79.5025622 114.7143386  84.7013678  76.6224986
 115.5604581  85.1253091  76.7659635 114.6542023  84.0447302  77.3163549
 118.6841130  90.3242261  73.0043718 118.0549993  90.4887976  72.3019786
 118.2966792  90.7383871  73.7754682 122.5630362  91.2596699  70.3588082
 121.8781400  91.6395601  69.8085115 122.6474211  91.8692026  71.0920030
 117.8642831  82.3618046  78.2806160 117.6203763  83.1160106  77.7440436
 118.1402761  82.7403393  79.1153407 119.8181294  88.9056658  76.9583426
 120.0298189  89.5488418  76.2817807 119.7711042  88.0718975  76.4905356
 117.4207523  81.5174479  73.8619998 116.5592002  81.8155732  74.1536735
 117.4469957  81.7344878  72.9301030 114.2369092  90.0616669  70.2693803
 114.7007438  90.3404372  69.4798426 113.9725890  89.1600114  70.0866894
 111.6218340  84.7751578  81.4534578 110.9917000  85.4567859  81.6869975
 111.5154427  84.6634660  80.5087716 120.9327122  91.7828614  75.1305783
 121.7544565  91.3808801  74.8488465 120.9289524  91.6796848  76.0821899
 114.6983725  91.3312657  77.2866493 114.7628158  91.7933064  78.1224665
 113.9894649  90.7010022  77.4148803 129.0233115  88.1267362  71.4790754
 128.2696823  87.5574760  71.3234759 129.1580656  88.0930027  72.4261389
 114.4131743  92.9980764  67.1545474 114.2777417  93.8432300  67.5830322
 114.9541555  93.2000042  66.3911408 110.8999082  79.0772344  83.8159829
 110.5066028  78.5238543  84.4907473 111.7165223  79.3882923  84.2066346
 113.8167043  80.4930223  81.4080085 114.5576757  81.0937377  81.3284548
 114.0484966  79.7507861  80.8498128 108.9608381  85.6786591  79.6858315
 108.8461896  84.7771848  79.9865414 108.1052899  85.9250287  79.3343132
 116.0400219  93.6204331  81.2845816 115.5964073  92.8340710  80.9666720
 116.7017433  93.8083481  80.6189707 110.7987340  95.1500133  75.8106494
 111.3494765  95.0217196  75.0383488 109.9598816  95.4495022  75.4601387
 118.1381457  93.9007131  79.3127217 118.1199932  94.7216012  78.8207486
 119.0601377  93.7761206  79.5377358 114.5954511  91.4151260  80.1550725
 115.1282848  90.6539549  79.9250033 114.0668592  91.1224912  80.8974880
 117.7624206  76.5211326  75.6844367 117.4188476  77.4112968  75.6083478
 118.1303169  76.3312984  74.8213952 117.7274489  86.5119937  64.1916802
 117.2121112  87.2824542  64.4305190 117.4551797  85.8385074  64.8149864
 116.8420747  78.8915981  73.6493600 116.3385542  78.8546117  72.8361406
 117.1351353  79.8008724  73.7090257 122.7008763  89.2652292  66.1269976
 121.9238206  88.9263452  65.6825138 123.3800244  89.2704915  65.4524941
 117.5160792  84.3847030  66.0176583 117.2110928  84.6993179  66.8686727
 118.4691234  84.4628449  66.0603916 115.9607224  90.5437253  67.6669537
 115.4328586  89.8090012  67.3542775 115.4594727  91.3211929  67.4209506
 120.9400070  88.7386273  72.7836584 120.2823744  89.4285535  72.8716712
 121.7440469  89.1282705  73.1270570 119.7505529  87.0930646  70.8340525
 120.2637411  87.7260638  71.3362235 120.4006753  86.4931842  70.4683886
 117.0127903  97.0714970  63.5901197 116.3389602  97.3746667  64.1986154
 117.3993725  97.8744051  63.2406654 117.0121407  85.9671517  68.2101546
 117.7593226  86.4792914  67.9008668 117.2812997  85.6455570  69.0705940
 115.2848058  88.4630058  65.1928501 114.3759277  88.1789091  65.2900970
 115.3143141  88.8829137  64.3331807 120.5167325  92.0736647  68.9619668
 120.0629652  91.2327557  69.0184859 119.8861292  92.7098046  69.2994448
 119.4600245  83.0028634  70.1920336 118.7223001  82.4906020  70.5230578
 119.7127018  82.5629015  69.3803612 118.9600264  93.9113144  69.8969486
 119.2523239  94.4718201  69.1781852 119.4698885  94.2041705  70.6522645
 119.5611872  75.7804886  70.7862105 119.8670749  74.9202249  70.4988020
 120.2864477  76.3722506  70.5861099 114.9824145  90.0038802  62.5316579
 114.5443575  89.2874661  62.0722216 115.7234586  90.2314916  61.9701671
 113.9233889  94.6893495  70.9862939 113.8810068  94.9154342  70.0571471
 114.8396588  94.4556870  71.1348741 117.3699523  85.1577563  77.8843569
 117.7248911  85.3849036  78.7438034 118.0171654  85.4895940  77.2620824
 123.0997260  88.2795999  68.5892898 122.9615159  88.4697595  67.6614087
 122.7433479  89.0415382  69.0460949 123.1266640  90.3472526  73.6004169
 123.5603146  90.2547815  74.4487223 123.8398220  90.3230026  72.9624185
 116.8594535  93.9474620  75.1337270 116.9131557  94.5165556  75.9014986
 115.9909316  94.1176505  74.7691307 109.7392928  83.6492176  76.6161721
 110.4115981  83.4409538  75.9674370 108.9122715  83.4514262  76.1766953
 123.9882189  90.3896226  76.1337055 124.1818079  91.2942037  76.3796330
 123.8882808  89.9303645  76.9675640 115.6418500  80.2754117  78.6327382
 114.9946415  80.9744067  78.5391858 116.4119515  80.7090261  79.0003630
 119.0497298  90.5402969  81.7077935 118.8982804  90.3113521  80.7908019
 119.0401977  91.4973571  81.7209280 115.8182634  88.1134882  76.6924202
 116.7474694  88.2646041  76.5193169 115.3973664  88.2018903  75.8372848
 114.6170966  92.1385546  74.4622739 114.4782052  91.7704331  75.3348677
 113.8285562  92.6533186  74.2906697 115.2119118  97.2394643  65.8048276
 115.3870874  96.7682686  66.6193899 114.5251906  97.8660409  66.0329537
 116.1676181  91.5167149  71.8511577 115.8326014  91.4767919  72.7469227
 115.6680127  90.8511865  71.3781987 110.1420425  86.9234779  77.3764158
 110.0040223  86.1915018  77.9775697 111.0525349  86.8343679  77.0948346
 119.1035373  88.8623183  62.1248637 118.4864544  88.1370011  62.0281689
 118.6351861  89.6232544  61.7815711 112.7702726  86.6354738  76.8647838
 113.4802345  85.9947931  76.8234456 112.7272034  86.8867633  77.7874019
 120.7589505  93.5722092  79.7854417 120.7002051  92.8881312  79.1185000
 121.1609023  94.3141082  79.3335043 111.4831660  83.6219956  78.6843477
 110.9469017  83.1710695  79.3365074 110.8948368  83.7565865  77.9413942
 109.7780203 100.3884005  72.5788136 110.0176802 101.0202530  73.2567155
 108.9349400 100.0372046  72.8653495 120.7606912  91.5361676  78.0168397
 119.8733691  91.1987597  78.1394796 121.3305463  90.8044707  78.2537162
 114.2908065  96.1963128  74.9829640 114.2178237  97.0018099  75.4948945
 113.8485458  96.3955094  74.1577661 114.0797845  95.4334898  68.4932462
 113.2965367  95.9756578  68.5870686 114.7790590  95.9508878  68.8926703
 125.2424252  86.9469893  72.7784958 125.2314129  87.8294608  72.4078892
 124.3741632  86.5941444  72.5839495 116.7506749  96.0949962  77.1387799
 117.4634721  96.7297427  77.0663700 116.2596777  96.1913828  76.3227800
 118.4724276  90.0001215  68.7105090 117.5380554  90.1202677  68.5409795
 118.6500944  89.0973681  68.4465100 121.8596827  85.8418534  69.2455124
 122.3257279  86.6746526  69.1715427 122.3104328  85.3763516  69.9500383
 111.8018662  93.8444405  77.9593369 112.5028122  94.4780888  78.1122764
 111.3313777  94.1859137  77.1989009 119.9273058  92.1862355  66.2441276
 120.2032902  92.0718950  67.1535151 119.0577557  91.7879840  66.2053450
 119.8313490  78.2099121  73.2846026 118.9176570  78.4403348  73.4528233
 120.2606591  78.2937565  74.1360058 119.6019948  86.3989013  75.7845920
 118.9491399  86.6464920  75.1298373 119.9800328  85.5853151  75.4508397
 116.5627122  96.4348706  69.8874090 116.7449517  95.6170362  70.3501842
 117.3860108  96.6516398  69.4498980 116.8969288  95.3616891  67.1489139
 117.4257054  94.8509346  66.5359301 117.1597507  95.0459421  68.0134672
 115.6507521  87.1408824  82.2711957 114.9748158  87.0402953  82.9414332
 116.4735155  86.9848038  82.7347954 107.3986380  93.3780760  74.8924472
 107.9839817  92.6324448  75.0252376 107.2011219  93.6884717  75.7761136
 110.2525036  96.4132008  69.9086915 109.5835411  96.8978136  69.4250955
 110.1137905  96.6601228  70.8230293 114.3930304  98.4475751  76.5069573
 114.9448612  98.6107373  77.2718658 114.7336498  99.0380189  75.8349598
 109.3694797  80.7950901  77.1091458 109.4336124  81.6565732  76.6968855
 109.3061918  80.1824903  76.3763816 108.8447070  82.8674034  80.7564492
 109.4719109  82.4851111  81.3702016 107.9874989  82.6488236  81.1220184
 119.2441179  93.2737009  82.3618227 119.7881083  93.8866967  81.8673182
 118.6628023  93.8316587  82.8785240 117.5298692  96.3957727  73.4933255
 117.4049831  95.5947467  72.9844201 118.1877783  96.8903920  73.0047225
 119.5933600  94.1966747  75.1212805 118.6463935  94.0772098  75.0491132
 119.9416373  93.3089245  75.2039067 111.9533173  80.0860886  78.9451047
 112.4767575  80.3323182  79.7077356 111.7345507  80.9180921  78.5254184
 116.5980033  93.9919463  71.3217157 116.4504996  93.0636171  71.5024727
 117.4233527  94.0139554  70.8374233 120.2014155  94.8148022  72.4082030
 121.1260703  94.6090883  72.2706481 120.0329458  94.5664423  73.3171372
 116.5941548  81.8457301  66.3149275 116.8105162  82.7281939  66.0138103
 116.1135615  81.4543514  65.5854917 119.9909471  95.3333689  67.7644122
 120.1646349  94.7680112  67.0117974 120.4838363  96.1334584  67.5823612
 125.8448862  88.0970112  69.3834421 126.2880008  87.3477438  68.9853545
 124.9675373  88.0880249  69.0008153 120.9784644  94.6500454  64.8641020
 121.6735548  95.2707146  65.0828334 121.3207794  93.7995805  65.1393398
 106.5952453  86.4718255  78.7237837 105.8534189  86.6200890  79.3102468
 106.2745197  86.7326520  77.8604587 122.8776067  92.1000159  66.3928351
 123.4027391  92.4387432  65.6677671 122.7898419  91.1647175  66.2091485
 114.5396116  96.0134233  78.5218227 114.8483242  95.7683380  79.3940927
 115.3371598  96.2180871  78.0337097 114.5616728  98.1672143  70.7523604
 114.1221718  97.6748521  71.4456461 115.3124845  97.6245110  70.5115679
 112.0090600  93.7110152  72.8245905 111.3870609  93.0480857  72.5248133
 112.6795467  93.7371284  72.1419553 112.0815127  82.1891940  82.4178412
 112.1303283  83.0654063  82.0356181 112.6237641  81.6469333  81.8450055
 122.5669973  92.7333063  81.6979549 121.7765517  92.7157202  81.1584048
 122.3303328  93.2721357  82.4528585 122.6867848  89.5825529  79.0112277
 122.7365853  89.4175537  79.9527800 122.5781771  88.7152788  78.6210158
 119.9771610  85.5656457  80.3271584 120.8781473  85.4262922  80.0355582
 120.0519585  85.7310912  81.2669761 114.3114416  82.9423312  79.1724770
 113.4417725  83.2356878  78.9007359 114.5473896  83.5263757  79.8932034
 124.1886045  92.0022471  79.2554299 123.8970853  92.3652451  80.0917760
 123.5758176  91.2889479  79.0767631 125.3881727  89.5675351  71.7756869
 126.2228619  90.0065155  71.9394429 125.5240856  89.0914004  70.9565115
 122.4373233  87.1255085  77.7234357 122.9127355  87.3182732  76.9153208
 121.5138798  87.1814271  77.4777740 117.0153450  79.1602929  76.6890191
 117.5335393  79.8963956  76.3636679 116.6608582  79.4666922  77.5236950
 115.0699512  94.7562205  63.7716113 114.4973479  95.3752393  63.3186585
 115.6432306  95.3061567  64.3056035 121.1374902  84.0020846  75.9562662
 122.0892325  84.1018943  75.9774886 120.9678352  83.2099114  76.4660747
 119.1589282  81.0876429  76.1422063 118.5639214  81.3681442  75.4468552
 118.8738978  81.5770330  76.9138804 118.2896772  95.0399356  64.9024696
 119.2227445  94.9744917  65.1057571 118.2019985  95.8755622  64.4439228
 120.9184789  94.3565226  61.8628643 120.8398420  94.0225090  62.7564401
 121.7394455  94.8486994  61.8620116 123.6162980  87.2226965  75.0704962
 123.5839300  86.2842966  75.2564646 124.2263603  87.3011002  74.3370787
 115.4546311  86.0923018  61.1132166 116.4005415  85.9629226  61.1820584
 115.0760556  85.3537680  61.5901594 123.7657468  84.0138009  75.1163245
 123.2496517  83.2296465  74.9293174 124.6497417  83.6856725  75.2809765
 121.4268195  77.7579024  71.0759058 121.2293016  77.4494112  71.9602390
 122.0367901  78.4840663  71.2056988 129.4339530  88.2842972  74.2110999
 130.1642918  88.0228260  74.7718702 128.8246475  87.5471694  74.2513067
 127.5154827  86.4250835  74.8085450 126.7887990  86.2906800  74.2001941
 127.1002114  86.7327663  75.6142168 115.3385003  90.1440764  82.5732823
 116.2588013  90.3219363  82.7672869 115.3034586  89.1996810  82.4212522
 113.6389228  84.0172995  61.0487051 112.7320683  83.7206107  61.1249765
 113.9165209  83.7202813  60.1821337 108.3347076  88.0541799  75.2155604
 108.5533086  88.9858907  75.2343638 108.7472850  87.6949773  76.0010408
 115.2551294  78.5609884  67.2031292 114.4452022  78.2156969  67.5786539
 115.9435711  78.2517428  67.7918904 113.2074941  83.6275005  84.6058353
 113.1071668  84.5769362  84.5370444 112.9896483  83.2993244  83.7334423
 112.4088012  80.8759930  61.1899030 113.2707176  81.2014828  61.4494848
 112.5938357  80.0891426  60.6772096 120.5620649  79.7488456  68.3334253
 119.9819318  80.4073260  67.9512306 120.2956582  78.9265801  67.9221671
 119.0124215  79.1493514  70.5355574 119.5123994  79.2610049  69.7269893
 119.6559823  78.8454567  71.1756382 113.0706211  87.0572144  83.4223415
 112.5873293  87.8572504  83.6287304 113.1567150  87.0680089  82.4690859
 108.9979549  90.9476678  75.4591848 109.9522802  90.9160621  75.3921780
 108.7992072  90.4867302  76.2742074 109.5878931  89.5177794  78.0262646
 110.4071820  90.0121873  78.0497483 109.8615738  88.6009763  77.9980214
 119.3445527  81.9088547  67.3890602 118.4571382  82.1938197  67.1710796
 119.7599516  81.7482310  66.5417879 122.6960063  81.9335068  71.1044941
 123.4720453  82.4231520  71.3769558 121.9708197  82.3593122  71.5616810
 125.1332622  82.6462687  72.1618881 125.7277113  82.4058423  71.4512190
 125.2059205  81.9269817  72.7892418 107.3529777  96.4896298  72.4762046
 107.2184245  95.7296699  71.9100044 106.9361840  97.2137198  72.0090835
 118.4888740  91.6733221  61.4838622 119.1924591  91.8783224  62.0996277
 117.7651389  92.2409983  61.7487705 119.3186551  87.4243083  67.6040892
 119.2621752  87.8811634  66.7648524 119.8714893  86.6633767  67.4263735
 123.1291357  83.2132814  68.4291011 122.8728291  82.8129450  69.2599219
 122.5044225  83.9276608  68.3041150 127.4403694  85.9528888  70.9362303
 126.8803252  86.0222077  71.7093865 126.8347198  85.7769872  70.2161799
 110.5098903  97.3865615  72.6880489 110.3931287  98.3311047  72.5859179
 109.6891350  97.0839176  73.0766288 120.3975438  92.1115751  63.5337082
 121.2321042  91.6796949  63.3514556 120.2359781  91.9397764  64.4613976
 120.0521330  88.6147864  64.8993421 119.9970134  88.4492135  63.9581865
 119.4267385  89.3223897  65.0555611 117.3667237  90.9196776  84.2246984
 118.2358397  91.0937428  83.8633619 116.8873989  91.7391193  84.1022713
 111.5353417  98.0393877  75.9036417 112.4380664  98.0717487  76.2202912
 111.3090788  97.1094328  75.9182753 113.2907019  96.7924863  72.5646496
 112.3402650  96.7926725  72.4510868 113.5939506  96.0457598  72.0482531
 109.1811336  80.9983545  82.8229857 110.0442798  80.6420350  83.0333182
 108.6076747  80.6597440  83.5105262 129.0259713 102.6285402  73.6292258
 129.6638123 102.5092149  72.9255598 128.9080556 103.5766246  73.6880211
 125.8349419 102.5812830  73.5653783 125.4967931 102.4653894  72.6774318
 126.7039187 102.1803995  73.5454789 121.6936235 104.4348306  69.5550674
 121.1301100 104.3438243  68.7866962 121.5788630 103.6148211  70.0353167
 126.3169202 103.7347682  79.5239989 126.3057843 103.3400480  78.6520492
 126.4789842 103.0013754  80.1173760 119.2400667 105.9299498  72.3934895
 120.0321959 105.5890322  71.9781194 119.4797317 106.0394473  73.3137048
 127.2735794 108.1019274  64.8665139 126.6223773 108.6873354  64.4799153
 128.0680156 108.6325469  64.9260176 121.1991421 105.1908411  65.2652273
 121.9722297 104.6437398  65.1265149 121.5516820 106.0552660  65.4766735
 123.0376463 106.5184793  78.4719173 122.7466329 107.4230424  78.3565839
 123.6733448 106.5601321  79.1863242 123.9632670 103.8961642  75.0620532
 124.5596242 103.6717664  74.3477495 124.0207642 103.1546387  75.6645980
 123.5357699 101.3501077  62.8970723 123.7883219 100.8282598  62.1354186
 122.5982258 101.1867223  62.9997407 128.5800981 100.3536856  70.7045466
 129.3664071  99.9356279  70.3535883 128.8439686 101.2582948  70.8727115
 128.7511059 105.7909706  65.4034123 128.1156892 105.8644332  66.1155028
 128.4208465 106.3803305  64.7253203 133.9809409 100.2912089  71.6078445
 134.7134581  99.7211306  71.8416274 133.2248764  99.9033689  72.0484951
 123.2553987 103.2529183  65.0995098 123.1390245 102.5774087  65.7676182
 123.3656247 102.7661557  64.2827251 125.5985528 102.7139330  68.8041787
 125.2343736 102.1869951  69.5154709 126.4552644 102.3237799  68.6308273
 131.5034829  94.0033663  76.0673054 131.1718154  94.8729074  75.8434269
 130.9080442  93.6869947  76.7467084 125.2391015  97.7429230  63.8003136
 125.4065418  98.6109466  64.1673607 125.0488184  97.9056512  62.8764425
 127.9966348 106.2046209  75.4668966 127.6967072 107.1071248  75.3584774
 127.6517408 105.9378392  76.3190119 121.4478830 102.6560006  71.5005671
 120.5229326 102.5236220  71.7083362 121.6963243 103.4354225  71.9975613
 131.3963492  98.7228749  73.1466404 130.4880370  98.6544157  72.8525165
 131.3451088  99.2000694  73.9748229 125.2180236 100.1986887  64.7849803
 125.0979861 100.6443938  65.6235283 124.5232825 100.5472205  64.2263341
 118.8087641 102.2993279  72.3349460 118.9380022 102.5527758  73.2488871
 118.1285092 102.8920987  72.0154115 122.9787128 112.9690529  68.4339934
 122.9011158 113.9198354  68.5128415 122.3748772 112.6236402  69.0914860
 125.4704358 100.1418395  81.0901301 124.6937692 100.7012315  81.0804166
 126.1094921 100.6275178  81.6116171 133.2625139  96.9245187  74.9244278
 132.6199519  97.2177721  74.2784072 132.7580067  96.8098108  75.7297474
 130.9165302 100.6708361  65.6130137 131.8283158 100.9035747  65.4377834
 130.4074949 101.2545405  65.0505215 123.7250730 102.9503848  80.6519268
 124.4665415 103.4888892  80.3754091 123.0187716 103.5770137  80.8090820
 129.2006070 105.0932988  79.2491429 129.6089426 104.6515399  78.5046062
 128.4783331 104.5185616  79.5025622 125.5537140 100.0305595  76.6224986
 126.3998335 100.4545009  76.7659635 125.4935778  99.3739220  77.3163549
 129.5234885 105.6534179  73.0043718 128.8943747 105.8179893  72.3019786
 129.1360547 106.0675789  73.7754682 133.4024117 106.5888617  70.3588082
 132.7175155 106.9687518  69.8085115 133.4867966 107.1983944  71.0920030
 128.7036585  97.6909964  78.2806160 128.4597517  98.4452024  77.7440436
 128.9796516  98.0695311  79.1153407 130.6575048 104.2348576  76.9583426
 130.8691943 104.8780336  76.2817807 130.6104796 103.4010892  76.4905356
 128.2601277  96.8466397  73.8619998 127.3985756  97.1447650  74.1536735
 128.2863712  97.0636795  72.9301030 125.0762846 105.3908587  70.2693803
 125.5401192 105.6696290  69.4798426 124.8119645 104.4892032  70.0866894
 121.9686928 104.9380069  73.2073567 122.5388285 105.3667337  72.5691051
 122.5595039 104.6562653  73.9057752 124.0131733 101.5131740  67.0783368
 124.7155776 101.9652783  67.5457295 123.6812361 100.8715558  67.7063262
 122.4612094 100.1043496  81.4534578 121.8310755 100.7859777  81.6869975
 122.3548182  99.9926578  80.5087716 117.7557066  99.7715292  72.3800502
 116.9656120 100.0272821  71.9040613 118.2468314 100.5863630  72.4852543
 131.7720876 107.1120531  75.1305783 132.5938320 106.7100719  74.8488465
 131.7683279 107.0088766  76.0821899 119.7071812 100.1359871  69.3383979
 118.9102975 100.2478566  69.8567474 119.4797404 100.4746524  68.4724869
 125.5377479 106.6604575  77.2866493 125.6021912 107.1224982  78.1224665
 124.8288403 106.0301940  77.4148803 116.0394769 100.0245783  74.8115493
 116.2902808 100.9092793  75.0773069 116.5754318  99.8450384  74.0390585
 139.8626869 103.4559280  71.4790754 139.1090577 102.8866678  71.3234759
 139.9974410 103.4221944  72.4261389 125.2525497 108.3272682  67.1545474
 125.1171172 109.1724218  67.5830322 125.7935310 108.5291960  66.3911408
 121.7392837  94.4064262  83.8159829 121.3459782  93.8530461  84.4907473
 122.5558977  94.7174840  84.2066346 118.7054895 105.8448120  67.7273399
 119.2179415 106.6391370  67.8778963 119.3577607 105.1474411  67.6607000
 120.5149779 108.9613876  69.8096152 120.6916408 109.8831841  69.6217136
 121.3106613 108.6472296  70.2390532 124.6560798  95.8222141  81.4080085
 125.3970511  96.4229294  81.3284548 124.8878721  95.0799779  80.8498128
 119.8002136 101.0078508  79.6858315 119.6855651 100.1063766  79.9865414
 118.9446654 101.2542205  79.3343132 126.8793974 108.9496249  81.2845816
 126.4357828 108.1632627  80.9666720 127.5411187 109.1375399  80.6189707
 121.6381095 110.4792050  75.8106494 122.1888520 110.3509114  75.0383488
 120.7992571 110.7786939  75.4601387 128.9775212 109.2299049  79.3127217
 128.9593687 110.0507930  78.8207486 129.8995132 109.1053124  79.5377358
 125.4348266 106.7443178  80.1550725 125.9676603 105.9831466  79.9250033
 124.9062347 106.4516830  80.8974880 128.6017961  91.8503244  75.6844367
 128.2582230  92.7404886  75.6083478 128.9696923  91.6604902  74.8213952
 116.6703811 104.1736774  68.5032969 117.5079033 104.5833783  68.2866677
 116.8482079 103.2336217  68.4733163 128.5668243 101.8411855  64.1916802
 128.0514867 102.6116460  64.4305190 128.2945552 101.1676991  64.8149864
 126.1515354  96.6861556  69.2502041 125.2956951  96.2968406  69.0707679
 126.5642306  96.7653517  68.3901826 127.6814501  94.2207899  73.6493600
 127.1779297  94.1838034  72.8361406 127.9745108  95.1300642  73.7090257
 123.9257387  94.3046629  72.6559782 124.7910384  94.1089438  72.2965672
 123.9934896  94.0756981  73.5829139 133.5402518 104.5944210  66.1269976
 132.7631960 104.2555369  65.6825138 134.2193999 104.5996833  65.4524941
 128.3554547  99.7138947  66.0176583 128.0504682 100.0285096  66.8686727
 129.3084989  99.7920367  66.0603916 126.8000978 105.8729171  67.6669537
 126.2722340 105.1381930  67.3542775 126.2988481 106.6503847  67.4209506
 131.7793824 104.0678191  72.7836584 131.1217499 104.7577452  72.8716712
 132.5834224 104.4574623  73.1270570 121.5319706  96.5348837  70.0276149
 122.1063458  96.3124018  69.2949342 122.1190689  96.6037531  70.7804750
 130.5899283 102.4222564  70.8340525 131.1031165 103.0552556  71.3362235
 131.2400507 101.8223759  70.4683886 121.8589293  98.5653298  64.0472034
 121.0226605  98.9027984  64.3681309 121.7194063  98.4302278  63.1099171
 123.8342374  93.4090086  68.7551218 123.1806786  93.0939103  68.1307833
 123.7922848  92.7865826  69.4811041 124.9453579 103.6909381  60.6704510
 124.0380640 103.4598634  60.8695659 125.4424611 102.8947000  60.8578492
 127.8521658 112.4006888  63.5901197 127.1783356 112.7038585  64.1986154
 128.2387479 113.2035968  63.2406654 127.0680114  99.8972019  73.0798866
 126.1502676 100.1186966  72.9220554 127.4840258  99.9718330  72.2210573
 127.8515162 101.2963435  68.2101546 128.5986981 101.8084832  67.9008668
 128.1206751 100.9747488  69.0705940 126.1241812 103.7921976  65.1928501
 125.2153031 103.5081008  65.2900970 126.1536896 104.2121054  64.3331807
 131.3561079 107.4028565  68.9619668 130.9023407 106.5619475  69.0184859
 130.7255046 108.0389964  69.2994448 130.2993999  98.3320551  70.1920336
 129.5616756  97.8197937  70.5230578 130.5520773  97.8920933  69.3803612
 129.7994019 109.2405062  69.8969486 130.0916993 109.8010119  69.1781852
 130.3092639 109.5333623  70.6522645 130.4005626  91.1096803  70.7862105
 130.7064503  90.2494167  70.4988020 131.1258231  91.7014423  70.5861099
 116.6929982 101.5127490  69.1743703 116.4954382 100.9196850  68.4494769
 116.1376646 101.2079700  69.8919642 124.6726706 101.4050596  71.2938296
 124.7275316 100.4524433  71.2180773 123.8617908 101.5610035  71.7779594
 125.8217900 105.3330719  62.5316579 125.3837330 104.6166578  62.0722216
 126.5628341 105.5606834  61.9701671 122.6119066 100.0227656  69.0528675
 121.7986932 100.3221827  69.4593867 123.1078060  99.6283345  69.7703157
 124.7627644 110.0185413  70.9862939 124.7203823 110.2446259  70.0571471
 125.6790343 109.7848788  71.1348741 128.2093278 100.4869480  77.8843569
 128.5642665 100.7140954  78.7438034 128.8565409 100.8187857  77.2620824
 133.9391015 103.6087916  68.5892898 133.8008913 103.7989512  67.6614087
 133.5827233 104.3707299  69.0460949 122.1033141  97.5946012  74.6689910
 122.7432520  97.4534771  73.9712873 121.2710671  97.3080525  74.2928512
 133.9660394 105.6764443  73.6004169 134.3996901 105.5839732  74.4487223
 134.6791975 105.6521944  72.9624185 122.8793445 106.8948442  70.7824902
 123.6734043 106.3998762  70.5807477 122.1685137 106.3666305  70.4192608
 127.6988289 109.2766537  75.1337270 127.7525311 109.8457474  75.9014986
 126.8303071 109.4468423  74.7691307 119.1876208 101.0391524  66.8584655
 118.2573796 100.9775979  67.0754617 119.2833680 100.5167476  66.0621296
 119.1061757  97.5646337  69.4462897 119.3668575  98.4791670  69.3372057
 119.9278930  97.0970779  69.5959509 120.5786683  98.9784094  76.6161721
 121.2509736  98.7701456  75.9674370 119.7516469  98.7806180  76.1766953
 134.8275944 105.7188144  76.1337055 135.0211834 106.6233955  76.3796330
 134.7276562 105.2595563  76.9675640 126.4812255  95.6046035  78.6327382
 125.8340170  96.3035984  78.5391858 127.2513270  96.0382179  79.0003630
 129.8891053 105.8694887  81.7077935 129.7376559 105.6405438  80.7908019
 129.8795732 106.8265488  81.7209280 126.6576389 103.4426800  76.6924202
 127.5868449 103.5937959  76.5193169 126.2367419 103.5310820  75.8372848
 125.4564721 107.4677464  74.4622739 125.3175806 107.0996248  75.3348677
 124.6679317 107.9825103  74.2906697 126.0512873 112.5686560  65.8048276
 126.2264628 112.0974604  66.6193899 125.3645661 113.1952327  66.0329537
 127.0069936 106.8459067  71.8511577 126.6719768 106.8059837  72.7469227
 126.5073882 106.1803783  71.3781987 120.9814180 102.2526697  77.3764158
 120.8433978 101.5206935  77.9775697 121.8919103 102.1635597  77.0948346
 129.9429127 104.1915101  62.1248637 129.3258298 103.4661929  62.0281689
 129.4745616 104.9524461  61.7815711 123.6096480 101.9646656  76.8647838
 124.3196099 101.3239848  76.8234456 123.5665789 102.2159551  77.7874019
 131.5983259 108.9014009  79.7854417 131.5395805 108.2173229  79.1185000
 132.0002778 109.6432999  79.3335043 122.3225414  98.9511874  78.6843477
 121.7862771  98.5002612  79.3365074 121.7342123  99.0857783  77.9413942
 120.6173958 115.7175923  72.5788136 120.8570556 116.3494447  73.2567155
 119.7743154 115.3663963  72.8653495 121.7327673  98.4100525  61.2469941
 120.8557140  98.2889326  60.8832188 122.2085426  97.6186604  60.9948830
 131.6000666 106.8653593  78.0168397 130.7127445 106.5279515  78.1394796
 132.1699217 106.1336624  78.2537162 113.2529814 103.1977685  71.3411448
 113.9400853 102.8839415  70.7532463 113.0977942 104.1019050  71.0678700
 118.0564536  98.0867882  75.7696472 117.9722724  97.4793551  75.0346882
 117.2347242  98.5776900  75.7705968 125.1301820 111.5255046  74.9829640
 125.0571991 112.3310017  75.4948945 124.6879213 111.7247011  74.1577661
 124.9191599 110.7626816  68.4932462 124.1359121 111.3048496  68.5870686
 125.6184345 111.2800795  68.8926703 128.2288250  96.5721445  71.1366667
 128.7256949  95.8191407  70.8167737 127.4575231  96.6085762  70.5709876
 136.0818007 102.2761811  72.7784958 136.0707883 103.1586526  72.4078892
 135.2135386 101.9233361  72.5839495 127.5900503 111.4241880  77.1387799
 128.3028476 112.0589344  77.0663700 127.0990532 111.5205746  76.3227800
 129.3118030 105.3293132  68.7105090 128.3774309 105.4494595  68.5409795
 129.4894699 104.4265599  68.4465100 124.8123218  98.7138828  70.8638351
 124.4421006  98.1609868  71.5519257 125.3082311  98.1096962  70.3113352
 132.6990582 101.1710452  69.2455124 133.1651034 102.0038443  69.1715427
 133.1498082 100.7055433  69.9500383 122.6412417 109.1736323  77.9593369
 123.3421876 109.8072806  78.1122764 122.1707532 109.5151055  77.1989009
 130.7666813 107.5154273  66.2441276 131.0426657 107.4010867  67.1535151
 129.8971311 107.1171758  66.2053450 130.6707244  93.5391039  73.2846026
 129.7570324  93.7695265  73.4528233 131.1000346  93.6229483  74.1360058
 130.4413703 101.7280931  75.7845920 129.7885153 101.9756838  75.1298373
 130.8194083 100.9145069  75.4508397 127.4020877 111.7640624  69.8874090
 127.5843271 110.9462280  70.3501842 128.2253863 111.9808316  69.4498980
 127.7363042 110.6908809  67.1489139 128.2650809 110.1801263  66.5359301
 127.9991262 110.3751339  68.0134672 126.4901276 102.4700742  82.2711957
 125.8141913 102.3694871  82.9414332 127.3128910 102.3139955  82.7347954
 118.2380135 108.7072678  74.8924472 118.8233572 107.9616366  75.0252376
 118.0404973 109.0176635  75.7761136 121.0918790 111.7423926  69.9086915
 120.4229165 112.2270053  69.4250955 120.9531660 111.9893146  70.8230293
 112.8297790 101.2778278  73.6128915 112.8681889 100.7441869  74.4066033
 112.3238082 100.7513484  72.9939892 125.2324059 113.7767669  76.5069573
 125.7842367 113.9399291  77.2718658 125.5730252 114.3672107  75.8349598
 120.2088552  96.1242819  77.1091458 120.2729878  96.9857650  76.6968855
 120.1455672  95.5116821  76.3763816 119.6840824  98.1965951  80.7564492
 120.3112863  97.8143029  81.3702016 118.8268743  97.9780153  81.1220184
 130.0834933 108.6028927  82.3618227 130.6274837 109.2158885  81.8673182
 129.5021778 109.1608505  82.8785240 116.4606367 100.0042381  66.6882847
 116.7559808  99.0953059  66.6349900 115.5594403  99.9830120  66.3663849
 128.3692446 111.7249645  73.4933255 128.2443585 110.9239384  72.9844201
 129.0271537 112.2195838  73.0047225 119.9900614  98.0798377  72.6710395
 119.2687200  98.6934345  72.5317869 120.7793870  98.6156142  72.5927041
 130.4327354 109.5258665  75.1212805 129.4857690 109.4064016  75.0491132
 130.7810128 108.6381163  75.2039067 122.7926928  95.4152804  78.9451047
 123.3161330  95.6615100  79.7077356 122.5739261  96.2472838  78.5254184
 118.1894209  97.6856478  66.8122172 117.8606915  96.8053857  66.6297278
 118.5433580  97.6304147  67.6998561 127.4373788 109.3211381  71.3217157
 127.2898750 108.3928088  71.5024727 128.2627281 109.3431472  70.8374233
 121.3036032  97.9729448  67.1797650 121.6432104  98.5015369  66.4576258
 121.7508152  98.3109854  67.9556216 131.0407910 110.1439940  72.4082030
 131.9654457 109.9382801  72.2706481 130.8723213 109.8956341  73.3171372
 123.9979473  96.3566499  76.6300718 123.6576293  95.5574312  77.0321397
 123.2918479  96.6568210  76.0577551 124.6495945  93.4415811  75.0828041
 125.4722014  92.9676289  74.9606931 124.8934008  94.2206295  75.5826727
 123.2904179  96.4704070  65.3790942 124.0112542  96.8485322  64.8754659
 122.6669483  97.1892946  65.4825920 127.4335302  97.1749219  66.3149275
 127.6498916  98.0573856  66.0138103 126.9529369  96.7835432  65.5854917
 122.1734523 100.1334932  72.8920019 122.0279104 100.4475235  73.7844301
 121.6959727 100.7519832  72.3390918 124.0330906  97.1237480  72.9400909
 124.0192475  96.2278573  72.6033207 124.7503334  97.1308143  73.5739195
 125.8857037  97.5574820  74.9854036 125.6274815  98.4791891  74.9838367
 125.3542077  97.1605254  75.6754500 130.8303226 110.6625607  67.7644122
 131.0040103 110.0972030  67.0117974 131.3232117 111.4626502  67.5823612
 116.6480186 102.6740276  75.8307680 116.1033654 103.4500084  75.9627955
 117.5259535 103.0211081  75.6726802 123.4367802  96.0051860  68.2088479
 123.5583713  95.0768506  68.4079366 123.1469845  96.0190546  67.2966794
 126.3058993  93.6906770  71.3455199 126.3280689  93.7546104  70.3907178
 126.7227052  92.8511279  71.5395705 136.6842617 103.4262030  69.3834421
 137.1273763 102.6769355  68.9853545 135.8069127 103.4172166  69.0008153
 131.8178398 109.9792371  64.8641020 132.5129303 110.5999064  65.0828334
 132.1601548 109.1287723  65.1393398 117.4346207 101.8010172  78.7237837
 116.6927943 101.9492808  79.3102468 117.1138952 102.0618438  77.8604587
 133.7169821 107.4292077  66.3928351 134.2421145 107.7679350  65.6677671
 133.6292174 106.4939092  66.2091485 125.3789870 111.3426151  78.5218227
 125.6876997 111.0975297  79.3940927 126.1765352 111.5472789  78.0337097
 125.4010482 113.4964060  70.7523604 124.9615472 113.0040439  71.4456461
 126.1518599 112.9537028  70.5115679 117.8802821 109.6875601  70.7548232
 118.7060841 109.3879373  70.3746875 117.5296873 108.9183224  71.2038021
 122.8484354 109.0402069  72.8245905 122.2264364 108.3772774  72.5248133
 123.5189221 109.0663201  72.1419553 116.0811426 107.6061928  71.7137165
 115.2443334 107.1784102  71.5321167 116.0535072 107.7994371  72.6507957
 122.9208882  97.5183857  82.4178412 122.9697037  98.3945980  82.0356181
 123.4631396  96.9761250  81.8450055 133.4063727 108.0624981  81.6979549
 132.6159271 108.0449120  81.1584048 133.1697082 108.6013274  82.4528585
 133.5261602 104.9117447  79.0112277 133.5759607 104.7467454  79.9527800
 133.4175526 104.0444706  78.6210158 122.4097861 107.5905993  66.3004366
 122.5585982 108.2741457  65.6471039 123.2164305 107.5711083  66.8153822
 130.8165365 100.8948375  80.3271584 131.7175228 100.7554840  80.0355582
 130.8913339 101.0602830  81.2669761 125.1508170  98.2715230  79.1724770
 124.2811480  98.5648796  78.9007359 125.3867651  98.8555675  79.8932034
 135.0279799 107.3314389  79.2554299 134.7364608 107.6944369  80.0917760
 134.4151931 106.6181397  79.0767631 136.2275482 104.8967268  71.7756869
 137.0622373 105.3357072  71.9394429 136.3634610 104.4205922  70.9565115
 133.2766988 102.4547003  77.7234357 133.7521109 102.6474649  76.9153208
 132.3532553 102.5106189  77.4777740 120.1650494 103.6171170  67.3065435
 119.9196536 102.7133500  67.5045645 120.3346409 103.6188321  66.3644913
 127.8547204  94.4894847  76.6890191 128.3729148  95.2255874  76.3636679
 127.5002337  94.7958840  77.5236950 119.4346142  99.3499528  64.8051596
 118.7415387  99.4243883  64.1491632 119.1897894  98.5859872  65.3273113
 128.1059798  90.9095129  72.2091087 128.3861552  90.2418318  72.8351514
 128.8910405  91.1024225  71.6965751 125.9093267 110.0854123  63.7716113
 125.3367234 110.7044310  63.3186585 126.4826060 110.6353485  64.3056035
 131.9768657  99.3312763  75.9562662 132.9286079  99.4310861  75.9774886
 131.8072107  98.5391032  76.4660747 129.9983036  96.4168346  76.1422063
 129.4032968  96.6973359  75.4468552 129.7132733  96.9062247  76.9138804
 129.1290526 110.3691273  64.9024696 130.0621200 110.3036835  65.1057571
 129.0413739 111.2047540  64.4439228 131.7578543 109.6857144  61.8628643
 131.6792175 109.3517007  62.7564401 132.5788210 110.1778912  61.8620116
 134.4556734 102.5518883  75.0704962 134.4233054 101.6134884  75.2564646
 135.0657358 102.6302920  74.3370787 126.2940065 101.4214936  61.1132166
 127.2399170 101.2921144  61.1820584 125.9154310 100.6829598  61.5901594
 134.6051223  99.3429926  75.1163245 134.0890271  98.5588383  74.9293174
 135.4891171  99.0148643  75.2809765 132.2661950  93.0870942  71.0759058
 132.0686771  92.7786030  71.9602390 132.8761655  93.8132581  71.2056988
 140.2733284 103.6134890  74.2110999 141.0036673 103.3520178  74.7718702
 139.6640230 102.8763612  74.2513067 138.3548581 101.7542752  74.8085450
 137.6281745 101.6198717  74.2001941 137.9395868 102.0619581  75.6142168
 126.1778758 105.4732682  82.5732823 127.0981767 105.6511281  82.7672869
 126.1428341 104.5288727  82.4212522 124.4782982  99.3464912  61.0487051
 123.5714438  99.0498025  61.1249765 124.7558963  99.0494730  60.1821337
 115.3960923 100.6671276  71.4986098 115.0763707  99.8136584  71.2060472
 114.8494351 100.8819854  72.2544065 119.1740830 103.3833717  75.2155604
 119.3926840 104.3150825  75.2343638 119.5866604 103.0241691  76.0010408
 126.0945048  93.8901802  67.2031292 125.2845776  93.5448887  67.5786539
 126.7829465  93.5809346  67.7918904 128.0235596  92.9679849  68.8255589
 128.5766635  93.3875302  69.4845612 128.2605683  92.0415597  68.8678545
 124.0468696  98.9566922  84.6058353 123.9465422  99.9061279  84.5370444
 123.8290238  98.6285161  83.7334423 123.2481767  96.2051848  61.1899030
 124.1100931  96.5306746  61.4494848 123.4332111  95.4183343  60.6772096
 115.2649183 104.2874187  73.4679219 114.5712654 103.8728140  72.9549174
 116.0122174 104.3294724  72.8712638 131.4014403  95.0780374  68.3334253
 130.8213073  95.7365178  67.9512306 131.1350336  94.2557719  67.9221671
 129.8517970  94.4785432  70.5355574 130.3517748  94.5901966  69.7269893
 130.4953578  94.1746485  71.1756382 123.9099966 102.3864061  83.4223415
 123.4267047 103.1864421  83.6287304 123.9960905 102.3972006  82.4690859
 117.1785925 104.2192441  71.3445234 117.1556613 104.3180128  70.3927117
 117.4886562 105.0657592  71.6662400 119.8373303 106.2768596  75.4591848
 120.7916557 106.2452538  75.3921780 119.6385827 105.8159220  76.2742074
 120.4272685 104.8469712  78.0262646 121.2465574 105.3413791  78.0497483
 120.7009493 103.9301680  77.9980214 130.1839281  97.2380464  67.3890602
 129.2965136  97.5230115  67.1710796 130.5993271  97.0774228  66.5417879
 133.5353818  97.2626985  71.1044941 134.3114208  97.7523438  71.3769558
 132.8101952  97.6885040  71.5616810 135.9726376  97.9754605  72.1618881
 136.5670867  97.7350341  71.4512190 136.0452960  97.2561735  72.7892418
 118.1923532 111.8188216  72.4762046 118.0578000 111.0588616  71.9100044
 117.7755594 112.5429115  72.0090835 129.3282495 107.0025139  61.4838622
 130.0318345 107.2075142  62.0996277 128.6045144 107.5701901  61.7487705
 130.1580305 102.7535000  67.6040892 130.1015507 103.2103552  66.7648524
 130.7108648 101.9925685  67.4263735 133.9685111  98.5424732  68.4291011
 133.7122045  98.1421368  69.2599219 133.3437979  99.2568526  68.3041150
 138.2797449 101.2820805  70.9362303 137.7197007 101.3513995  71.7093865
 137.6740952 101.1061790  70.2161799 121.3492658 112.7157533  72.6880489
 121.2325042 113.6602965  72.5859179 120.5285104 112.4131094  73.0766288
 131.2369192 107.4407668  63.5337082 132.0714796 107.0088867  63.3514556
 131.0753535 107.2689682  64.4613976 130.8915085 103.9439782  64.8993421
 130.8363888 103.7784053  63.9581865 130.2661140 104.6515814  65.0555611
 115.6807600  99.1807846  78.7254843 116.3266463  98.6706800  79.2142068
 115.4724751  99.9176528  79.2998268 128.2060992 106.2488693  84.2246984
 129.0752151 106.4229346  83.8633619 127.7267743 107.0683110  84.1022713
 124.2011210  93.4447891  64.4778739 124.1889880  94.3889730  64.6347010
 125.0934632  93.2618036  64.1838201 122.3747172 113.3685794  75.9036417
 123.2774419 113.4009405  76.2202912 122.1484542 112.4386245  75.9182753
 124.1300774 112.1216781  72.5646496 123.1796405 112.1218643  72.4510868
 124.4333260 111.3749516  72.0482531 128.0163329  90.0390667  68.7324676
 127.2495725  89.4849154  68.8781359 128.4274034  90.1112536  69.5938828
 120.0205091  96.3275463  82.8229857 120.8836552  95.9712268  83.0333182
 119.4470501  95.9889358  83.5105262 139.8653467 117.9577319  73.6292258
 140.5031877 117.8384067  72.9255598 139.7474310 118.9058163  73.6880211
 136.6743174 117.9104747  73.5653783 136.3361685 117.7945812  72.6774318
 137.5432942 117.5095913  73.5454789 132.5329989 119.7640224  69.5550674
 131.9694855 119.6730161  68.7866962 132.4182384 118.9440128  70.0353167
 137.1562957 119.0639599  79.5239989 137.1451597 118.6692397  78.6520492
 137.3183596 118.3305672  80.1173760 130.0794421 121.2591415  72.3934895
 130.8715713 120.9182240  71.9781194 130.3191072 121.3686391  73.3137048
 138.1129548 123.4311192  64.8665139 137.4617528 124.0165272  64.4799153
 138.9073911 123.9617386  64.9260176 132.0385175 120.5200329  65.2652273
 132.8116051 119.9729316  65.1265149 132.3910574 121.3844578  65.4766735
 133.8770218 121.8476711  78.4719173 133.5860084 122.7522342  78.3565839
 134.5127202 121.8893239  79.1863242 134.8026425 119.2253560  75.0620532
 135.3989997 119.0009582  74.3477495 134.8601396 118.4838305  75.6645980
 134.3751453 116.6792995  62.8970723 134.6276974 116.1574516  62.1354186
 133.4376012 116.5159140  62.9997407 139.4194736 115.6828773  70.7045466
 140.2057825 115.2648196  70.3535883 139.6833440 116.5874865  70.8727115
 139.5904813 121.1201624  65.4034123 138.9550646 121.1936250  66.1155028
 139.2602220 121.7095222  64.7253203 134.0947742 118.5821101  65.0995098
 133.9784000 117.9066004  65.7676182 134.2050002 118.0953475  64.2827251
 136.4379283 118.0431248  68.8041787 136.0737490 117.5161869  69.5154709
 137.2946399 117.6529717  68.6308273 142.3428583 109.3325581  76.0673054
 142.0111908 110.2020991  75.8434269 141.7474197 109.0161865  76.7467084
 136.0784770 113.0721148  63.8003136 136.2459172 113.9401384  64.1673607
 135.8881939 113.2348429  62.8764425 138.8360103 121.5338127  75.4668966
 138.5360826 122.4363165  75.3584774 138.4911162 121.2670310  76.3190119
 132.2872584 117.9851923  71.5005671 131.3623081 117.8528137  71.7083362
 132.5356998 118.7646143  71.9975613 142.2357247 114.0520667  73.1466404
 141.3274124 113.9836075  72.8525165 142.1844843 114.5292612  73.9748229
 136.0573991 115.5278805  64.7849803 135.9373616 115.9735856  65.6235283
 135.3626579 115.8764123  64.2263341 129.6481395 117.6285197  72.3349460
 129.7773777 117.8819676  73.2488871 128.9678847 118.2212905  72.0154115
 133.8180883 128.2982447  68.4339934 133.7404912 129.2490272  68.5128415
 133.2142526 127.9528319  69.0914860 136.3098112 115.4710312  81.0901301
 135.5331447 116.0304232  81.0804166 136.9488676 115.9567095  81.6116171
 141.7559057 116.0000278  65.6130137 142.6676913 116.2327665  65.4377834
 141.2468704 116.5837322  65.0505215 134.5644485 118.2795766  80.6519268
 135.3059169 118.8180810  80.3754091 133.8581470 118.9062054  80.8090820
 140.0399824 120.4224906  79.2491429 140.4483180 119.9807317  78.5046062
 139.3177086 119.8477534  79.5025622 136.3930894 115.3597513  76.6224986
 137.2392090 115.7836926  76.7659635 136.3329532 114.7031137  77.3163549
 140.3628639 120.9826097  73.0043718 139.7337502 121.1471811  72.3019786
 139.9754301 121.3967706  73.7754682 139.5430340 113.0201881  78.2806160
 139.2991272 113.7743942  77.7440436 139.8190270 113.3987229  79.1153407
 141.4968803 119.5640494  76.9583426 141.7085698 120.2072253  76.2817807
 141.4498551 118.7302810  76.4905356 139.0995032 112.1758314  73.8619998
 138.2379511 112.4739568  74.1536735 139.1257466 112.3928713  72.9301030
 135.9156601 120.7200505  70.2693803 136.3794947 120.9988208  69.4798426
 135.6513399 119.8183949  70.0866894 132.8080682 120.2671986  73.2073567
 133.3782039 120.6959255  72.5691051 133.3988794 119.9854571  73.9057752
 134.8525487 116.8423657  67.0783368 135.5549530 117.2944701  67.5457295
 134.5206116 116.2007476  67.7063262 133.3005849 115.4335414  81.4534578
 132.6704509 116.1151695  81.6869975 133.1941936 115.3218495  80.5087716
 128.5950821 115.1007210  72.3800502 127.8049875 115.3564738  71.9040613
 129.0862068 115.9155548  72.4852543 142.6114631 122.4412449  75.1305783
 143.4332074 122.0392636  74.8488465 142.6077033 122.3380683  76.0821899
 130.5465566 115.4651789  69.3383979 129.7496730 115.5770483  69.8567474
 130.3191159 115.8038441  68.4724869 136.3771234 121.9896492  77.2866493
 136.4415667 122.4516900  78.1224665 135.6682158 121.3593857  77.4148803
 126.8788524 115.3537700  74.8115493 127.1296562 116.2384710  75.0773069
 127.4148072 115.1742302  74.0390585 136.0919252 123.6564600  67.1545474
 135.9564926 124.5016136  67.5830322 136.6329064 123.8583877  66.3911408
 132.5786591 109.7356180  83.8159829 132.1853537 109.1822378  84.4907473
 133.3952732 110.0466758  84.2066346 129.5448649 121.1740038  67.7273399
 130.0573170 121.9683288  67.8778963 130.1971362 120.4766328  67.6607000
 131.3543534 124.2905794  69.8096152 131.5310162 125.2123759  69.6217136
 132.1500367 123.9764213  70.2390532 135.4954552 111.1514059  81.4080085
 136.2364266 111.7521212  81.3284548 135.7272475 110.4091697  80.8498128
 130.6395890 116.3370426  79.6858315 130.5249405 115.4355683  79.9865414
 129.7840408 116.5834123  79.3343132 137.7187728 124.2788166  81.2845816
 137.2751582 123.4924545  80.9666720 138.3804942 124.4667317  80.6189707
 132.4774849 125.8083968  75.8106494 133.0282274 125.6801031  75.0383488
 131.6386325 126.1078857  75.4601387 136.2742020 122.0735096  80.1550725
 136.8070357 121.3123384  79.9250033 135.7456101 121.7808748  80.8974880
 139.4411715 107.1795162  75.6844367 139.0975985 108.0696803  75.6083478
 139.8090678 106.9896819  74.8213952 127.5097566 119.5028692  68.5032969
 128.3472788 119.9125701  68.2866677 127.6875834 118.5628134  68.4733163
 139.4061998 117.1703773  64.1916802 138.8908621 117.9408377  64.4305190
 139.1339306 116.4968909  64.8149864 136.9909109 112.0153474  69.2502041
 136.1350705 111.6260324  69.0707679 137.4036061 112.0945434  68.3901826
 138.5208256 109.5499817  73.6493600 138.0173051 109.5129952  72.8361406
 138.8138862 110.4592560  73.7090257 134.7651141 109.6338547  72.6559782
 135.6304138 109.4381355  72.2965672 134.8328650 109.4048898  73.5829139
 139.1948301 115.0430865  66.0176583 138.8898437 115.3577014  66.8686727
 140.1478743 115.1212285  66.0603916 137.6394733 121.2021088  67.6669537
 137.1116095 120.4673848  67.3542775 137.1382236 121.9795765  67.4209506
 142.6187579 119.3970109  72.7836584 141.9611253 120.0869370  72.8716712
 143.4227978 119.7866541  73.1270570 132.3713461 111.8640754  70.0276149
 132.9457212 111.6415936  69.2949342 132.9584443 111.9329449  70.7804750
 141.4293038 117.7514481  70.8340525 141.9424920 118.3844473  71.3362235
 142.0794262 117.1515677  70.4683886 132.6983048 113.8945216  64.0472034
 131.8620360 114.2319902  64.3681309 132.5587817 113.7594195  63.1099171
 134.6736128 108.7382003  68.7551218 134.0200541 108.4231021  68.1307833
 134.6316602 108.1157744  69.4811041 135.7847333 119.0201298  60.6704510
 134.8774395 118.7890552  60.8695659 136.2818365 118.2238918  60.8578492
 137.9073869 115.2263937  73.0798866 136.9896430 115.4478884  72.9220554
 138.3234012 115.3010247  72.2210573 138.6908916 116.6255353  68.2101546
 139.4380735 117.1376750  67.9008668 138.9600506 116.3039405  69.0705940
 136.9635567 119.1213893  65.1928501 136.0546786 118.8372926  65.2900970
 136.9930650 119.5412972  64.3331807 142.1954834 122.7320483  68.9619668
 141.7417161 121.8911393  69.0184859 141.5648801 123.3681881  69.2994448
 141.1387754 113.6612469  70.1920336 140.4010510 113.1489855  70.5230578
 141.3914527 113.2212850  69.3803612 141.2399381 106.4388721  70.7862105
 141.5458258 105.5786084  70.4988020 141.9651986 107.0306341  70.5861099
 127.5323737 116.8419407  69.1743703 127.3348137 116.2488768  68.4494769
 126.9770401 116.5371618  69.8919642 135.5120461 116.7342514  71.2938296
 135.5669070 115.7816350  71.2180773 134.7011663 116.8901953  71.7779594
 136.6611654 120.6622637  62.5316579 136.2231084 119.9458496  62.0722216
 137.4022095 120.8898752  61.9701671 133.4512821 115.3519574  69.0528675
 132.6380686 115.6513744  69.4593867 133.9471815 114.9575262  69.7703157
 135.6021398 125.3477331  70.9862939 135.5597577 125.5738177  70.0571471
 136.5184097 125.1140705  71.1348741 139.0487032 115.8161398  77.8843569
 139.4036420 116.0432871  78.7438034 139.6959163 116.1479775  77.2620824
 132.9426895 112.9237929  74.6689910 133.5826275 112.7826688  73.9712873
 132.1104426 112.6372443  74.2928512 133.7187199 122.2240360  70.7824902
 134.5127798 121.7290680  70.5807477 133.0078892 121.6958223  70.4192608
 138.5382044 124.6058455  75.1337270 138.5919066 125.1749391  75.9014986
 137.6696825 124.7760340  74.7691307 130.0269963 116.3683441  66.8584655
 129.0967551 116.3067897  67.0754617 130.1227435 115.8459394  66.0621296
 129.9455512 112.8938254  69.4462897 130.2062329 113.8083587  69.3372057
 130.7672684 112.4262697  69.5959509 131.4180437 114.3076011  76.6161721
 132.0903490 114.0993373  75.9674370 130.5910224 114.1098097  76.1766953
 137.3206009 110.9337952  78.6327382 136.6733924 111.6327902  78.5391858
 138.0907024 111.3674096  79.0003630 140.7284807 121.1986804  81.7077935
 140.5770313 120.9697356  80.7908019 140.7189486 122.1557406  81.7209280
 137.4970143 118.7718717  76.6924202 138.4262203 118.9229877  76.5193169
 137.0761173 118.8602738  75.8372848 136.2958475 122.7969382  74.4622739
 136.1569561 122.4288166  75.3348677 135.5073071 123.3117021  74.2906697
 137.8463690 122.1750984  71.8511577 137.5113523 122.1351754  72.7469227
 137.3467636 121.5095700  71.3781987 131.8207934 117.5818614  77.3764158
 131.6827732 116.8498853  77.9775697 132.7312858 117.4927514  77.0948346
 140.7822882 119.5207019  62.1248637 140.1652053 118.7953847  62.0281689
 140.3139370 120.2816379  61.7815711 134.4490235 117.2938574  76.8647838
 135.1589853 116.6531766  76.8234456 134.4059543 117.5451469  77.7874019
 133.1619169 114.2803792  78.6843477 132.6256526 113.8294530  79.3365074
 132.5735877 114.4149700  77.9413942 132.5721428 113.7392443  61.2469941
 131.6950894 113.6181244  60.8832188 133.0479181 112.9478521  60.9948830
 142.4394421 122.1945511  78.0168397 141.5521200 121.8571433  78.1394796
 143.0092972 121.4628542  78.2537162 124.0923568 118.5269603  71.3411448
 124.7794608 118.2131333  70.7532463 123.9371697 119.4310967  71.0678700
 128.8958290 113.4159799  75.7696472 128.8116479 112.8085469  75.0346882
 128.0740997 113.9068818  75.7705968 135.9695574 126.8546963  74.9829640
 135.8965746 127.6601935  75.4948945 135.5272967 127.0538929  74.1577661
 135.7585354 126.0918733  68.4932462 134.9752876 126.6340414  68.5870686
 136.4578099 126.6092713  68.8926703 139.0682004 111.9013363  71.1366667
 139.5650704 111.1483325  70.8167737 138.2968986 111.9377679  70.5709876
 140.1511785 120.6585050  68.7105090 139.2168063 120.7786512  68.5409795
 140.3288453 119.7557517  68.4465100 135.6516973 114.0430746  70.8638351
 135.2814760 113.4901786  71.5519257 136.1476065 113.4388879  70.3113352
 133.4806171 124.5028241  77.9593369 134.1815631 125.1364724  78.1122764
 133.0101286 124.8442972  77.1989009 141.6060567 122.8446191  66.2441276
 141.8820411 122.7302785  67.1535151 140.7365066 122.4463675  66.2053450
 141.5100999 108.8682956  73.2846026 140.5964079 109.0987183  73.4528233
 141.9394100 108.9521400  74.1360058 141.2807457 117.0572848  75.7845920
 140.6278908 117.3048756  75.1298373 141.6587837 116.2436986  75.4508397
 138.5756797 126.0200727  67.1489139 139.1044563 125.5093181  66.5359301
 138.8385016 125.7043257  68.0134672 137.3295030 117.7992659  82.2711957
 136.6535667 117.6986789  82.9414332 138.1522664 117.6431873  82.7347954
 129.0773889 124.0364596  74.8924472 129.6627326 123.2908284  75.0252376
 128.8798728 124.3468553  75.7761136 131.9312545 127.0715843  69.9086915
 131.2622920 127.5561971  69.4250955 131.7925414 127.3185064  70.8230293
 123.6691544 116.6070196  73.6128915 123.7075644 116.0733787  74.4066033
 123.1631837 116.0805402  72.9939892 131.0482306 111.4534737  77.1091458
 131.1123633 112.3149567  76.6968855 130.9849427 110.8408738  76.3763816
 130.5234579 113.5257869  80.7564492 131.1506618 113.1434946  81.3702016
 129.6662498 113.3072071  81.1220184 127.3000122 115.3334298  66.6882847
 127.5953563 114.4244977  66.6349900 126.3988158 115.3122038  66.3663849
 130.8294369 113.4090295  72.6710395 130.1080954 114.0226262  72.5317869
 131.6187625 113.9448060  72.5927041 133.6320682 110.7444721  78.9451047
 134.1555084 110.9907018  79.7077356 133.4133016 111.5764756  78.5254184
 129.0287963 113.0148396  66.8122172 128.7000669 112.1345775  66.6297278
 129.3827334 112.9596065  67.6998561 138.2767542 124.6503299  71.3217157
 138.1292505 123.7220006  71.5024727 139.1021036 124.6723389  70.8374233
 132.1429786 113.3021366  67.1797650 132.4825859 113.8307287  66.4576258
 132.5901907 113.6401772  67.9556216 134.8373227 111.6858416  76.6300718
 134.4970048 110.8866229  77.0321397 134.1312234 111.9860127  76.0577551
 135.4889699 108.7707729  75.0828041 136.3115768 108.2968207  74.9606931
 135.7327763 109.5498213  75.5826727 134.1297934 111.7995987  65.3790942
 134.8506296 112.1777240  64.8754659 133.5063238 112.5184864  65.4825920
 138.2729057 112.5041136  66.3149275 138.4892671 113.3865774  66.0138103
 137.7923124 112.1127350  65.5854917 133.0128278 115.4626849  72.8920019
 132.8672859 115.7767153  73.7844301 132.5353482 116.0811750  72.3390918
 134.8724661 112.4529397  72.9400909 134.8586230 111.5570491  72.6033207
 135.5897089 112.4600061  73.5739195 136.7250791 112.8866738  74.9854036
 136.4668569 113.8083808  74.9838367 136.1935832 112.4897172  75.6754500
 127.4873940 118.0032194  75.8307680 126.9427408 118.7792002  75.9627955
 128.3653290 118.3502998  75.6726802 134.2761557 111.3343778  68.2088479
 134.3977468 110.4060424  68.4079366 133.9863599 111.3482464  67.2966794
 137.1452747 109.0198688  71.3455199 137.1674444 109.0838021  70.3907178
 137.5620806 108.1803197  71.5395705 128.2739962 117.1302090  78.7237837
 127.5321698 117.2784725  79.3102468 127.9532706 117.3910356  77.8604587
 136.2183625 126.6718068  78.5218227 136.5270751 126.4267215  79.3940927
 137.0159107 126.8764707  78.0337097 128.7196576 125.0167519  70.7548232
 129.5454596 124.7171291  70.3746875 128.3690628 124.2475141  71.2038021
 133.6878109 124.3693987  72.8245905 133.0658118 123.7064692  72.5248133
 134.3582976 124.3955119  72.1419553 126.9205181 122.9353845  71.7137165
 126.0837089 122.5076020  71.5321167 126.8928826 123.1286289  72.6507957
 133.7602636 112.8475775  82.4178412 133.8090792 113.7237898  82.0356181
 134.3025150 112.3053168  81.8450055 133.2491616 122.9197910  66.3004366
 133.3979736 123.6033375  65.6471039 134.0558059 122.9003000  66.8153822
 141.6559119 116.2240293  80.3271584 142.5568982 116.0846758  80.0355582
 141.7307094 116.3894748  81.2669761 135.9901925 113.6007147  79.1724770
 135.1205234 113.8940714  78.9007359 136.2261405 114.1847592  79.8932034
 131.0044249 118.9463088  67.3065435 130.7590291 118.0425418  67.5045645
 131.1740163 118.9480238  66.3644913 138.6940959 109.8186764  76.6890191
 139.2122902 110.5547791  76.3636679 138.3396091 110.1250758  77.5236950
 130.2739896 114.6791446  64.8051596 129.5809141 114.7535801  64.1491632
 130.0291648 113.9151789  65.3273113 138.9453553 106.2387047  72.2091087
 139.2255306 105.5710236  72.8351514 139.7304160 106.4316143  71.6965751
 136.7487021 125.4146041  63.7716113 136.1760988 126.0336228  63.3186585
 137.3219815 125.9645403  64.3056035 140.8376791 111.7460264  76.1422063
 140.2426723 112.0265277  75.4468552 140.5526487 112.2354165  76.9138804
 137.1333820 116.7506854  61.1132166 138.0792924 116.6213062  61.1820584
 136.7548065 116.0121516  61.5901594 137.0172512 120.8024600  82.5732823
 137.9375522 120.9803199  82.7672869 136.9822095 119.8580645  82.4212522
 135.3176737 114.6756830  61.0487051 134.4108192 114.3789943  61.1249765
 135.5952718 114.3786648  60.1821337 126.2354677 115.9963193  71.4986098
 125.9157462 115.1428502  71.2060472 125.6888105 116.2111772  72.2544065
 130.0134585 118.7125634  75.2155604 130.2320595 119.6442742  75.2343638
 130.4260359 118.3533609  76.0010408 136.9338803 109.2193720  67.2031292
 136.1239531 108.8740805  67.5786539 137.6223219 108.9101263  67.7918904
 138.8629351 108.2971767  68.8255589 139.4160389 108.7167220  69.4845612
 139.0999437 107.3707515  68.8678545 134.8862450 114.2858840  84.6058353
 134.7859177 115.2353197  84.5370444 134.6683992 113.9577079  83.7334423
 134.0875521 111.5343765  61.1899030 134.9494685 111.8598664  61.4494848
 134.2725866 110.7475261  60.6772096 126.1042937 119.6166105  73.4679219
 125.4106409 119.2020058  72.9549174 126.8515928 119.6586641  72.8712638
 142.2408158 110.4072292  68.3334253 141.6606827 111.0657096  67.9512306
 141.9744091 109.5849636  67.9221671 140.6911724 109.8077349  70.5355574
 141.1911503 109.9193884  69.7269893 141.3347332 109.5038402  71.1756382
 134.7493720 117.7155979  83.4223415 134.2660802 118.5156339  83.6287304
 134.8354659 117.7263924  82.4690859 128.0179680 119.5484359  71.3445234
 127.9950368 119.6472046  70.3927117 128.3280316 120.3949509  71.6662400
 130.6767058 121.6060514  75.4591848 131.6310311 121.5744456  75.3921780
 130.4779581 121.1451137  76.2742074 131.2666440 120.1761630  78.0262646
 132.0859329 120.6705708  78.0497483 131.5403247 119.2593598  77.9980214
 141.0233036 112.5672382  67.3890602 140.1358891 112.8522033  67.1710796
 141.4387025 112.4066145  66.5417879 129.0317286 127.1480133  72.4762046
 128.8971754 126.3880534  71.9100044 128.6149349 127.8721033  72.0090835
 140.1676249 122.3317057  61.4838622 140.8712100 122.5367059  62.0996277
 139.4438898 122.8993819  61.7487705 140.9974060 118.0826918  67.6040892
 140.9409261 118.5395469  66.7648524 141.5502402 117.3217603  67.4263735
 132.1886412 128.0449450  72.6880489 132.0718796 128.9894883  72.5859179
 131.3678859 127.7423012  73.0766288 142.0762947 122.7699586  63.5337082
 142.9108551 122.3380784  63.3514556 141.9147290 122.5981600  64.4613976
 141.7308839 119.2731699  64.8993421 141.6757643 119.1075971  63.9581865
 141.1054894 119.9807732  65.0555611 126.5201354 114.5099764  78.7254843
 127.1660218 113.9998718  79.2142068 126.3118505 115.2468445  79.2998268
 139.0454746 121.5780611  84.2246984 139.9145906 121.7521263  83.8633619
 138.5661498 122.3975028  84.1022713 135.0404964 108.7739808  64.4778739
 135.0283634 109.7181648  64.6347010 135.9328386 108.5909954  64.1838201
 133.2140926 128.6977712  75.9036417 134.1168173 128.7301322  76.2202912
 132.9878296 127.7678163  75.9182753 134.9694528 127.4508699  72.5646496
 134.0190159 127.4510560  72.4510868 135.2727015 126.7041433  72.0482531
 138.8557084 105.3682585  68.7324676 138.0889480 104.8141072  68.8781359
 139.2667789 105.4404454  69.5938828 130.8598845 111.6567381  82.8229857
 131.7230307 111.3004186  83.0333182 130.2864256 111.3181276  83.5105262
  54.2038141  -9.0389886  59.1180201  54.9959433  -9.3799061  58.7026500
  54.4434791  -8.9294911  60.0382354  62.2373268  -6.8670110  51.5910446
  61.5861248  -6.2816029  51.2044459  63.0317631  -6.3363915  51.6505483
  58.0013938  -8.4504590  65.1964479  57.7103804  -7.5458959  65.0811146
  58.6370922  -8.4088063  65.9108549  57.9424603  -1.9998854  55.1585241
  57.8648632  -1.0491029  55.2373721  57.3386246  -2.3452982  55.8160167
  60.2162971  -6.6416701  53.8790780  60.0808646  -5.7965166  54.3075628
  60.7572784  -6.4397424  53.1156714  53.6692369  -9.1241263  54.4518705
  54.1816889  -8.3298013  54.6024270  54.3215082  -9.8214973  54.3852307
  55.4787254  -6.0075507  56.5341459  55.6553882  -5.0857542  56.3462443
  56.2744087  -6.3217088  56.9635838  61.8431448  -6.0193135  68.0091122
  61.3995302  -6.8056756  67.6912027  62.5048661  -5.8313984  67.3435013
  56.6018569  -4.4897333  62.5351801  57.1525994  -4.6180270  61.7628795
  55.7630045  -4.1902444  62.1846694  63.9412686  -5.7390335  66.0372524
  63.9231161  -4.9181454  65.5452793  64.8632606  -5.8636260  66.2622665
  62.8159132  -2.5682495  50.3146503  62.1420831  -2.2650799  50.9231461
  63.2024954  -1.7653415  49.9651960  64.7631493  -5.7284322  56.6214793
  65.0554467  -5.1679265  55.9027159  65.2730114  -5.4355761  57.3767952
  59.7265118  -4.9503971  57.7108246  59.6841297  -4.7243124  56.7816778
  60.6427817  -5.1840596  57.8594047  62.6625763  -5.6922846  61.8582576
  62.7162786  -5.1231910  62.6260292  61.7940545  -5.5220961  61.4936614
  60.4202195  -7.5011920  61.1868046  60.2813281  -7.8693135  62.0593984
  59.6316791  -6.9864280  61.0152004  61.0150347  -2.4002823  52.5293582
  61.1902103  -2.8714780  53.3439205  60.3283135  -1.7737057  52.7574843
  55.5811432   0.7486540  59.3033443  55.8208030   1.3805064  59.9812461
  54.7380629   0.3974580  59.5898802  60.0939294  -3.4434338  61.7074947
  60.0209466  -2.6379366  62.2194251  59.6516687  -3.2442372  60.8822968
  59.8829074  -4.2062568  55.2177768  59.0996596  -3.6640888  55.3115993
  60.5821819  -3.6888588  55.6172009  62.5537978  -3.5447504  63.8633105
  63.2665950  -2.9100039  63.7909007  62.0628006  -3.4483638  63.0473107
  57.6049891  -5.7953060  64.6838676  58.3059351  -5.1616577  64.8368070
  57.1345006  -5.4538329  63.9234315  62.3658351  -3.2048760  56.6119397
  62.5480746  -4.0227104  57.0747149  63.1891337  -2.9881067  56.1744287
  62.7000517  -4.2780575  53.8734445  63.2288283  -4.7888120  53.2604607
  62.9628736  -4.5938044  54.7379978  53.2017609  -6.2616705  61.6169779
  53.7871046  -7.0073017  61.7497683  53.0042448  -5.9512749  62.5006443
  56.0556264  -3.2265458  56.6332221  55.3866640  -2.7419330  56.1496261
  55.9169134  -2.9796237  57.5475600  60.1961533  -1.1921714  63.2314880
  60.7479841  -1.0290093  63.9963965  60.5367727  -0.6017277  62.5594904
  63.3329920  -3.2439739  60.2178562  63.2081060  -4.0449999  59.7089507
  63.9909011  -2.7493545  59.7292532  62.4011262  -5.6478003  58.0462464
  62.2536224  -6.5761295  58.2270034  63.2264756  -5.6257912  57.5619539
  66.0045384  -4.8249444  59.1327337  66.9291931  -5.0306582  58.9951788
  65.8360687  -5.0733043  60.0416678  65.7940700  -4.3063776  54.4889428
  65.9677578  -4.8717354  53.7363281  66.2869591  -3.5062881  54.3068918
  60.3427344  -3.6263233  65.2463534  60.6514471  -3.8714086  66.1186233
  61.1402826  -3.4216594  64.7582404  60.3647956  -1.4725323  57.4768910
  59.9252947  -1.9648944  58.1701767  61.1156073  -2.0152356  57.2360986
  52.8440295  -5.2813782  57.4793539  53.6698315  -5.5810010  57.0992182
  52.4934347  -6.0506160  57.9283327  57.8121829  -5.9287314  59.5491212
  57.1901838  -6.5916609  59.2493440  58.4826695  -5.9026182  58.8664860
  51.0448900  -7.3627456  58.4382472  50.2080809  -7.7905281  58.2566473
  51.0172546  -7.1695013  59.3753263  57.3735335  -7.3783391  53.0249673
  57.5223456  -6.6947926  52.3716345  58.1801779  -7.3978301  53.5399128
  60.8730741  -4.8835260  50.4961420  60.3004708  -4.2645073  50.0431892
  61.4463535  -4.3335899  51.0301342  64.0928001  -4.5998110  51.6270002
  65.0258674  -4.6652548  51.8302878  64.0051214  -3.7641843  51.1684535
  66.7216017  -5.2832240  48.5873950  66.6429649  -5.6172376  49.4809708
  67.5425684  -4.7910472  48.5865422  50.2286657 -10.6815196  60.1924526
  49.5350128 -11.0961243  59.6794480  50.9759648 -10.6394660  59.5957945
  52.1423400 -10.7496942  58.0690541  52.1194088 -10.6509255  57.1172424
  52.4524036  -9.9031792  58.3907707  54.8010777  -8.6920787  62.1837155
  55.7554031  -8.7236845  62.1167087  54.6023301  -9.1530164  62.9987381
  53.1561006  -3.1501168  59.2007353  53.0215474  -3.9100767  58.6345351
  52.7393069  -2.4260268  58.7336142  56.3130132  -2.2531851  59.4125796
  56.1962516  -1.3086418  59.3104486  55.4922578  -2.5558289  59.8011595
  57.3384646  -1.6003589  62.6281724  58.2411893  -1.5679979  62.9448219
  57.1122016  -2.5303138  62.6428060  59.0938248  -2.8472602  59.2891803
  58.1433879  -2.8470741  59.1756175  59.3970734  -3.5939868  58.7727837
  74.8290942   2.9887936  60.3537565  75.4669352   2.8694683  59.6500905
  74.7111785   3.9368780  60.4125517  71.6380648   2.9415364  60.2899090
  71.2999160   2.8256429  59.4019625  72.5070416   2.5406529  60.2700096
  67.4967464   4.7950840  56.2795981  66.9332329   4.7040777  55.5112268
  67.3819859   3.9750745  56.7598473  72.1200431   4.0950216  66.2485295
  72.1089072   3.7003014  65.3765799  72.2821070   3.3616288  66.8419067
  65.0431896   6.2902032  59.1180201  65.8353188   5.9492857  58.7026500
  65.2828546   6.3997007  60.0382354  73.0767022   8.4621808  51.5910446
  72.4255002   9.0475889  51.2044459  73.8711385   8.9928003  51.6505483
  67.0022650   5.5510945  51.9897580  67.7753526   5.0039932  51.8510456
  67.3548048   6.4155195  52.2012041  68.8407692   6.8787328  65.1964479
  68.5497558   7.7832958  65.0811146  69.4764677   6.9203855  65.9108549
  69.7663899   4.2564176  61.7865839  70.3627471   4.0320198  61.0722802
  69.8238871   3.5148922  62.3891287  69.3388927   1.7103611  49.6216030
  69.5914448   1.1885133  48.8599493  68.4013487   1.5469757  49.7242713
  74.3832210   0.7139390  57.4290773  75.1695299   0.2958813  57.0781190
  74.6470915   1.6185482  57.5972421  74.5542288   6.1512240  52.1279430
  73.9188121   6.2246867  52.8400335  74.2239694   6.7405839  51.4498509
  79.7840637   0.6514623  58.3323752  80.5165809   0.0813840  58.5661581
  79.0279993   0.2636223  58.7730257  69.0585216   3.6131717  51.8240405
  68.9421474   2.9376621  52.4921489  69.1687476   3.1264091  51.0072558
  71.4016757   3.0741864  55.5287094  71.0374964   2.5472485  56.2400016
  72.2583873   2.6840333  55.3553579  71.0422244  -1.8968236  50.5248443
  71.2096646  -1.0287999  50.8918914  70.8519413  -1.7340954  49.6009732
  73.7997577   6.5648743  62.1914273  73.4998300   7.4673782  62.0830080
  73.4548637   6.2980926  63.0435426  67.2510059   3.0162540  58.2250977
  66.3260555   2.8838754  58.4328669  67.4994472   3.7956759  58.7220920
  77.1994721  -0.9168717  59.8711710  76.2911598  -0.9853308  59.5770471
  77.1482317  -0.4396772  60.6993536  71.0211465   0.5589422  51.5095109
  70.9011090   1.0046472  52.3480590  70.3264053   0.9074739  50.9508648
  64.6118870   2.6595813  59.0594766  64.7411251   2.9130292  59.9734178
  63.9316321   3.2523521  58.7399421  68.7818357  13.3293063  55.1585241
  68.7042387  14.2800888  55.2373721  68.1780001  12.9838936  55.8160167
  71.2735587   0.5020929  67.8146608  70.4968921   1.0614849  67.8049472
  71.9126150   0.9877712  68.3361478  76.7196531   1.0310895  52.3375443
  77.6314387   1.2638282  52.1623141  76.2106178   1.6147939  51.7750522
  69.5281959   3.3106382  67.3764575  70.2696643   3.8491426  67.0999398
  68.8218945   3.9372671  67.5336126  75.0037299   5.4535523  65.9736736
  75.4120655   5.0117933  65.2291368  74.2814560   4.8788150  66.2270929
  71.3568369   0.3908129  63.3470293  72.2029564   0.8147543  63.4904942
  71.2967006  -0.2658246  64.0408856  75.3266113   6.0136713  59.7289025
  74.6974976   6.1782427  59.0265093  74.9391775   6.4278323  60.4999989
  79.2055345   6.9491151  57.0833389  78.5206383   7.3290052  56.5330422
  79.2899195   7.5586478  57.8165336  74.5067814  -1.9487502  65.0051467
  74.2628746  -1.1945442  64.4685742  74.7827745  -1.5702155  65.8398714
  76.4606277   4.5951110  63.6828732  76.6723172   5.2382870  63.0063113
  76.4136025   3.7613427  63.2150662  74.0632506  -2.7931069  60.5865304
  73.2016985  -2.4949816  60.8782042  74.0894941  -2.5760670  59.6546337
  70.8794075   5.7511121  56.9939110  71.3432421   6.0298824  56.2043732
  70.6150873   4.8494566  56.8112201  67.7718156   5.2982603  59.9318873
  68.3419513   5.7269871  59.2936358  68.3626268   5.0165188  60.6303059
  69.8162961   1.8734274  53.8028675  70.5187005   2.3255317  54.2702601
  69.4843590   1.2318093  54.4308568  68.2643323   0.4646030  68.1779885
  67.6341983   1.1462311  68.4115281  68.1579411   0.3529112  67.2333023
  63.5588295   0.1317826  59.1045809  62.7687349   0.3875355  58.6285919
  64.0499543   0.9466164  59.2097849  77.5752105   7.4723066  61.8551090
  78.3969549   7.0703253  61.5733771  77.5714508   7.3691300  62.8067205
  65.5103041   0.4962406  56.0629285  64.7134204   0.6081100  56.5812781
  65.2828633   0.8349058  55.1970176  71.3408708   7.0207109  64.0111800
  71.4053141   7.4827516  64.8469972  70.6319632   6.3904474  64.1394110
  61.8425998   0.3848317  61.5360799  62.0934037   1.2695327  61.8018375
  62.3785547   0.2052918  60.7635891  85.6658098   3.8161814  58.2036061
  84.9121806   3.2469212  58.0480065  85.8005639   3.7824479  59.1506696
  71.0556726   8.6875216  53.8790780  70.9202401   9.5326752  54.3075628
  71.5966538   8.8894494  53.1156714  64.5086123   6.2050654  54.4518705
  65.0210644   6.9993905  54.6024270  65.1608836   5.5076945  54.3852307
  66.3181008   9.3216411  56.5341459  66.4947636  10.2434375  56.3462443
  67.1137842   9.0074830  56.9635838  65.6033365   1.3681043  66.4103622
  65.4886880   0.4666300  66.7110721  64.7477882   1.6144739  66.0588438
  74.7806440   9.5901583  66.0372524  74.7624916  10.4110464  65.5452793
  75.7026360   9.4655658  66.2622665  71.2379495   7.1045712  66.8796032
  71.7707831   6.3434000  66.6495340  70.7093576   6.8119364  67.6220187
  62.4735040   4.5339309  55.2278276  63.3110262   4.9436317  55.0111984
  62.6513308   3.5938751  55.1978470  74.3699472   2.2014389  50.9162109
  73.8546096   2.9718994  51.1550496  74.0976781   1.5279525  51.5395170
  71.9546583  -2.9535910  55.9747347  71.0988180  -3.3429059  55.7952986
  72.3673535  -2.8743949  55.1147133  79.3433746   4.9546744  52.8515282
  78.5663189   4.6157903  52.4070444  80.0225227   4.9599367  52.1770247
  74.1585775   0.0741481  52.7421890  73.8535911   0.3887631  53.5932033
  75.1116218   0.1522901  52.7849223  72.6032207   6.2331705  54.3914844
  72.0753569   5.4984464  54.0788082  72.1019710   7.0106381  54.1454812
  77.5825053   4.4280725  59.5081890  76.9248728   5.1179987  59.5962019
  78.3865453   4.8177157  59.8515877  67.3350935  -3.1048629  56.7521456
  67.9094687  -3.3273447  56.0194649  67.9221917  -3.0359934  57.5050057
  76.3930512   2.7825098  57.5585832  76.9062394   3.4155090  58.0607542
  77.0431736   2.1826293  57.1929192  67.6620522  -1.0744168  50.7717341
  66.8257834  -0.7369481  51.0926616  67.5225292  -1.2095188  49.8344478
  70.7484807   4.0511915  47.3949817  69.8411869   3.8201168  47.5940966
  71.2455839   3.2549534  47.5823799  73.6552886  12.7609422  50.3146503
  72.9814585  13.0641119  50.9231461  74.0418708  13.5638503  49.9651960
  72.8711343   0.2574553  59.8044173  71.9533904   0.4789500  59.6465861
  73.2871487   0.3320864  58.9455880  73.6546391   1.6565969  54.9346853
  74.4018210   2.1687366  54.6253975  73.9237980   1.3350022  55.7951246
  71.9273041   4.1524510  51.9173807  71.0184260   3.8683543  52.0146277
  71.9568125   4.5723588  51.0577114  77.1592308   7.7631099  55.6864975
  76.7054635   6.9222009  55.7430165  76.5286275   8.3992498  56.0239755
  76.1025228  -1.3076915  56.9165642  75.3647985  -1.8199528  57.2475885
  76.3552001  -1.7476533  56.1048919  75.6025248   9.6007596  56.6214793
  75.8948222  10.1612653  55.9027159  76.1123868   9.8936157  57.3767952
  62.4961211   1.8730024  55.8989009  62.2985611   1.2799385  55.1740076
  61.9407875   1.5682234  56.6164948  70.4757935   1.7653130  58.0183603
  70.5306545   0.8126967  57.9426079  69.6649137   1.9212570  58.5024901
  71.6249129   5.6933254  49.2561886  71.1868559   4.9769112  48.7967523
  72.3659570   5.9209368  48.6946977  68.4150295   0.3830190  55.7773981
  67.6018160   0.6824361  56.1839174  68.9109289  -0.0114121  56.4948464
  70.5658873  10.3787947  57.7108246  70.5235052  10.6048793  56.7816778
  71.4821572  10.1451322  57.8594047  74.0124507   0.8472015  64.6088875
  74.3673894   1.0743488  65.4683341  74.6596638   1.1790391  63.9866131
  79.7422243   3.9690451  55.3138204  79.6040142   4.1592047  54.3859394
  79.3858462   4.7309833  55.7706255  67.9064370  -2.0451454  61.3935216
  68.5463749  -2.1862695  60.6958180  67.0741900  -2.3316941  61.0173818
  79.7691623   6.0366978  60.3249476  80.2028130   5.9442267  61.1732530
  80.4823204   6.0124478  59.6869492  68.6824674   7.2550976  57.5070209
  69.4765272   6.7601296  57.3052784  67.9716366   6.7268839  57.1437914
  73.5019518   9.6369072  61.8582576  73.5556540  10.2060008  62.6260292
  72.6334299   9.8070957  61.4936614  64.9907437   1.3994058  53.5829962
  64.0605025   1.3378513  53.7999924  65.0864909   0.8770011  52.7866603
  64.9092986  -2.0751129  56.1708203  65.1699803  -1.1605796  56.0617364
  65.7310158  -2.5426687  56.3204816  66.3817911  -0.6613372  63.3407028
  67.0540965  -0.8696010  62.6919677  65.5547698  -0.8591286  62.9012260
  80.6307173   6.0790678  62.8582361  80.8243063   6.9836489  63.1041636
  80.5307791   5.6198097  63.6920946  75.6922281   6.2297421  68.4323242
  75.5407788   6.0007973  67.5153326  75.6826961   7.1868022  68.4454587
  72.4607618   3.8029334  63.4169508  73.3899678   3.9540493  63.2438476
  72.0398648   3.8913355  62.5618155  71.2595950   7.8279998  61.1868046
  71.1207035   7.4598783  62.0593984  70.4710546   8.3427638  61.0152004
  71.8544101  12.9289095  52.5293582  72.0295857  12.4577138  53.3439205
  71.1676890  13.5554861  52.7574843  72.8101165   7.2061601  58.5756884
  72.4750997   7.1662371  59.4714534  72.3105110   6.5406317  58.1027294
  66.7845409   2.6129231  64.1009465  66.6465207   1.8809470  64.7021004
  67.6950332   2.5238131  63.8193653  75.7460356   4.5517635  48.8493943
  75.1289527   3.8264463  48.7526996  75.2776845   5.3126995  48.5061018
  69.4127709   2.3249190  63.5893145  70.1227328   1.6842382  63.5479763
  69.3697017   2.5762085  64.5119325  77.4014488   9.2616544  66.5099724
  77.3427034   8.5775764  65.8430307  77.8034006  10.0035534  66.0580350
  68.1256643  -0.6885592  65.4088784  67.5894000  -1.1394853  66.0610380
  67.5373352  -0.5539683  64.6659248  66.4205187  16.0778457  59.3033443
  66.6601785  16.7096982  59.9812461  65.5774383  15.7266497  59.5898802
  67.5358902  -1.2296941  47.9715248  66.6588369  -1.3508140  47.6077494
  68.0116655  -2.0210862  47.7194136  77.4031895   7.2256127  64.7413703
  76.5158674   6.8882049  64.8640102  77.9730446   6.4939159  64.9782469
  59.0561042   3.5580219  58.0656755  59.7432082   3.2441949  57.4777770
  58.9009171   4.4621584  57.7924006  63.8595764  -1.5529584  62.4941778
  63.7753953  -2.1603915  61.7592188  63.0378471  -1.0620566  62.4951275
  70.7222828  11.1229350  55.2177768  69.9390350  11.6651030  55.3115993
  71.4215573  11.6403329  55.6172009  81.8849236   2.6364345  59.5030265
  81.8739112   3.5189060  59.1324198  81.0166615   2.2835896  59.3084802
  75.1149259   5.6895667  55.4350397  74.1805538   5.8097129  55.2655101
  75.2925928   4.7868133  55.1710407  70.6154447  -0.9258638  57.5883658
  70.2452235  -1.4787597  58.2764564  71.1113540  -1.5300504  57.0358658
  78.5021810   1.5312986  55.9700431  78.9682263   2.3640977  55.8960734
  78.9529311   1.0657967  56.6745690  68.4443646   9.5338857  64.6838676
  69.1453105  10.1675340  64.8368070  67.9738761   9.8753589  63.9234315
  76.5698042   7.8756807  52.9686583  76.8457885   7.7613402  53.8780457
  75.7002540   7.4774292  52.9298756  76.2444932   2.0883465  62.5091226
  75.5916382   2.3359372  61.8543679  76.6225312   1.2747603  62.1753704
  73.2052106  12.1243158  56.6119397  73.3874500  11.3064814  57.0747149
  74.0285092  12.3410850  56.1744287  73.5394271  11.0511343  53.8734445
  74.0682037  10.5403798  53.2604607  73.8022491  10.7353873  54.7379978
  72.2932505   2.8303276  68.9957264  71.6173142   2.7297405  69.6659639
  73.1160139   2.6742490  69.4593261  64.0411364   9.0675212  61.6169779
  64.6264801   8.3218900  61.7497683  63.8436202   9.3779169  62.5006443
  66.8950019  12.1026460  56.6332221  66.2260394  12.5872587  56.1496261
  66.7562889  12.3495680  57.5475600  58.6329018   1.6380813  60.3374222
  58.6713118   1.1044403  61.1311340  58.1269311   1.1116018  59.7185199
  66.0119781  -3.5154647  63.8336764  66.0761107  -2.6539816  63.4214162
  65.9486901  -4.1280645  63.1009123  65.4872053  -1.4431514  67.4809798
  66.1144092  -1.8254437  68.0947323  64.6299972  -1.6617312  67.8465491
  75.8866162   8.9631461  69.0863534  76.4306066   9.5761419  68.5918489
  75.3053007   9.5211039  69.6030547  62.2637596   0.3644915  53.4128153
  62.5591037  -0.5444407  53.3595207  61.3625632   0.3432654  53.0909156
  74.1723675  12.0852179  60.2178562  74.0474814  11.2841919  59.7089507
  74.8302766  12.5798372  59.7292532  65.7931843  -1.5599089  59.3955702
  65.0718429  -0.9463121  59.2563175  66.5825099  -1.0241324  59.3172348
  76.2358583   9.8861199  61.8458112  75.2888919   9.7666550  61.7736439
  76.5841356   8.9983697  61.9284373  68.5958157  -4.2244662  65.6696354
  69.1192558  -3.9782366  66.4322663  68.3770490  -3.3924627  65.2499491
  63.9925438  -1.9540988  53.5367478  63.6638144  -2.8343609  53.3542584
  64.3464808  -2.0093319  54.4243868  73.2405017   9.6813915  58.0462464
  73.0929979   8.7530623  58.2270034  74.0658510   9.7034006  57.5619539
  67.1067261  -1.6668018  53.9042956  67.4463333  -1.1382097  53.1821565
  67.5539381  -1.3287612  54.6801523  76.8439138  10.5042474  59.1327337
  77.7685686  10.2985335  58.9951788  76.6754442  10.2558875  60.0416678
  69.8010702  -3.2830967  63.3546024  69.4607522  -4.0823154  63.7566704
  69.0949708  -2.9829256  62.7822857  69.0935408  -3.1693396  52.1036249
  69.8143770  -2.7912143  51.5999966  68.4700712  -2.4504519  52.2071227
  73.2366531  -2.4648247  53.0394581  73.4530145  -1.5823609  52.7383409
  72.7560598  -2.8562034  52.3100223  67.9765752   0.4937466  59.6165326
  67.8310333   0.8077769  60.5089607  67.4990956   1.1122366  59.0636224
  69.8362135  -2.5159986  59.6646215  69.8223704  -3.4118893  59.3278513
  70.5534563  -2.5089322  60.2984501  71.6888266  -2.0822646  61.7099343
  71.4306044  -1.1605575  61.7083673  71.1573306  -2.4792211  62.3999807
  76.6334455  11.0228141  54.4889428  76.8071332  10.4574564  53.7363281
  77.1263346  11.8229036  54.3068918  62.4511414   3.0342810  62.5552987
  61.9064882   3.8102618  62.6873261  63.3290764   3.3813615  62.3972108
  69.2399031  -3.6345606  54.9333786  69.3614942  -4.5628960  55.1324673
  68.9501073  -3.6206920  54.0212101  82.4873846   3.7864564  56.1079728
  82.9304992   3.0371889  55.7098851  81.6100356   3.7774701  55.7253460
  77.6209627  10.3394906  51.5886326  78.3160532  10.9601598  51.8073641
  77.9632777   9.4890257  51.8638704  63.2377436   2.1612707  65.4483144
  62.4959172   2.3095342  66.0347774  62.9170181   2.4220972  64.5849893
  79.5201050   7.7894611  53.1173657  80.0452374   8.1281884  52.3922977
  79.4323403   6.8541627  52.9336792  71.2041711  13.8566595  57.4768910
  70.7646701  13.3642973  58.1701767  71.9549828  13.3139562  57.2360986
  63.6834050  10.0478135  57.4793539  64.5092070   9.7481907  57.0992182
  63.3328102   9.2785758  57.9283327  68.6515583   9.4004604  59.5491212
  68.0295592   8.7375309  59.2493440  69.3220450   9.4265735  58.8664860
  61.8842655   7.9664462  58.4382472  61.0474563   7.5386636  58.2566473
  61.8566300   8.1596905  59.3753263  68.7240111  -2.1213608  69.1423718
  68.7728266  -1.2451486  68.7601488  69.2662625  -2.6636215  68.5695361
  79.2094956   8.4227515  68.4224855  78.4190500   8.4051654  67.8829355
  78.9728311   8.9615809  69.1773892  79.3292831   5.2719981  65.7357584
  79.3790836   5.1069989  66.6773107  79.2206755   4.4047240  65.3455465
  68.2129090   7.9508527  53.0249673  68.3617210   8.6343991  52.3716345
  69.0195533   7.9313617  53.5399128  76.6196594   1.2550909  67.0516890
  77.5206456   1.1157374  66.7600888  76.6944568   1.4205364  67.9915068
  70.9539399  -1.3682236  65.8970077  70.0842708  -1.0748670  65.6252665
  71.1898879  -0.7841791  66.6177340  80.8311028   7.6916923  65.9799605
  80.5395836   8.0546903  66.8163066  80.2183159   6.9783931  65.8012937
  82.0306710   5.2569803  58.5002176  82.8653602   5.6959607  58.6639736
  82.1665839   4.7808456  57.6810421  79.0798216   2.8149537  64.4479663
  79.5552338   3.0077184  63.6398515  78.1563782   2.8708723  64.2023047
  65.9681723   3.9773705  54.0310742  65.7227765   3.0736035  54.2290952
  66.1377638   3.9790855  53.0890220  65.2377370  -0.2897938  51.5296903
  64.5446615  -0.2153583  50.8736939  64.9929122  -1.0537594  52.0518420
  71.7124496  10.4456657  50.4961420  71.1398463  11.0646845  50.0431892
  72.2857289  10.9956019  51.0301342  77.7799885  -0.3084703  62.6807969
  78.7317308  -0.2086605  62.7020193  77.6103336  -1.1006434  63.1906053
  74.9321755  10.7293808  51.6270002  75.8652428  10.6639369  51.8302878
  74.8444968  11.5650074  51.1684535  77.5609772  10.0459678  48.5873950
  77.4823403   9.7119541  49.4809708  78.3819439  10.5381446  48.5865422
  80.2587963   2.9121417  61.7950269  80.2264283   1.9737418  61.9809952
  80.8688587   2.9905454  61.0616093  72.0971294   1.7817470  47.8377473
  73.0430399   1.6523678  47.9065891  71.7185539   1.0432132  48.3146901
  86.0764513   3.9737424  60.9356305  86.8067901   3.7122712  61.4964009
  85.4671458   3.2366146  60.9758373  84.1579810   2.1145287  61.5330757
  83.4312974   1.9801252  60.9247248  83.7427097   2.4222115  62.3387475
  71.9809987   5.8335216  69.2978130  72.9012996   6.0113815  69.4918176
  71.9459570   4.8891262  69.1457829  70.2814211  -0.2932553  47.7732358
  69.3745667  -0.5899441  47.8495071  70.5590192  -0.5902735  46.9066644
  61.1992152   1.0273810  58.2231404  60.8794936   0.1739118  57.9305778
  60.6525580   1.2422388  58.9789372  64.9772059   3.7436251  61.9400911
  65.1958069   4.6753359  61.9588945  65.3897833   3.3844225  62.7255715
  69.8499924  -0.6830543  71.3303660  69.7496651   0.2663814  71.2615751
  69.6321466  -1.0112304  70.4579730  69.0512996  -3.4345618  47.9144337
  69.9132160  -3.1090720  48.1740154  69.2363340  -4.2214122  47.4017403
  61.0680412   4.6476721  60.1924526  60.3743883   4.2330674  59.6794480
  61.8153403   4.6897258  59.5957945  69.7131194   2.7466596  70.1468721
  69.2298276   3.5466956  70.3532610  69.7992133   2.7574540  69.1936165
  62.9817154   4.5794975  58.0690541  62.9587842   4.6782662  57.1172424
  63.2917791   5.4260126  58.3907707  65.6404532   6.6371130  62.1837155
  66.5947785   6.6055073  62.1167087  65.4417056   6.1761754  62.9987381
  66.2303914   5.2072246  64.7507953  67.0496803   5.7016325  64.7742790
  66.5040722   4.2904214  64.7225520  63.9954761  12.1790750  59.2007353
  63.8609229  11.4191151  58.6345351  63.5786823  12.9031650  58.7336142
  75.1313724   7.3627673  48.2083928  75.8349574   7.5677676  48.8241584
  74.4076373   7.9304435  48.4733012  75.9611534   3.1137535  54.3286198
  75.9046735   3.5706086  53.4893831  76.5139876   2.3528219  54.1509041
  84.0828678   1.6423340  57.6607609  83.5228236   1.7116529  58.4339171
  83.4772181   1.4664324  56.9407106  67.1523887  13.0760067  59.4125796
  67.0356271  14.0205499  59.3104486  66.3316333  12.7733628  59.8011595
  77.0400421   7.8010202  50.2582388  77.8746025   7.3691401  50.0759863
  76.8784764   7.6292216  51.1859283  76.6946313   4.3042316  51.6238728
  76.6395117   4.1386587  50.6827172  76.0692369   5.0118349  51.7800917
  61.4838828  -0.4589620  65.4500150  62.1297692  -0.9690666  65.9387375
  61.2755979   0.2779062  66.0243575  74.0092221   6.6091228  70.9492290
  74.8783380   6.7831880  70.5878925  73.5298972   7.4285644  70.8268020
  69.9332003  12.4819315  59.2891803  68.9827634  12.4821177  59.1756175
  70.2364489  11.7352050  58.7727837  65.8236319  -3.3122003  69.5475164
  66.6867781  -3.6685198  69.7578489  65.2501730  -3.6508108  70.2350568
  85.6684696  18.3179854  60.3537565  86.3063106  18.1986601  59.6500905
  85.5505539  19.2660698  60.4125517  80.1782682  17.0395529  49.6216030
  80.4308203  16.5177050  48.8599493  79.2407241  16.8761675  49.7242713
  85.2225965  16.0431307  57.4290773  86.0089054  15.6250731  57.0781190
  85.4864669  16.9477400  57.5972421  90.6234392  15.9806541  58.3323752
  91.3559564  15.4105757  58.5661581  89.8673748  15.5928141  58.7730257
  88.1459812   9.6928115  62.7918360  87.8143137  10.5623526  62.5679575
  87.5505426   9.3764399  63.4712391  81.8815999  13.4323682  50.5248443
  82.0490401  14.3003918  50.8918914  81.6913168  13.5950964  49.6009732
  88.0388476  14.4123201  59.8711710  87.1305353  14.3438609  59.5770471
  87.9876071  14.8895146  60.6993536  81.8605219  15.8881339  51.5095109
  81.7404845  16.3338390  52.3480590  81.1657808  16.2366657  50.9508648
  89.9050122  12.6139639  61.6489584  89.2624502  12.9072172  61.0029379
  89.4005050  12.4992560  62.4542781  87.5590286  16.3602812  52.3375443
  88.4708142  16.5930199  52.1623141  87.0499933  16.9439857  51.7750522
  85.3461569  13.3804415  65.0051467  85.1022501  14.1346476  64.4685742
  85.6221499  13.7589763  65.8398714  84.9026260  12.5360848  60.5865304
  84.0410739  12.8342102  60.8782042  84.9288695  12.7531247  59.6546337
  76.3496795  15.8254323  56.0629285  75.5527958  15.9373018  56.5812781
  76.1222387  16.1640976  55.1970176  96.5051852  19.1453732  58.2036061
  95.7515561  18.5761130  58.0480065  96.6399394  19.1116396  59.1506696
  78.3817820  10.0958714  70.5405136  77.9884766   9.5424912  71.2152780
  79.1983960  10.4069292  70.9311653  81.2985781  11.5116593  68.1325392
  82.0395494  12.1123746  68.0529855  81.5303704  10.7694231  67.5743435
  85.2442944   7.5397696  62.4089674  84.9007213   8.4299338  62.3328784
  85.6121907   7.3499354  61.5459259  85.2093227  17.5306307  50.9162109
  84.6939850  18.3010912  51.1550496  84.9370535  16.8571443  51.5395170
  82.7940338  12.3756008  55.9747347  81.9381934  11.9862858  55.7952986
  83.2067290  12.4547969  55.1147133  84.3239484   9.9102351  60.3738907
  83.8204280   9.8732486  59.5606712  84.6170091  10.8195094  60.4335564
  80.5682370   9.9941081  59.3805089  81.4335367   9.7983889  59.0210978
  80.6359879   9.7651433  60.3074446  84.9979530  15.4033399  52.7421890
  84.6929665  15.7179548  53.5932033  85.9509972  15.4814819  52.7849223
  78.1744689  12.2243289  56.7521456  78.7488441  12.0018470  56.0194649
  78.7615672  12.2931983  57.5050057  78.5014276  14.2547750  50.7717341
  77.6651589  14.5922436  51.0926616  78.3619046  14.1196730  49.8344478
  80.4767357   9.0984538  55.4796525  79.8231769   8.7833555  54.8553140
  80.4347831   8.4760278  56.2056348  81.5878562  19.3803833  47.3949817
  80.6805624  19.1493086  47.5940966  82.0849594  18.5841452  47.5823799
  84.4940145  16.9857887  54.9346853  85.2411964  17.4979284  54.6253975
  84.7631735  16.6641940  55.7951246  86.9418982  14.0215003  56.9165642
  86.2041739  13.5092389  57.2475885  87.1945756  13.5815385  56.1048919
  87.0430610   6.7991255  57.5107411  87.3489486   5.9388619  57.2233327
  87.7683214   7.3908875  57.3106405  79.2544049  15.7122108  55.7773981
  78.4411915  16.0116278  56.1839174  79.7503044  15.3177797  56.4948464
  84.8518261  16.1763932  64.6088875  85.2067649  16.4035406  65.4683341
  85.4990392  16.5082309  63.9866131  78.7458124  13.2840463  61.3935216
  79.3857503  13.1429223  60.6958180  77.9135655  12.9974977  61.0173818
  75.8301191  16.7285976  53.5829962  74.8998780  16.6670431  53.7999924
  75.9258663  16.2061928  52.7866603  75.7486741  13.2540788  56.1708203
  76.0093558  14.1686122  56.0617364  76.5703913  12.7865231  56.3204816
  83.1237238  11.2940487  65.3572689  82.4765153  11.9930436  65.2637165
  83.8938253  11.7276630  65.7248937  86.5854111  19.8809553  48.8493943
  85.9683281  19.1556381  48.7526996  86.1170599  20.6418913  48.5061018
  78.3752657  14.0994977  47.9715248  77.4982123  13.9783778  47.6077494
  78.8510410  13.3081055  47.7194136  84.8713233  12.2615897  57.8611974
  85.3681932  11.5085859  57.5413044  84.1000214  12.2980214  57.2955183
  87.3132228   9.2285490  60.0091332  86.3995307   9.4589717  60.1773539
  87.7425329   9.3123935  60.8605365  87.0838686  17.4175382  62.5091226
  86.4310136  17.6651290  61.8543679  87.4619066  16.6039521  62.1753704
  76.8513535  11.8137271  63.8336764  76.9154862  12.6752102  63.4214162
  76.7880656  11.2011272  63.1009123  73.1031351  15.6936832  53.4128153
  73.3984792  14.7847511  53.3595207  72.2019386  15.6724572  53.0909156
  76.6325598  13.7692829  59.3955702  75.9112183  14.3828797  59.2563175
  77.4218853  14.3050594  59.3172348  79.4351911  11.1047255  65.6696354
  79.9586313  11.3509552  66.4322663  79.2164244  11.9367290  65.2499491
  74.8319192  13.3750930  53.5367478  74.5031898  12.4948309  53.3542584
  75.1858563  13.3198599  54.4243868  77.9461015  13.6623900  53.9042956
  78.2857088  14.1909821  53.1821565  78.3933136  14.0004306  54.6801523
  80.6404456  12.0460951  63.3546024  80.3001276  11.2468764  63.7566704
  79.9343462  12.3462661  62.7822857  81.2920928   9.1310263  61.8073347
  82.1146997   8.6570741  61.6852238  81.5358991   9.9100747  62.3072034
  79.9329162  12.1598521  52.1036249  80.6537525  12.5379774  51.5999966
  79.3094467  12.8787398  52.2071227  84.0760285  12.8643670  53.0394581
  84.2923900  13.7468308  52.7383409  83.5954352  12.4729884  52.3100223
  80.0792786  11.6946312  54.9333786  80.2008697  10.7662958  55.1324673
  79.7894828  11.7084998  54.0212101  82.9483976   9.3801222  58.0700505
  82.9705673   9.4440555  57.1152485  83.3652035   8.5405731  58.2641012
  79.5633865  13.2078309  69.1423718  79.6122021  14.0840432  68.7601488
  80.1056379  12.6655702  68.5695361  90.0488711  23.7519433  68.4224855
  89.2584254  23.7343571  67.8829355  89.8122065  24.2907726  69.1773892
  84.4972187  10.1789299  63.4135497  85.0154131  10.9150326  63.0881986
  84.1427320  10.4853292  64.2482256  76.0771125  15.0393980  51.5296903
  75.3840370  15.1138335  50.8736939  75.8322877  14.2754323  52.0518420
  84.7484781   6.5989581  58.9336394  85.0286535   5.9312770  59.5596820
  85.5335388   6.7918677  58.4211058  88.6193640  15.0207215  62.6807969
  89.5711063  15.1205313  62.7020193  88.4497090  14.2285484  63.1906053
  86.6408019  12.1062798  62.8667370  86.0457951  12.3867811  62.1713858
  86.3557716  12.5956699  63.6384111  91.0981718  18.2413335  61.7950269
  91.0658038  17.3029336  61.9809952  91.7082341  18.3197372  61.0616093
  82.9365048  17.1109388  47.8377473  83.8824153  16.9815596  47.9065891
  82.5579293  16.3724050  48.3146901  91.2476206  15.0324378  61.8408552
  90.7315255  14.2482835  61.6538481  92.1316155  14.7043095  62.0055071
  88.9086933   8.7765394  57.8004364  88.7111754   8.4680482  58.6847696
  89.5186639   9.5027033  57.9302294  96.9158267  19.3029342  60.9356305
  97.6461656  19.0414630  61.4964009  96.3065213  18.5658064  60.9758373
  94.9973565  17.4437204  61.5330757  94.2706728  17.3093169  60.9247248
  94.5820851  17.7514033  62.3387475  81.1207966  15.0359364  47.7732358
  80.2139421  14.7392477  47.8495071  81.3983947  14.7389182  46.9066644
  82.7370031   9.5796254  53.9276599  81.9270760   9.2343339  54.3031845
  83.4254448   9.2703798  54.5164211  84.6660580   8.6574301  55.5500896
  85.2191618   9.0769754  56.2090919  84.9030666   7.7310049  55.5923852
  80.6893679  14.6461374  71.3303660  80.5890406  15.5955731  71.2615751
  80.4715221  14.3179613  70.4579730  79.8906750  11.8946299  47.9144337
  80.7525914  12.2201198  48.1740154  80.0757094  11.1077795  47.4017403
  88.0439387  10.7674826  55.0579560  87.4638056  11.4259630  54.6757612
  87.7775319   9.9452170  54.6466977  86.4942953  10.1679884  57.2600880
  86.9942731  10.2796418  56.4515199  87.1378561   9.8640936  57.9001689
  90.1778801  12.9521437  57.8290247  90.9539191  13.4417890  58.1014864
  89.4526935  13.3779491  58.2862117  92.6151360  13.6649056  58.8864188
  93.2095850  13.4244792  58.1757496  92.6877943  12.9456187  59.5137724
  86.8005289  18.4429452  54.3286198  86.7440490  18.8998004  53.4893831
  87.3533631  17.6820137  54.1509041  90.6110094  14.2319184  55.1536318
  90.3547029  13.8315820  55.9844526  89.9862962  14.9462978  55.0286457
  94.9222432  16.9715257  57.6607609  94.3621990  17.0408447  58.4339171
  94.3165936  16.7956242  56.9407106  80.8436193   9.1342342  51.2024046
  80.8314863  10.0784182  51.3592317  81.7359615   8.9512488  50.9083507
  84.6588313   5.7285119  55.4569983  83.8920709   5.1743606  55.6026665
  85.0699018   5.8006988  56.3184134  76.6630074  12.0169915  69.5475164
  77.5261535  11.6606720  69.7578489  76.0895484  11.6783810  70.2350568
 101.4628146  31.3098458  58.3323752 102.1953318  30.7397675  58.5661581
 100.7067502  30.9220059  58.7730257  98.9853567  25.0220032  62.7918360
  98.6536891  25.8915443  62.5679575  98.3899180  24.7056316  63.4712391
  98.8782230  29.7415119  59.8711710  97.9699107  29.6730527  59.5770471
  98.8269826  30.2187064  60.6993536  90.4605866  43.9876899  55.1585241
  90.3829896  44.9384724  55.2373721  89.8567510  43.6422771  55.8160167
 100.7443876  27.9431557  61.6489584 100.1018257  28.2364090  61.0029379
 100.2398805  27.8284477  62.4542781  96.1855323  28.7096333  65.0051467
  95.9416255  29.4638394  64.4685742  96.4615254  29.0881681  65.8398714
  99.2539614  38.1306901  61.8551090 100.0757058  37.7287088  61.5733771
  99.2502017  38.0275135  62.8067205 107.3445607  34.4745649  58.2036061
 106.5909315  33.9053047  58.0480065 107.4793148  34.4408314  59.1506696
  89.2211575  25.4250632  70.5405136  88.8278520  24.8716830  71.2152780
  90.0377715  25.7361210  70.9311653  92.1379536  26.8408511  68.1325392
  92.8789249  27.4415664  68.0529855  92.3697458  26.0986148  67.5743435
  96.4593949  40.2485418  66.0372524  96.4412425  41.0694299  65.5452793
  97.3813869  40.1239493  66.2622665  96.0486981  32.8598225  50.9162109
  95.5333605  33.6302829  51.1550496  95.7764290  32.1863361  51.5395170
 101.0221255  35.6130579  52.8515282 100.2450698  35.2741739  52.4070444
 101.7012736  35.6183202  52.1770247  99.2612562  35.0864561  59.5081890
  98.6036237  35.7763822  59.5962019 100.0652961  35.4760993  59.8515877
  98.0718021  33.4408933  57.5585832  98.5849903  34.0738925  58.0607542
  98.7219245  32.8410129  57.1929192  93.6060550  34.8108345  51.9173807
  92.6971769  34.5267378  52.0146277  93.6355634  35.2307424  51.0577114
  97.8824364  22.1283173  57.5107411  98.1883241  21.2680536  57.2233327
  98.6076969  22.7200793  57.3106405  93.3036638  36.3517089  49.2561886
  92.8656068  35.6352948  48.7967523  94.0447079  36.5793204  48.6946977
 101.4209752  34.6274286  55.3138204 101.2827651  34.8175882  54.3859394
 101.0645971  35.3893669  55.7706255 101.4479132  36.6950813  60.3249476
 101.8815639  36.6026102  61.1732530 102.1610713  36.6708313  59.6869492
 102.3094682  36.7374514  62.8582361 102.5030572  37.6420324  63.1041636
 102.2095300  36.2781933  63.6920946  97.3709790  36.8881256  68.4323242
  97.2195297  36.6591808  67.5153326  97.3614470  37.8451858  68.4454587
  93.5331610  43.5872930  52.5293582  93.7083366  43.1160973  53.3439205
  92.8464398  44.2138696  52.7574843  97.4247865  35.2101471  48.8493943
  96.8077036  34.4848299  48.7526996  96.9564354  35.9710831  48.5061018
  99.0801997  39.9200379  66.5099724  99.0214543  39.2359599  65.8430307
  99.4821515  40.6619369  66.0580350  89.2146411  29.4286895  47.9715248
  88.3375878  29.3075696  47.6077494  89.6904164  28.6372973  47.7194136
  99.0819404  37.8839963  64.7413703  98.1946183  37.5465885  64.8640102
  99.6517955  37.1522994  64.9782469 103.5636745  33.2948180  59.5030265
 103.5526621  34.1772896  59.1324198 102.6954124  32.9419731  59.3084802
 100.1809319  32.1896821  55.9700431 100.6469772  33.0224813  55.8960734
 100.6316820  31.7241803  56.6745690  98.1525982  24.5577408  60.0091332
  97.2389062  24.7881635  60.1773539  98.5819084  24.6415852  60.8605365
  97.9232441  32.7467300  62.5091226  97.2703891  32.9943208  61.8543679
  98.3012821  31.9331438  62.1753704  88.5737528  42.7610295  56.6332221
  87.9047903  43.2456423  56.1496261  88.4350398  43.0079516  57.5475600
  97.5653671  39.6215296  69.0863534  98.1093575  40.2345254  68.5918489
  96.9840516  40.1794875  69.6030547  97.9146092  40.5445034  61.8458112
  96.9676428  40.4250385  61.7736439  98.2628865  39.6567532  61.9284373
 104.1661355  34.4448400  56.1079728 104.6092501  33.6955725  55.7098851
 103.2887865  34.4358536  55.7253460 100.8882465  39.0811350  68.4224855
 100.0978009  39.0635489  67.8829355 100.6515820  39.6199644  69.1773892
 101.0080340  35.9303817  65.7357584 101.0578345  35.7653824  66.6773107
 100.8994264  35.0631076  65.3455465  89.8916599  38.6092362  53.0249673
  90.0404719  39.2927827  52.3716345  90.6983042  38.5897452  53.5399128
  98.2984103  31.9134745  67.0516890  99.1993965  31.7741209  66.7600888
  98.3732077  32.0789199  67.9915068 102.5098537  38.3500758  65.9799605
 102.2183345  38.7130739  66.8163066 101.8970668  37.6367766  65.8012937
 103.7094219  35.9153638  58.5002176 104.5441111  36.3543442  58.6639736
 103.8453348  35.4392291  57.6810421 100.7585725  33.4733373  64.4479663
 101.2339847  33.6661019  63.6398515  99.8351291  33.5292559  64.2023047
  93.3912004  41.1040493  50.4961420  92.8185972  41.7230680  50.0431892
  93.9644798  41.6539854  51.0301342  99.4587394  30.3499133  62.6807969
 100.4104817  30.4497230  62.7020193  99.2890845  29.5577401  63.1906053
  97.4801774  27.4354716  62.8667370  96.8851706  27.7159729  62.1713858
  97.1951471  27.9248617  63.6384111 101.9375472  33.5705253  61.7950269
 101.9051792  32.6321253  61.9809952 102.5476096  33.6489289  61.0616093
  93.7758803  32.4401305  47.8377473  94.7217908  32.3107514  47.9065891
  93.3973048  31.7015967  48.3146901 102.0869961  30.3616296  61.8408552
 101.5709009  29.5774753  61.6538481 102.9709909  30.0335013  62.0055071
  99.7480688  24.1057312  57.8004364  99.5505509  23.7972400  58.6847696
 100.3580393  24.8318950  57.9302294 107.7552022  34.6321259  60.9356305
 108.4855410  34.3706547  61.4964009 107.1458967  33.8949981  60.9758373
 105.8367319  32.7729122  61.5330757 105.1100483  32.6385087  60.9247248
 105.4214606  33.0805951  62.3387475  91.9601720  30.3651282  47.7732358
  91.0533176  30.0684395  47.8495071  92.2377701  30.0681100  46.9066644
 101.0172555  28.2813355  57.8290247 101.7932946  28.7709807  58.1014864
 100.2920690  28.7071409  58.2862117 103.4545114  28.9940974  58.8864188
 104.0489605  28.7536710  58.1757496 103.5271698  28.2748105  59.5137724
  96.8101233  38.0211509  48.2083928  97.5137083  38.2261511  48.8241584
  96.0863881  38.5888271  48.4733012  97.6399043  33.7721370  54.3286198
  97.5834244  34.2289921  53.4893831  98.1927385  33.0112054  54.1509041
 101.4503849  29.5611102  55.1536318 101.1940783  29.1607737  55.9844526
 100.8256717  30.2754896  55.0286457 105.7616187  32.3007175  57.6607609
 105.2015745  32.3700364  58.4339171 105.1559690  32.1248160  56.9407106
  98.3733822  34.9626151  51.6238728  98.3182626  34.7970423  50.6827172
  97.7479878  35.6702184  51.7800917  95.6879729  37.2675063  70.9492290
  96.5570889  37.4415715  70.5878925  95.2086481  38.0869480  70.8268020
 112.3021901  46.6390376  58.3323752 113.0347073  46.0689593  58.5661581
 111.5461257  46.2511976  58.7730257 109.8247321  40.3511950  62.7918360
 109.4930646  41.2207361  62.5679575 109.2292935  40.0348234  63.4712391
 109.7175985  45.0707036  59.8711710 108.8092862  45.0022445  59.5770471
 109.6663580  45.5478981  60.6993536 111.5837631  43.2723475  61.6489584
 110.9412011  43.5656008  61.0029379 111.0792559  43.1576395  62.4542781
 109.2377795  47.0186648  52.3375443 110.1495651  47.2514035  52.1623141
 108.7287442  47.6023692  51.7750522 107.0249078  44.0388251  65.0051467
 106.7810009  44.7930311  64.4685742 107.3009008  44.4173598  65.8398714
 106.5813769  43.1944684  60.5865304 105.7198248  43.4925937  60.8782042
 106.6076204  43.4115083  59.6546337 118.1839361  49.8037567  58.2036061
 117.4303070  49.2344965  58.0480065 118.3186903  49.7700232  59.1506696
 100.0605329  40.7542549  70.5405136  99.6672275  40.2008748  71.2152780
 100.8771469  41.0653128  70.9311653 102.9773290  42.1700428  68.1325392
 103.7183003  42.7707581  68.0529855 103.2091213  41.4278066  67.5743435
 106.9230453  38.1981531  62.4089674 106.5794722  39.0883173  62.3328784
 107.2909416  38.0083189  61.5459259 106.0026993  40.5686186  60.3738907
 105.4991789  40.5316322  59.5606712 106.2957600  41.4778929  60.4335564
 102.2469879  40.6524916  59.3805089 103.1122876  40.4567725  59.0210978
 102.3147388  40.4235268  60.3074446 102.1554866  39.7568373  55.4796525
 101.5019278  39.4417390  54.8553140 102.1135340  39.1344113  56.2056348
 108.6206491  44.6798838  56.9165642 107.8829248  44.1676225  57.2475885
 108.8733265  44.2399220  56.1048919 108.7218119  37.4575090  57.5107411
 109.0276995  36.5972454  57.2233327 109.4470723  38.0492711  57.3106405
 104.8024747  41.9524322  65.3572689 104.1552662  42.6514272  65.2637165
 105.5725762  42.3860466  65.7248937 106.5500742  42.9199732  57.8611974
 107.0469441  42.1669695  57.5413044 105.7787723  42.9564049  57.2955183
 114.4030499  48.6240098  59.5030265 114.3920375  49.5064813  59.1324198
 113.5347879  48.2711649  59.3084802 111.0203074  47.5188739  55.9700431
 111.4863526  48.3516730  55.8960734 111.4710574  47.0533720  56.6745690
 108.9919737  39.8869326  60.0091332 108.0782816  40.1173553  60.1773539
 109.4212838  39.9707770  60.8605365 101.1139420  41.7631091  65.6696354
 101.6373822  42.0093387  66.4322663 100.8951753  42.5951126  65.2499491
  96.5106701  44.0334765  53.5367478  96.1819407  43.1532144  53.3542584
  96.8646072  43.9782434  54.4243868 102.9708437  39.7894098  61.8073347
 103.7934506  39.3154577  61.6852238 103.2146500  40.5684582  62.3072034
 104.6271485  40.0385058  58.0700505 104.6493182  40.1024391  57.1152485
 105.0439544  39.1989566  58.2641012 101.2421374  43.8662145  69.1423718
 101.2909530  44.7424267  68.7601488 101.7843888  43.3239538  68.5695361
 106.1759696  40.8373134  63.4135497 106.6941640  41.5734161  63.0881986
 105.8214829  41.1437127  64.2482256 106.4272290  37.2573417  58.9336394
 106.7074044  36.5896606  59.5596820 107.2122897  37.4502512  58.4211058
 108.3195528  42.7646634  62.8667370 107.7245460  43.0451646  62.1713858
 108.0345225  43.2540535  63.6384111 112.9263715  45.6908214  61.8408552
 112.4102764  44.9066670  61.6538481 113.8103664  45.3626930  62.0055071
 110.5874442  39.4349229  57.8004364 110.3899263  39.1264317  58.6847696
 111.1974148  40.1610868  57.9302294 118.5945776  49.9613177  60.9356305
 119.3249165  49.6998465  61.4964009 117.9852722  49.2241899  60.9758373
 116.6761074  48.1021040  61.5330757 115.9494237  47.9677005  60.9247248
 116.2608360  48.4097868  62.3387475 104.4157540  40.2380089  53.9276599
 103.6058269  39.8927174  54.3031845 105.1041957  39.9287633  54.5164211
 106.3448089  39.3158136  55.5500896 106.8979127  39.7353589  56.2090919
 106.5818175  38.3893884  55.5923852 102.3681188  45.3045210  71.3303660
 102.2677915  46.2539567  71.2615751 102.1502730  44.9763449  70.4579730
 109.7226896  41.4258661  55.0579560 109.1425565  42.0843465  54.6757612
 109.4562828  40.6036006  54.6466977 108.1730462  40.8263719  57.2600880
 108.6730240  40.9380253  56.4515199 108.8166070  40.5224772  57.9001689
 108.5051774  43.5858752  54.1135908 107.6177629  43.8708402  53.8956103
 108.9205763  43.4252515  53.2663185 111.8566310  43.6105273  57.8290247
 112.6326700  44.1001725  58.1014864 111.1314444  44.0363327  58.2862117
 114.2938869  44.3232892  58.8864188 114.8883359  44.0828628  58.1757496
 114.3665452  43.6040022  59.5137724 112.2897603  44.8903019  55.1536318
 112.0334538  44.4899655  55.9844526 111.6650471  45.6046813  55.0286457
 116.6009941  47.6299093  57.6607609 116.0409499  47.6992282  58.4339171
 115.9953445  47.4540077  56.9407106 106.3375822  36.3868954  55.4569983
 105.5708218  35.8327441  55.6026665 106.7486527  36.4590823  56.3184134
  98.3417583  42.6753750  69.5475164  99.2049044  42.3190555  69.7578489
  97.7682993  42.3367645  70.2350568 118.1865960  64.3055607  60.3537565
 118.8244370  64.1862354  59.6500905 118.0686803  65.2536451  60.4125517
 116.4342040  69.7789479  51.5910446 115.7830020  70.3643559  51.2044459
 117.2286403  70.3095674  51.6505483 110.3597668  66.8678616  51.9897580
 111.1328544  66.3207603  51.8510456 110.7123066  67.7322865  52.2012041
 117.9117306  67.4679911  52.1279430 117.2763139  67.5414537  52.8400335
 117.5814712  68.0573510  51.4498509 123.1415655  61.9682294  58.3323752
 123.8740827  61.3981510  58.5661581 122.3855011  61.5803894  58.7730257
 120.6641076  55.6803868  62.7918360 120.3324400  56.5499279  62.5679575
 120.0686689  55.3640152  63.4712391 120.5569739  60.3998954  59.8711710
 119.6486616  60.3314362  59.5770471 120.5057335  60.8770899  60.6993536
 114.6310605  61.8188600  67.8146608 113.8543939  62.3782520  67.8049472
 115.2701168  62.3045382  68.3361478 122.4231385  58.6015392  61.6489584
 121.7805766  58.8947925  61.0029379 121.9186314  58.4868313  62.4542781
 118.3612317  66.7703193  65.9736736 118.7695673  66.3285604  65.2291368
 117.6389578  66.1955821  66.2270929 118.6841131  67.3304384  59.7289025
 118.0549994  67.4950098  59.0265093 118.2966793  67.7445994  60.4999989
 122.5630363  68.2658822  57.0833389 121.8781401  68.6457723  56.5330422
 122.6474213  68.8754148  57.8165336 117.8642832  59.3680168  65.0051467
 117.6203764  60.1222229  64.4685742 118.1402763  59.7465516  65.8398714
 119.8181295  65.9118781  63.6828732 120.0298190  66.5550541  63.0063113
 119.7711043  65.0781097  63.2150662 117.4207524  58.5236601  60.5865304
 116.5592003  58.8217855  60.8782042 117.4469958  58.7407000  59.6546337
 129.0233116  65.1329485  58.2036061 128.2696824  64.5636883  58.0480065
 129.1580657  65.0992149  59.1506696 117.7274490  63.5182060  50.9162109
 117.2121114  64.2886665  51.1550496 117.4551799  62.8447196  51.5395170
 122.7008764  66.2714415  52.8515282 121.9238207  65.9325574  52.4070444
 123.3800245  66.2767038  52.1770247 120.9400071  65.7448396  59.5081890
 120.2823746  66.4347657  59.5962019 121.7440470  66.1344828  59.8515877
 114.1059825  65.3679586  47.3949817 113.1986887  65.1368839  47.5940966
 114.6030857  64.5717205  47.5823799 117.0127904  74.0777093  50.3146503
 116.3389603  74.3808790  50.9231461 117.3993726  74.8806173  49.9651960
 116.2286361  61.5742224  59.8044173 115.3108922  61.7957171  59.6465861
 116.6446505  61.6488535  58.9455880 120.5167326  69.0798770  55.6864975
 120.0629653  68.2389680  55.7430165 119.8861293  69.7160168  56.0239755
 118.9600266  70.9175267  56.6214793 119.2523240  71.4780324  55.9027159
 119.4698886  71.2103828  57.3767952 119.5611873  52.7867008  57.5107411
 119.8670750  51.9264372  57.2233327 120.2864478  53.3784628  57.3106405
 114.9824147  67.0100924  49.2561886 114.5443577  66.2936783  48.7967523
 115.7234588  67.2377039  48.6946977 117.3699524  62.1639685  64.6088875
 117.7248912  62.3911159  65.4683341 118.0171656  62.4958062  63.9866131
 123.0997261  65.2858121  55.3138204 122.9615160  65.4759717  54.3859394
 122.7433480  66.0477504  55.7706255 123.1266641  67.3534648  60.3249476
 123.5603148  67.2609937  61.1732530 123.8398222  67.3292149  59.6869492
 123.9882191  67.3958349  62.8582361 124.1818081  68.3004159  63.1041636
 123.8882809  66.9365768  63.6920946 119.0497299  67.5465092  68.4323242
 118.8982806  67.3175643  67.5153326 119.0401979  68.5035693  68.4454587
 115.2119119  74.2456765  52.5293582 115.3870875  73.7744809  53.3439205
 114.5251907  74.8722532  52.7574843 119.1035374  65.8685306  48.8493943
 118.4864545  65.1432134  48.7526996 118.6351863  66.6294666  48.5061018
 120.7606913  68.5423798  64.7413703 119.8733692  68.2049720  64.8640102
 121.3305464  67.8106829  64.9782469 125.2424254  63.9532016  59.5030265
 125.2314130  64.8356731  59.1324198 124.3741633  63.6003566  59.3084802
 121.8596828  62.8480657  55.9700431 122.3257281  63.6808648  55.8960734
 122.3104329  62.3825638  56.6745690 119.9273059  69.1924478  52.9686583
 120.2032903  69.0781072  53.8780457 119.0577558  68.7941963  52.9298756
 119.8313491  55.2161244  60.0091332 118.9176571  55.4465470  60.1773539
 120.2606593  55.2999688  60.8605365 119.6019950  63.4051135  62.5091226
 118.9491400  63.6527043  61.8543679 119.9800330  62.5915274  62.1753704
 116.8969289  72.3679014  53.8734445 117.4257055  71.8571468  53.2604607
 117.1597509  72.0521544  54.7379978 115.6507523  64.1470947  68.9957264
 114.9748160  64.0465076  69.6659639 116.4735157  63.9910160  69.4593261
 119.2441180  70.2799131  69.0863534 119.7881084  70.8929090  68.5918489
 118.6628025  70.8378710  69.6030547 120.2014156  71.8210145  59.1327337
 121.1260704  71.6153006  58.9951788 120.0329460  71.5726546  60.0416678
 115.0463284  59.2345025  61.7099343 114.7881062  60.1562096  61.7083673
 114.5148324  58.8375459  62.3999807 119.9909473  72.3395812  54.4889428
 120.1646350  71.7742234  53.7363281 120.4838364  73.1396707  54.3068918
 125.8448864  65.1032235  56.1079728 126.2880010  64.3539560  55.7098851
 124.9675374  65.0942371  55.7253460 120.9784645  71.6562576  51.5886326
 121.6735550  72.2769269  51.8073641 121.3207795  70.8057928  51.8638704
 122.8776068  69.1062282  53.1173657 123.4027392  69.4449555  52.3922977
 122.7898421  68.1709297  52.9336792 122.5669974  69.7395186  68.4224855
 121.7765518  69.7219324  67.8829355 122.3303329  70.2783479  69.1773892
 122.6867849  66.5887652  65.7357584 122.7365854  66.4237659  66.6773107
 122.5781773  65.7214911  65.3455465 111.5704108  69.2676198  53.0249673
 111.7192228  69.9511662  52.3716345 112.3770551  69.2481288  53.5399128
 119.9771612  62.5718580  67.0516890 120.8781474  62.4325045  66.7600888
 120.0519586  62.7373035  67.9915068 124.1886046  69.0084593  65.9799605
 123.8970854  69.3714574  66.8163066 123.5758177  68.2951602  65.8012937
 125.3881728  66.5737473  58.5002176 126.2228620  67.0127277  58.6639736
 125.5240857  66.0976126  57.6810421 122.4373234  64.1317208  64.4479663
 122.9127356  64.3244854  63.6398515 121.5138800  64.1876394  64.2023047
 117.0153451  56.1665052  63.4135497 117.5335395  56.9026079  63.0881986
 116.6608584  56.4729045  64.2482256 115.0699513  71.7624328  50.4961420
 114.4973481  72.3814515  50.0431892 115.6432307  72.3123690  51.0301342
 121.1374903  61.0082968  62.6807969 122.0892326  61.1081066  62.7020193
 120.9678354  60.2161237  63.1906053 119.1589283  58.0938551  62.8667370
 118.5639215  58.3743564  62.1713858 118.8738979  58.5832452  63.6384111
 118.2896773  72.0461478  51.6270002 119.2227446  71.9807040  51.8302878
 118.2019986  72.8817745  51.1684535 120.9184790  71.3627349  48.5873950
 120.8398421  71.0287212  49.4809708 121.7394457  71.8549116  48.5865422
 123.6162981  64.2289088  61.7950269 123.5839301  63.2905089  61.9809952
 124.2263605  64.3073125  61.0616093 115.4546312  63.0985141  47.8377473
 116.4005417  62.9691349  47.9065891 115.0760557  62.3599803  48.3146901
 123.7657470  61.0200131  61.8408552 123.2496518  60.2358588  61.6538481
 124.6497418  60.6918848  62.0055071 121.4268197  54.7641147  57.8004364
 121.2293018  54.4556235  58.6847696 122.0367902  55.4902786  57.9302294
 129.4339531  65.2905095  60.9356305 130.1642919  65.0290383  61.4964009
 128.8246476  64.5533817  60.9758373 127.5154828  63.4312957  61.5330757
 126.7887992  63.2968922  60.9247248 127.1002115  63.7389786  62.3387475
 115.3385005  67.1502887  69.2978130 116.2588014  67.3281486  69.4918176
 115.3034588  66.2058932  69.1457829 120.5620650  56.7550579  55.0579560
 119.9819319  57.4135383  54.6757612 120.2956583  55.9327924  54.6466977
 119.0124217  56.1555637  57.2600880 119.5123995  56.2672171  56.4515199
 119.6559825  55.8516689  57.9001689 122.6960064  58.9397190  57.8290247
 123.4720454  59.4293643  58.1014864 121.9708199  59.3655244  58.2862117
 125.1332623  59.6524809  58.8864188 125.7277114  59.4120545  58.1757496
 125.2059207  58.9331940  59.5137724 118.4888742  68.6795344  48.2083928
 119.1924592  68.8845346  48.8241584 117.7651390  69.2472106  48.4733012
 123.1291358  60.2194937  55.1536318 122.8728292  59.8191573  55.9844526
 122.5044226  60.9338731  55.0286457 127.4403696  62.9591010  57.6607609
 126.8803254  63.0284200  58.4339171 126.8347199  62.7831995  56.9407106
 120.3975439  69.1177873  50.2582388 121.2321043  68.6859072  50.0759863
 120.2359782  68.9459887  51.1859283 120.0521331  65.6209986  51.6238728
 119.9970135  65.4554258  50.6827172 119.4267387  66.3286019  51.7800917
 117.3667238  67.9258898  70.9492290 118.2358398  68.0999551  70.5878925
 116.8873990  68.7453315  70.8268020 129.0259714  79.6347524  60.3537565
 129.6638124  79.5154272  59.6500905 128.9080557  80.5828368  60.4125517
 125.8349420  79.5874952  60.2899090 125.4967932  79.4716017  59.4019625
 126.7039189  79.1866117  60.2700096 121.6936236  81.4410429  56.2795981
 121.1301101  81.3500366  55.5112268 121.5788631  80.6210333  56.7598473
 126.3169203  80.7409804  66.2485295 126.3057844  80.3462602  65.3765799
 126.4789843  80.0075877  66.8419067 119.2400668  82.9361620  59.1180201
 120.0321960  82.5952445  58.7026500 119.4797318  83.0456595  60.0382354
 127.2735795  85.1081396  51.5910446 126.6223775  85.6935477  51.2044459
 128.0680158  85.6387591  51.6505483 121.1991422  82.1970534  51.9897580
 121.9722298  81.6499521  51.8510456 121.5516821  83.0614783  52.2012041
 123.0376465  83.5246916  65.1964479 122.7466331  84.4292547  65.0811146
 123.6733449  83.5663444  65.9108549 123.9632671  80.9023764  61.7865839
 124.5596244  80.6779787  61.0722802 124.0207643  80.1608510  62.3891287
 123.5357700  78.3563200  49.6216030 123.7883221  77.8344721  48.8599493
 122.5982259  78.1929345  49.7242713 128.5800983  77.3598978  57.4290773
 129.3664072  76.9418401  57.0781190 128.8439687  78.2645070  57.5972421
 128.7511060  82.7971828  52.1279430 128.1156893  82.8706455  52.8400335
 128.4208466  83.3865427  51.4498509 133.9809410  77.2974211  58.3323752
 134.7134582  76.7273428  58.5661581 133.2248766  76.9095812  58.7730257
 123.2553989  80.2591306  51.8240405 123.1390247  79.5836209  52.4921489
 123.3656249  79.7723680  51.0072558 125.5985530  79.7201453  55.5287094
 125.2343737  79.1932074  56.2400016 126.4552645  79.3299922  55.3553579
 131.5034830  71.0095785  62.7918360 131.1718155  71.8791196  62.5679575
 130.9080444  70.6932069  63.4712391 125.2391017  74.7491353  50.5248443
 125.4065419  75.6171589  50.8918914 125.0488186  74.9118634  49.6009732
 127.9966350  83.2108331  62.1914273 127.6967073  84.1133370  62.0830080
 127.6517409  82.9440515  63.0435426 121.4478831  79.6622128  58.2250977
 120.5229328  79.5298342  58.4328669 121.6963244  80.4416348  58.7220920
 131.3963493  75.7290872  59.8711710 130.4880371  75.6606280  59.5770471
 131.3451089  76.2062817  60.6993536 125.2180237  77.2049010  51.5095109
 125.0979863  77.6506061  52.3480590 124.5232826  77.5534328  50.9508648
 118.8087642  79.3055402  59.0594766 118.9380023  79.5589881  59.9734178
 118.1285094  79.8983110  58.7399421 122.9787130  89.9752652  55.1585241
 122.9011159  90.9260477  55.2373721 122.3748773  89.6298524  55.8160167
 125.4704359  77.1480517  67.8146608 124.6937693  77.7074437  67.8049472
 126.1094922  77.6337300  68.3361478 133.2625140  73.9307310  61.6489584
 132.6199520  74.2239843  61.0029379 132.7580068  73.8160230  62.4542781
 130.9165304  77.6770483  52.3375443 131.8283160  77.9097870  52.1623141
 130.4074951  78.2607527  51.7750522 123.7250732  79.9565971  67.3764575
 124.4665416  80.4951015  67.0999398 123.0187717  80.5832259  67.5336126
 129.2006071  82.0995111  65.9736736 129.6089427  81.6577522  65.2291368
 128.4783333  81.5247739  66.2270929 125.5537141  77.0367718  63.3470293
 126.3998336  77.4607131  63.4904942 125.4935779  76.3801342  64.0408856
 129.5234886  82.6596302  59.7289025 128.8943748  82.8242016  59.0265093
 129.1360548  83.0737911  60.4999989 133.4024118  83.5950739  57.0833389
 132.7175156  83.9749641  56.5330422 133.4867967  84.2046066  57.8165336
 128.7036587  74.6972086  65.0051467 128.4597518  75.4514147  64.4685742
 128.9796517  75.0757434  65.8398714 130.6575049  81.2410699  63.6828732
 130.8691945  81.8842458  63.0063113 130.6104798  80.4073015  63.2150662
 128.2601278  73.8528519  60.5865304 127.3985757  74.1509773  60.8782042
 128.2863713  74.0698918  59.6546337 125.0762848  82.3970710  56.9939110
 125.5401193  82.6758413  56.2043732 124.8119646  81.4954154  56.8112201
 121.9686929  81.9442191  59.9318873 122.5388286  82.3729460  59.2936358
 122.5595041  81.6624776  60.6303059 124.0131734  78.5193862  53.8028675
 124.7155777  78.9714906  54.2702601 123.6812362  77.8777681  54.4308568
 122.4612095  77.1105619  68.1779885 121.8310756  77.7921900  68.4115281
 122.3548183  76.9988700  67.2333023 131.7720877  84.1182654  61.8551090
 132.5938321  83.7162841  61.5733771 131.7683280  84.0150888  62.8067205
 119.7071813  77.1421994  56.0629285 118.9102976  77.2540688  56.5812781
 119.4797405  77.4808646  55.1970176 125.5377481  83.6666697  64.0111800
 125.6021913  84.1287104  64.8469972 124.8288405  83.0364062  64.1394110
 139.8626870  80.4621402  58.2036061 139.1090579  79.8928800  58.0480065
 139.9974412  80.4284067  59.1506696 125.2525498  85.3334805  53.8790780
 125.1171173  86.1786340  54.3075628 125.7935311  85.5354082  53.1156714
 121.7392838  71.4126385  70.5405136 121.3459784  70.8592583  71.2152780
 122.5558978  71.7236963  70.9311653 118.7054896  82.8510243  54.4518705
 119.2179416  83.6453493  54.6024270 119.3577609  82.1536533  54.3852307
 120.5149781  85.9675999  56.5341459 120.6916409  86.8893964  56.3462443
 121.3106614  85.6534418  56.9635838 124.6560799  72.8284264  68.1325392
 125.3970512  73.4291417  68.0529855 124.8878722  72.0861901  67.5743435
 119.8002137  78.0140631  66.4103622 119.6855652  77.1125888  66.7110721
 118.9446655  78.2604328  66.0588438 126.8793975  85.9558371  68.0091122
 126.4357829  85.1694750  67.6912027 127.5411188  86.1437522  67.3435013
 121.6381096  87.4854173  62.5351801 122.1888521  87.3571236  61.7628795
 120.7992572  87.7849062  62.1846694 128.9775213  86.2361171  66.0372524
 128.9593688  87.0570052  65.5452793 129.8995133  86.1115246  66.2622665
 125.4348267  83.7505301  66.8796032 125.9676604  82.9893589  66.6495340
 124.9062348  83.4578952  67.6220187 128.6017962  68.8565367  62.4089674
 128.2582231  69.7467008  62.3328784 128.9696925  68.6667024  61.5459259
 128.5668245  78.8473978  50.9162109 128.0514868  79.6178582  51.1550496
 128.2945553  78.1739114  51.5395170 126.1515356  73.6923678  55.9747347
 125.2956952  73.3030529  55.7952986 126.5642308  73.7715639  55.1147133
 127.6814502  71.2270022  60.3738907 127.1779298  71.1900157  59.5606712
 127.9745109  72.1362764  60.4335564 123.9257388  71.3108751  59.3805089
 124.7910385  71.1151560  59.0210978 123.9934897  71.0819103  60.3074446
 133.5402519  81.6006332  52.8515282 132.7631962  81.2617492  52.4070444
 134.2194000  81.6058956  52.1770247 128.3554548  76.7201070  52.7421890
 128.0504683  77.0347219  53.5932033 129.3084990  76.7982490  52.7849223
 126.8000980  82.8791293  54.3914844 126.2722341  82.1444053  54.0788082
 126.2988482  83.6565969  54.1454812 131.7793826  81.0740314  59.5081890
 131.1217500  81.7639575  59.5962019 132.5834225  81.4636746  59.8515877
 121.5319707  73.5410959  56.7521456 122.1063459  73.3186141  56.0194649
 122.1190690  73.6099654  57.5050057 130.5899285  79.4284686  57.5585832
 131.1031166  80.0614678  58.0607542 131.2400508  78.8285882  57.1929192
 121.8589294  75.5715420  50.7717341 121.0226607  75.9090107  51.0926616
 121.7194064  75.4364400  49.8344478 123.8342375  70.4152208  55.4796525
 123.1806787  70.1001225  54.8553140 123.7922849  69.7927949  56.2056348
 124.9453580  80.6971503  47.3949817 124.0380642  80.4660757  47.5940966
 125.4424612  79.9009123  47.5823799 127.8521659  89.4069011  50.3146503
 127.1783358  89.7100707  50.9231461 128.2387481  90.2098091  49.9651960
 127.0680115  76.9034142  59.8044173 126.1502677  77.1249089  59.6465861
 127.4840259  76.9780452  58.9455880 127.8515163  78.3025558  54.9346853
 128.5986982  78.8146955  54.6253975 128.1206753  77.9809610  55.7951246
 126.1241813  80.7984098  51.9173807 125.2153033  80.5143131  52.0146277
 126.1536897  81.2183177  51.0577114 131.3561081  84.4090688  55.6864975
 130.9023408  83.5681598  55.7430165 130.7255047  85.0452086  56.0239755
 130.2994000  75.3382674  56.9165642 129.5616757  74.8260060  57.2475885
 130.5520774  74.8983055  56.1048919 129.7994020  86.2467184  56.6214793
 130.0916994  86.8072242  55.9027159 130.3092641  86.5395745  57.3767952
 130.4005628  68.1158926  57.5107411 130.7064504  67.2556289  57.2233327
 131.1258232  68.7076546  57.3106405 116.6929984  78.5189612  55.8989009
 116.4954384  77.9258973  55.1740076 116.1376648  78.2141823  56.6164948
 124.6726707  78.4112719  58.0183603 124.7275317  77.4586555  57.9426079
 123.8617909  78.5672158  58.5024901 125.8217901  82.3392842  49.2561886
 125.3837331  81.6228701  48.7967523 126.5628342  82.5668957  48.6946977
 122.6119067  77.0289779  55.7773981 121.7986933  77.3283949  56.1839174
 123.1078061  76.6345467  56.4948464 124.7627645  87.0247536  57.7108246
 124.7203824  87.2508382  56.7816778 125.6790344  86.7910910  57.8594047
 128.2093279  77.4931603  64.6088875 128.5642667  77.7203076  65.4683341
 128.8565410  77.8249980  63.9866131 133.9391016  80.6150039  55.3138204
 133.8008915  80.8051635  54.3859394 133.5827235  81.3769422  55.7706255
 133.9660396  82.6826566  60.3249476 134.3996902  82.5901855  61.1732530
 134.6791976  82.6584066  59.6869492 122.8793446  83.9010565  57.5070209
 123.6734044  83.4060885  57.3052784 122.1685138  83.3728428  57.1437914
 127.6988290  86.2828660  61.8582576 127.7525313  86.8519596  62.6260292
 126.8303072  86.4530545  61.4936614 119.1876209  78.0453646  53.5829962
 118.2573798  77.9838102  53.7999924 119.2833681  77.5229599  52.7866603
 119.1061758  74.5708459  56.1708203 119.3668576  75.4853792  56.0617364
 119.9278931  74.1032902  56.3204816 134.8275945  82.7250267  62.8582361
 135.0211835  83.6296077  63.1041636 134.7276563  82.2657686  63.6920946
 126.4812256  72.6108157  65.3572689 125.8340171  73.3098107  65.2637165
 127.2513271  73.0444301  65.7248937 129.8891054  82.8757009  68.4323242
 129.7376560  82.6467561  67.5153326 129.8795733  83.8327611  68.4454587
 126.6576390  80.4488922  63.4169508 127.5868450  80.6000082  63.2438476
 126.2367420  80.5372943  62.5618155 125.4564722  84.4739587  61.1868046
 125.3175808  84.1058371  62.0593984 124.6679318  84.9887226  61.0152004
 126.0512874  89.5748683  52.5293582 126.2264630  89.1036726  53.3439205
 125.3645662  90.2014449  52.7574843 127.0069937  83.8521189  58.5756884
 126.6719770  83.8121959  59.4714534 126.5073883  83.1865905  58.1027294
 120.9814181  79.2588819  64.1009465 120.8433979  78.5269058  64.7021004
 121.8919105  79.1697719  63.8193653 129.9429129  81.1977224  48.8493943
 129.3258299  80.4724052  48.7526996 129.4745617  81.9586584  48.5061018
 123.6096482  78.9708779  63.5893145 124.3196100  78.3301971  63.5479763
 123.5665790  79.2221673  64.5119325 131.5983260  85.9076132  66.5099724
 131.5395807  85.2235352  65.8430307 132.0002779  86.6495122  66.0580350
 120.6173959  92.7238046  59.3033443 120.8570557  93.3556570  59.9812461
 119.7743156  92.3726086  59.5898802 121.7327675  75.4162648  47.9715248
 120.8557141  75.2951449  47.6077494 122.2085428  74.6248726  47.7194136
 131.6000668  83.8715716  64.7413703 130.7127446  83.5341638  64.8640102
 132.1699219  83.1398747  64.9782469 125.1301821  88.5317168  61.7074947
 125.0571993  89.3372140  62.2194251 124.6879214  88.7309134  60.8822968
 124.9191601  87.7688938  55.2177768 124.1359123  88.3110618  55.3115993
 125.6184346  88.2862918  55.6172009 128.2288251  73.5783568  57.8611974
 128.7256950  72.8253530  57.5413044 127.4575232  73.6147884  57.2955183
 136.0818008  79.2823933  59.5030265 136.0707884  80.1648649  59.1324198
 135.2135388  78.9295484  59.3084802 127.5900505  88.4304002  63.8633105
 128.3028477  89.0651467  63.7909007 127.0990533  88.5267868  63.0473107
 129.3118032  82.3355255  55.4350397 128.3774310  82.4556717  55.2655101
 129.4894700  81.4327722  55.1710407 124.8123220  75.7200951  57.5883658
 124.4421007  75.1671991  58.2764564 125.3082312  75.1159084  57.0358658
 132.6990583  78.1772574  55.9700431 133.1651035  79.0100566  55.8960734
 133.1498083  77.7117556  56.6745690 122.6412418  86.1798446  64.6838676
 123.3421878  86.8134929  64.8368070 122.1707533  86.5213177  63.9234315
 130.7666814  84.5216395  52.9686583 131.0426658  84.4072990  53.8780457
 129.8971313  84.1233880  52.9298756 130.6707246  70.5453161  60.0091332
 129.7570325  70.7757388  60.1773539 131.1000347  70.6291605  60.8605365
 130.4413704  78.7343053  62.5091226 129.7885154  78.9818961  61.8543679
 130.8194084  77.9207191  62.1753704 127.4020878  88.7702746  56.6119397
 127.5843273  87.9524402  57.0747149 128.2253864  88.9870439  56.1744287
 127.7363043  87.6970931  53.8734445 128.2650810  87.1863386  53.2604607
 127.9991263  87.3813462  54.7379978 126.4901277  79.4762864  68.9957264
 125.8141914  79.3756994  69.6659639 127.3128911  79.3202078  69.4593261
 118.2380136  85.7134801  61.6169779 118.8233573  84.9678489  61.7497683
 118.0404975  86.0238757  62.5006443 121.0918791  88.7486048  56.6332221
 120.4229167  89.2332176  56.1496261 120.9531661  88.9955269  57.5475600
 125.2324060  90.7829792  63.2314880 125.7842368  90.9461413  63.9963965
 125.5730253  91.3734229  62.5594904 130.0834934  85.6091049  69.0863534
 130.6274838  86.2221007  68.5918489 129.5021779  86.1670628  69.6030547
 116.4606369  77.0104503  53.4128153 116.7559810  76.1015182  53.3595207
 115.5594404  76.9892243  53.0909156 128.3692447  88.7311767  60.2178562
 128.2443587  87.9301507  59.7089507 129.0271538  89.2257961  59.7292532
 119.9900616  75.0860500  59.3955702 119.2687201  75.6996467  59.2563175
 120.7793871  75.6218265  59.3172348 130.4327356  86.5320787  61.8458112
 129.4857691  86.4126138  61.7736439 130.7810129  85.6443285  61.9284373
 118.1894210  74.6918601  53.5367478 117.8606916  73.8115980  53.3542584
 118.5433581  74.6366269  54.4243868 127.4373789  86.3273503  58.0462464
 127.2898751  85.3990211  58.2270034 128.2627282  86.3493594  57.5619539
 121.3036033  74.9791571  53.9042956 121.6432106  75.5077492  53.1821565
 121.7508154  75.3171977  54.6801523 131.0407911  87.1502062  59.1327337
 131.9654458  86.9444924  58.9951788 130.8723214  86.9018463  60.0416678
 124.6495946  70.4477934  61.8073347 125.4722015  69.9738412  61.6852238
 124.8934009  71.2268417  62.3072034 123.2904180  73.4766192  52.1036249
 124.0112543  73.8547445  51.5999966 122.6669485  74.1955069  52.2071227
 127.4335303  74.1811341  53.0394581 127.6498918  75.0635979  52.7383409
 126.9529370  73.7897555  52.3100223 122.1734525  77.1397054  59.6165326
 122.0279105  77.4537357  60.5089607 121.6959728  77.7581955  59.0636224
 124.0330908  74.1299602  59.6646215 124.0192476  73.2340696  59.3278513
 124.7503336  74.1370266  60.2984501 125.8857038  74.5636943  61.7099343
 125.6274816  75.4854013  61.7083673 125.3542079  74.1667377  62.3999807
 130.8303227  87.6687730  54.4889428 131.0040105  87.1034152  53.7363281
 131.3232118  88.4688625  54.3068918 116.6480187  79.6802399  62.5552987
 116.1033655  80.4562207  62.6873261 117.5259537  80.0273203  62.3972108
 123.4367803  73.0113983  54.9333786 123.5583715  72.0830629  55.1324673
 123.1469846  73.0252669  54.0212101 126.3058994  70.6968893  58.0700505
 126.3280691  70.7608226  57.1152485 126.7227053  69.8573402  58.2641012
 136.6842618  80.4324153  56.1079728 137.1273764  79.6831478  55.7098851
 135.8069128  80.4234289  55.7253460 131.8178400  86.9854494  51.5886326
 132.5129304  87.6061187  51.8073641 132.1601550  86.1349845  51.8638704
 117.4346209  78.8072295  65.4483144 116.6927945  78.9554930  66.0347774
 117.1138953  79.0680561  64.5849893 133.7169823  84.4354200  53.1173657
 134.2421147  84.7741472  52.3922977 133.6292175  83.5001215  52.9336792
 125.3789871  88.3488273  65.2463534 125.6876998  88.1037420  66.1186233
 126.1765353  88.5534912  64.7582404 125.4010483  90.5026183  57.4768910
 124.9615474  90.0102562  58.1701767 126.1518600  89.9599151  57.2360986
 117.8802822  86.6937724  57.4793539 118.7060842  86.3941496  57.0992182
 117.5296874  85.9245346  57.9283327 122.8484356  86.0464192  59.5491212
 122.2264365  85.3834897  59.2493440 123.5189222  86.0725324  58.8664860
 116.0811427  84.6124050  58.4382472 115.2443336  84.1846225  58.2566473
 116.0535073  84.8056494  59.3753263 122.9208883  74.5245980  69.1423718
 122.9697038  75.4008103  68.7601488 123.4631397  73.9823373  68.5695361
 133.4063729  85.0687103  68.4224855 132.6159272  85.0511242  67.8829355
 133.1697083  85.6075397  69.1773892 133.5261604  81.9179570  65.7357584
 133.5759609  81.7529577  66.6773107 133.4175527  81.0506829  65.3455465
 122.4097862  84.5968115  53.0249673 122.5585983  85.2803580  52.3716345
 123.2164306  84.5773205  53.5399128 130.8165366  77.9010498  67.0516890
 131.7175229  77.7616963  66.7600888 130.8913341  78.0664952  67.9915068
 125.1508171  75.2777352  65.8970077 124.2811481  75.5710918  65.6252665
 125.3867652  75.8617797  66.6177340 135.0279801  84.3376511  65.9799605
 134.7364609  84.7006492  66.8163066 134.4151932  83.6243519  65.8012937
 136.2275483  81.9029391  58.5002176 137.0622374  82.3419195  58.6639736
 136.3634612  81.4268044  57.6810421 133.2766989  79.4609126  64.4479663
 133.7521110  79.6536772  63.6398515 132.3532554  79.5168312  64.2023047
 120.1650495  80.6233293  54.0310742 119.9196537  79.7195623  54.2290952
 120.3346410  80.6250443  53.0890220 127.8547205  71.4956969  63.4135497
 128.3729149  72.2317996  63.0881986 127.5002338  71.8020963  64.2482256
 119.4346143  76.3561651  51.5296903 118.7415388  76.4306006  50.8736939
 119.1897895  75.5921994  52.0518420 128.1059799  67.9157252  58.9336394
 128.3861553  67.2480441  59.5596820 128.8910406  68.1086347  58.4211058
 125.9093268  87.0916246  50.4961420 125.3367235  87.7106433  50.0431892
 126.4826062  87.6415607  51.0301342 131.9768658  76.3374886  62.6807969
 132.9286081  76.4372984  62.7020193 131.8072108  75.5453154  63.1906053
 129.9983037  73.4230469  62.8667370 129.4032969  73.7035482  62.1713858
 129.7132734  73.9124370  63.6384111 129.1290528  87.3753396  51.6270002
 130.0621201  87.3098958  51.8302878 129.0413741  88.2109663  51.1684535
 131.7578544  86.6919266  48.5873950 131.6792176  86.3579130  49.4809708
 132.5788211  87.1841034  48.5865422 134.4556736  79.5581006  61.7950269
 134.4233056  78.6197006  61.9809952 135.0657359  79.6365042  61.0616093
 126.2940066  78.4277059  47.8377473 127.2399171  78.2983267  47.9065891
 125.9154311  77.6891720  48.3146901 134.6051224  76.3492049  61.8408552
 134.0890273  75.5650506  61.6538481 135.4891173  76.0210766  62.0055071
 132.2661951  70.0933065  57.8004364 132.0686772  69.7848153  58.6847696
 132.8761657  70.8194703  57.9302294 140.2733285  80.6197012  60.9356305
 141.0036674  80.3582301  61.4964009 139.6640231  79.8825734  60.9758373
 138.3548583  78.7604875  61.5330757 137.6281746  78.6260840  60.9247248
 137.9395869  79.0681704  62.3387475 126.1778759  82.4794805  69.2978130
 127.0981768  82.6573404  69.4918176 126.1428342  81.5350850  69.1457829
 124.4782984  76.3527035  47.7732358 123.5714439  76.0560148  47.8495071
 124.7558965  76.0556853  46.9066644 119.1740832  80.3895839  61.9400911
 119.3926841  81.3212947  61.9588945 119.5866605  80.0303814  62.7255715
 126.0945049  70.8963925  53.9276599 125.2845778  70.5511010  54.3031845
 126.7829466  70.5871468  54.5164211 128.0235598  69.9741971  55.5500896
 128.5766636  70.3937425  56.2090919 128.2605684  69.0477720  55.5923852
 124.0468697  75.9629045  71.3303660 123.9465424  76.9123402  71.2615751
 123.8290239  75.6347284  70.4579730 123.2481768  73.2113970  47.9144337
 124.1100932  73.5368868  48.1740154 123.4332112  72.4245466  47.4017403
 115.2649184  81.2936310  60.1924526 114.5712655  80.8790263  59.6794480
 116.0122175  81.3356846  59.5957945 131.4014405  72.0842497  55.0579560
 130.8213074  72.7427301  54.6757612 131.1350337  71.2619841  54.6466977
 129.8517971  71.4847554  57.2600880 130.3517749  71.5964089  56.4515199
 130.4953579  71.1808607  57.9001689 123.9099967  79.3926184  70.1468721
 123.4267049  80.1926544  70.3532610 123.9960906  79.4034129  69.1936165
 117.1785927  81.2254564  58.0690541 117.1556615  81.3242251  57.1172424
 117.4886563  82.0719714  58.3907707 119.8373304  83.2830719  62.1837155
 120.7916558  83.2514661  62.1167087 119.6385828  82.8221342  62.9987381
 120.4272687  81.8531835  64.7507953 121.2465576  82.3475913  64.7742790
 120.7009494  80.9363803  64.7225520 130.1839283  74.2442587  54.1135908
 129.2965138  74.5292238  53.8956103 130.5993272  74.0836350  53.2663185
 133.5353819  74.2689108  57.8290247 134.3114209  74.7585560  58.1014864
 132.8101953  74.6947162  58.2862117 135.9726377  74.9816727  58.8864188
 136.5670868  74.7412463  58.1757496 136.0452961  74.2623858  59.5137724
 118.1923533  88.8250338  59.2007353 118.0578001  88.0650739  58.6345351
 117.7755595  89.5491238  58.7336142 129.3282496  84.0087262  48.2083928
 130.0318346  84.2137264  48.8241584 128.6045145  84.5764024  48.4733012
 130.1580306  79.7597123  54.3286198 130.1015508  80.2165674  53.4893831
 130.7108649  78.9987807  54.1509041 133.9685112  75.5486855  55.1536318
 133.7122047  75.1483490  55.9844526 133.3437980  76.2630649  55.0286457
 138.2797450  78.2882928  57.6607609 137.7197008  78.3576117  58.4339171
 137.6740954  78.1123913  56.9407106 121.3492659  89.7219655  59.4125796
 121.2325043  90.6665088  59.3104486 120.5285105  89.4193217  59.8011595
 131.2369194  84.4469791  50.2582388 132.0714798  84.0150989  50.0759863
 131.0753537  84.2751805  51.1859283 130.8915086  80.9501904  51.6238728
 130.8363890  80.7846176  50.6827172 130.2661141  81.6577937  51.7800917
 128.2060993  83.2550816  70.9492290 129.0752153  83.4291468  70.5878925
 127.7267744  84.0745233  70.8268020 124.2011211  70.4510013  51.2024046
 124.1889881  71.3951853  51.3592317 125.0934633  70.2680159  50.9083507
 122.3747173  90.3747917  62.6281724 123.2774420  90.4071527  62.9448219
 122.1484543  89.4448368  62.6428060 124.1300775  89.1278904  59.2891803
 123.1796406  89.1280765  59.1756175 124.4333261  88.3811638  58.7727837
 128.0163331  67.0452790  55.4569983 127.2495727  66.4911276  55.6026665
 128.4274036  67.1174659  56.3184134 120.0205092  73.3337586  69.5475164
 120.8836553  72.9774390  69.7578489 119.4470502  72.9951480  70.2350568
 139.8653469  94.9639442  60.3537565 140.5031879  94.8446189  59.6500905
 139.7474312  95.9120286  60.4125517 136.6743175  94.9166870  60.2899090
 136.3361686  94.8007935  59.4019625 137.5432943  94.5158035  60.2700096
 132.5329991  96.7702346  56.2795981 131.9694856  96.6792283  55.5112268
 132.4182386  95.9502251  56.7598473 137.1562958  96.0701722  66.2485295
 137.1451599  95.6754520  65.3765799 137.3183597  95.3367794  66.8419067
 130.0794423  98.2653538  59.1180201 130.8715715  97.9244363  58.7026500
 130.3191073  98.3748513  60.0382354 138.1129549 100.4373314  51.5910446
 137.4617529 101.0227395  51.2044459 138.9073912 100.9679509  51.6505483
 132.0385177  97.5262451  51.9897580 132.8116053  96.9791438  51.8510456
 132.3910575  98.3906701  52.2012041 133.8770219  98.8538834  65.1964479
 133.5860085  99.7584464  65.0811146 134.5127203  98.8955361  65.9108549
 134.8026426  96.2315682  61.7865839 135.3989998  96.0071705  61.0722802
 134.8601397  95.4900428  62.3891287 134.3751454  93.6855117  49.6216030
 134.6276975  93.1636639  48.8599493 133.4376013  93.5221263  49.7242713
 139.4194737  92.6890896  57.4290773 140.2057826  92.2710319  57.0781190
 139.6833442  93.5936988  57.5972421 139.5904815  98.1263746  52.1279430
 138.9550648  98.1998373  52.8400335 139.2602221  98.7157345  51.4498509
 134.0947743  95.5883223  51.8240405 133.9784001  94.9128127  52.4921489
 134.2050003  95.1015597  51.0072558 136.4379284  95.0493370  55.5287094
 136.0737491  94.5223991  56.2400016 137.2946400  94.6591840  55.3553579
 142.3428585  86.3387703  62.7918360 142.0111909  87.2083114  62.5679575
 141.7474198  86.0223987  63.4712391 136.0784771  90.0783270  50.5248443
 136.2459173  90.9463507  50.8918914 135.8881940  90.2410552  49.6009732
 138.8360104  98.5400249  62.1914273 138.5360827  99.4425288  62.0830080
 138.4911164  98.2732432  63.0435426 132.2872586  94.9914046  58.2250977
 131.3623082  94.8590260  58.4328669 132.5356999  95.7708265  58.7220920
 142.2357248  91.0582789  59.8711710 141.3274125  90.9898198  59.5770471
 142.1844844  91.5354734  60.6993536 136.0573992  92.5340928  51.5095109
 135.9373617  92.9797978  52.3480590 135.3626580  92.8826245  50.9508648
 129.6481397  94.6347319  59.0594766 129.7773778  94.8881798  59.9734178
 128.9678848  95.2275027  58.7399421 133.8180884 105.3044569  55.1585241
 133.7404914 106.2552395  55.2373721 133.2142528 104.9590442  55.8160167
 136.3098114  92.4772435  67.8146608 135.5331448  93.0366355  67.8049472
 136.9488677  92.9629218  68.3361478 141.7559058  93.0062401  52.3375443
 142.6676914  93.2389788  52.1623141 141.2468705  93.5899445  51.7750522
 134.5644486  95.2857888  67.3764575 135.3059170  95.8242932  67.0999398
 133.8581472  95.9124177  67.5336126 140.0399826  97.4287029  65.9736736
 140.4483182  96.9869439  65.2291368 139.3177087  96.8539656  66.2270929
 136.3930896  92.3659635  63.3470293 137.2392091  92.7899049  63.4904942
 136.3329533  91.7093260  64.0408856 140.3628640  97.9888219  59.7289025
 139.7337503  98.1533933  59.0265093 139.9754302  98.4029829  60.4999989
 139.5430341  90.0264004  65.0051467 139.2991273  90.7806064  64.4685742
 139.8190272  90.4049351  65.8398714 141.4968804  96.5702616  63.6828732
 141.7085699  97.2134376  63.0063113 141.4498552  95.7364933  63.2150662
 139.0995033  89.1820437  60.5865304 138.2379512  89.4801690  60.8782042
 139.1257467  89.3990836  59.6546337 135.9156602  97.7262627  56.9939110
 136.3794948  98.0050330  56.2043732 135.6513400  96.8246072  56.8112201
 132.8080683  97.2734109  59.9318873 133.3782040  97.7021377  59.2936358
 133.3988795  96.9916694  60.6303059 134.8525488  93.8485780  53.8028675
 135.5549532  94.3006823  54.2702601 134.5206117  93.2069599  54.4308568
 133.3005850  92.4397536  68.1779885 132.6704510  93.1213817  68.4115281
 133.1941938  92.3280618  67.2333023 128.5950822  92.1069332  59.1045809
 127.8049876  92.3626861  58.6285919 129.0862070  92.9217670  59.2097849
 142.6114632  99.4474572  61.8551090 143.4332076  99.0454759  61.5733771
 142.6077035  99.3442806  62.8067205 130.5465568  92.4713912  56.0629285
 129.7496731  92.5832606  56.5812781 130.3191160  92.8100564  55.1970176
 136.3771235  98.9958615  64.0111800 136.4415668  99.4579022  64.8469972
 135.6682159  98.3655980  64.1394110 126.8788525  92.3599823  61.5360799
 127.1296564  93.2446833  61.8018375 127.4148074  92.1804424  60.7635891
 136.0919253 100.6626722  53.8790780 135.9564928 101.5078258  54.3075628
 136.6329065 100.8646000  53.1156714 132.5786593  86.7418302  70.5405136
 132.1853538  86.1884501  71.2152780 133.3952733  87.0528881  70.9311653
 129.5448650  98.1802160  54.4518705 130.0573171  98.9745411  54.6024270
 130.1971363  97.4828451  54.3852307 131.3543535 101.2967917  56.5341459
 131.5310163 102.2185881  56.3462443 132.1500369 100.9826336  56.9635838
 135.4954554  88.1576181  68.1325392 136.2364267  88.7583334  68.0529855
 135.7272476  87.4153819  67.5743435 130.6395892  93.3432549  66.4103622
 130.5249407  92.4417806  66.7110721 129.7840409  93.5896245  66.0588438
 137.7187729 101.2850289  68.0091122 137.2751583 100.4986667  67.6912027
 138.3804943 101.4729439  67.3435013 132.4774850 102.8146091  62.5351801
 133.0282276 102.6863154  61.7628795 131.6386326 103.1140980  62.1846694
 139.8168967 101.5653089  66.0372524 139.7987443 102.3861970  65.5452793
 140.7388887 101.4407164  66.2622665 136.2742022  99.0797218  66.8796032
 136.8070358  98.3185507  66.6495340 135.7456103  98.7870870  67.6220187
 139.4411716  84.1857284  62.4089674 139.0975986  85.0758926  62.3328784
 139.8090679  83.9958942  61.5459259 127.5097567  96.5090815  55.2278276
 128.3472789  96.9187823  55.0111984 127.6875835  95.5690257  55.1978470
 139.4061999  94.1765895  50.9162109 138.8908623  94.9470500  51.1550496
 139.1339308  93.5031032  51.5395170 136.9909110  89.0215596  55.9747347
 136.1350707  88.6322447  55.7952986 137.4036062  89.1007557  55.1147133
 138.5208257  86.5561939  60.3738907 138.0173052  86.5192075  59.5606712
 138.8138864  87.4654682  60.4335564 134.7651143  86.6400669  59.3805089
 135.6304140  86.4443478  59.0210978 134.8328652  86.4111021  60.3074446
 139.1948302  92.0492987  52.7421890 138.8898438  92.3639137  53.5932033
 140.1478744  92.1274407  52.7849223 137.6394734  98.2083211  54.3914844
 137.1116096  97.4735970  54.0788082 137.1382237  98.9857887  54.1454812
 142.6187580  96.4032231  59.5081890 141.9611255  97.0931493  59.5962019
 143.4227979  96.7928663  59.8515877 132.3713462  88.8702877  56.7521456
 132.9457214  88.6478059  56.0194649 132.9584444  88.9391572  57.5050057
 141.4293039  94.7576604  57.5585832 141.9424921  95.3906596  58.0607542
 142.0794263  94.1577799  57.1929192 132.6983049  90.9007338  50.7717341
 131.8620361  91.2382025  51.0926616 132.5587819  90.7656318  49.8344478
 134.6736130  85.7444126  55.4796525 134.0200542  85.4293143  54.8553140
 134.6316604  85.1219866  56.2056348 135.7847334  96.0263421  47.3949817
 134.8774396  95.7952675  47.5940966 136.2818366  95.2301040  47.5823799
 138.6915413 104.7360928  50.3146503 138.0177112 105.0392625  50.9231461
 139.0781235 105.5390009  49.9651960 137.9073870  92.2326060  59.8044173
 136.9896431  92.4541007  59.6465861 138.3234014  92.3072370  58.9455880
 138.6908918  93.6317475  54.9346853 139.4380737  94.1438872  54.6253975
 138.9600507  93.3101528  55.7951246 136.9635568  96.1276016  51.9173807
 136.0546787  95.8435049  52.0146277 136.9930652  96.5475094  51.0577114
 142.1954835  99.7382605  55.6864975 141.7417162  98.8973515  55.7430165
 141.5648802 100.3744004  56.0239755 141.1387755  90.6674591  56.9165642
 140.4010512  90.1551978  57.2475885 141.3914528  90.2274973  56.1048919
 140.6387774 101.5759102  56.6214793 140.9310749 102.1364159  55.9027159
 141.1486395 101.8687663  57.3767952 141.2399382  83.4450843  57.5107411
 141.5458259  82.5848207  57.2233327 141.9651987  84.0368464  57.3106405
 127.5323738  93.8481530  55.8989009 127.3348138  93.2550891  55.1740076
 126.9770402  93.5433740  56.6164948 135.5120462  93.7404637  58.0183603
 135.5669072  92.7878473  57.9426079 134.7011664  93.8964076  58.5024901
 136.6611656  97.6684760  49.2561886 136.2231086  96.9520619  48.7967523
 137.4022097  97.8960874  48.6946977 133.4512822  92.3581696  55.7773981
 132.6380687  92.6575867  56.1839174 133.9471816  91.9637385  56.4948464
 135.6021400 102.3539453  57.7108246 135.5597578 102.5800300  56.7816778
 136.5184099 102.1202828  57.8594047 139.0487033  92.8223521  64.6088875
 139.4036421  93.0494994  65.4683341 139.6959165  93.1541898  63.9866131
 132.9426897  89.9300052  61.3935216 133.5826276  89.7888811  60.6958180
 132.1104427  89.6434565  61.0173818 133.7187200  99.2302482  57.5070209
 134.5127799  98.7352802  57.3052784 133.0078893  98.7020345  57.1437914
 138.5382045 101.6120578  61.8582576 138.5919067 102.1811514  62.6260292
 137.6696826 101.7822463  61.4936614 130.0269964  93.3745564  53.5829962
 129.0967552  93.3130019  53.7999924 130.1227436  92.8521517  52.7866603
 129.9455513  89.9000377  56.1708203 130.2062330  90.8145710  56.0617364
 130.7672685  89.4324819  56.3204816 131.4180438  91.3138134  63.3407028
 132.0903492  91.1055496  62.6919677 130.5910225  91.1160220  62.9012260
 137.3206010  87.9400075  65.3572689 136.6733925  88.6390025  65.2637165
 138.0907026  88.3736219  65.7248937 140.7284808  98.2048927  68.4323242
 140.5770315  97.9759479  67.5153326 140.7189488  99.1619528  68.4454587
 137.4970145  95.7780840  63.4169508 138.4262205  95.9291999  63.2438476
 137.0761175  95.8664861  62.5618155 136.2958476  99.8031504  61.1868046
 136.1569562  99.4350289  62.0593984 135.5073073 100.3179144  61.0152004
 136.8906628 104.9040601  52.5293582 137.0658384 104.4328644  53.3439205
 136.2039416 105.5306367  52.7574843 137.8463692  99.1813107  58.5756884
 137.5113524  99.1413877  59.4714534 137.3467637  98.5157823  58.1027294
 131.8207936  94.5880737  64.1009465 131.6827733  93.8560976  64.7021004
 132.7312859  94.4989637  63.8193653 140.7822883  96.5269141  48.8493943
 140.1652054  95.8015969  48.7526996 140.3139372  97.2878502  48.5061018
 134.4490236  94.3000696  63.5893145 135.1589855  93.6593888  63.5479763
 134.4059544  94.5513591  64.5119325 142.4377015 101.2368050  66.5099724
 142.3789561 100.5527270  65.8430307 142.8396533 101.9787040  66.0580350
 133.1619170  91.2865914  65.4088784 132.6256527  90.8356653  66.0610380
 132.5735879  91.4211823  64.6659248 131.4567714 108.0529963  59.3033443
 131.6964312 108.6848488  59.9812461 130.6136910 107.7018003  59.5898802
 132.5721429  90.7454566  47.9715248 131.6950895  90.6243366  47.6077494
 133.0479182  89.9540644  47.7194136 142.4394422  99.2007634  64.7413703
 141.5521201  98.8633555  64.8640102 143.0092973  98.4690665  64.9782469
 124.0923569  95.5331725  58.0656755 124.7794609  95.2193455  57.4777770
 123.9371698  96.4373090  57.7924006 128.8958291  90.4221922  62.4941778
 128.8116480  89.8147591  61.7592188 128.0740998  90.9130940  62.4951275
 135.9695576 103.8609086  61.7074947 135.8965747 104.6664057  62.2194251
 135.5272969 104.0601052  60.8822968 135.7585355 103.0980856  55.2177768
 134.9752877 103.6402536  55.3115993 136.4578100 103.6154836  55.6172009
 139.0682005  88.9075485  57.8611974 139.5650705  88.1545448  57.5413044
 138.2968987  88.9439802  57.2955183 138.4294259 103.7595920  63.8633105
 139.1422231 104.3943385  63.7909007 137.9384288 103.8559786  63.0473107
 140.1511786  97.6647173  55.4350397 139.2168065  97.7848635  55.2655101
 140.3288454  96.7619639  55.1710407 135.6516974  91.0492868  57.5883658
 135.2814762  90.4963909  58.2764564 136.1476067  90.4451002  57.0358658
 133.4806173 101.5090363  64.6838676 134.1815632 102.1426846  64.8368070
 133.0101288 101.8505095  63.9234315 141.6060568  99.8508313  52.9686583
 141.8820412  99.7364908  53.8780457 140.7365067  99.4525798  52.9298756
 141.5101000  85.8745079  60.0091332 140.5964080  86.1049306  60.1773539
 141.9394102  85.9583523  60.8605365 141.2807459  94.0634971  62.5091226
 140.6278909  94.3110878  61.8543679 141.6587838  93.2499109  62.1753704
 138.2414632 104.0994664  56.6119397 138.4237027 103.2816320  57.0747149
 139.0647618 104.3162356  56.1744287 138.5756798 103.0262849  53.8734445
 139.1044564 102.5155304  53.2604607 138.8385018 102.7105379  54.7379978
 137.3295032  94.8054782  68.9957264 136.6535669  94.7048911  69.6659639
 138.1522666  94.6493996  69.4593261 129.0773891 101.0426718  61.6169779
 129.6627328 100.2970406  61.7497683 128.8798729 101.3530675  62.5006443
 131.9312546 104.0777966  56.6332221 131.2622921 104.5624093  56.1496261
 131.7925416 104.3247186  57.5475600 123.6691545  93.6132319  60.3374222
 123.7075645  93.0795909  61.1311340 123.1631838  93.0867524  59.7185199
 136.0717814 106.1121709  63.2314880 136.6236123 106.2753331  63.9963965
 136.4124008 106.7026147  62.5594904 131.0482308  88.4596859  63.8336764
 131.1123634  89.3211690  63.4214162 130.9849428  87.8470861  63.1009123
 130.5234580  90.5319992  67.4809798 131.1506619  90.1497069  68.0947323
 129.6662499  90.3134194  67.8465491 140.9228689 100.9382967  69.0863534
 141.4668593 101.5512925  68.5918489 140.3415534 101.4962545  69.6030547
 127.3000123  92.3396421  53.4128153 127.5953564  91.4307099  53.3595207
 126.3988159  92.3184160  53.0909156 139.2086202 104.0603685  60.2178562
 139.0837341 103.2593425  59.7089507 139.8665293 104.5549878  59.7292532
 130.8294370  90.4152417  59.3955702 130.1080956  91.0288385  59.2563175
 131.6187626  90.9510182  59.3172348 141.2721110 101.8612705  61.8458112
 140.3251446 101.7418056  61.7736439 141.6203883 100.9735203  61.9284373
 133.6320684  87.7506844  65.6696354 134.1555085  87.9969140  66.4322663
 133.4133017  88.5826879  65.2499491 129.0287965  90.0210518  53.5367478
 128.7000671  89.1407897  53.3542584 129.3827335  89.9658187  54.4243868
 138.2767543 101.6565421  58.0462464 138.1292506 100.7282129  58.2270034
 139.1021037 101.6785512  57.5619539 132.1429788  90.3083488  53.9042956
 132.4825860  90.8369410  53.1821565 132.5901908  90.6463894  54.6801523
 141.8801665 102.4793980  59.1327337 142.8048213 102.2736841  58.9951788
 141.7116969 102.2310381  60.0416678 134.8373229  88.6920539  63.3546024
 134.4970049  87.8928352  63.7566704 134.1312235  88.9922250  62.7822857
 135.4889700  85.7769851  61.8073347 136.3115770  85.3030330  61.6852238
 135.7327764  86.5560335  62.3072034 134.1297935  88.8058110  52.1036249
 134.8506297  89.1839363  51.5999966 133.5063239  89.5246987  52.2071227
 138.2729058  89.5103259  53.0394581 138.4892672  90.3927897  52.7383409
 137.7923125  89.1189472  52.3100223 133.0128279  92.4688972  59.6165326
 132.8672860  92.7829275  60.5089607 132.5353483  93.0873872  59.0636224
 134.8724662  89.4591520  59.6646215 134.8586231  88.5632613  59.3278513
 135.5897090  89.4662184  60.2984501 136.7250793  89.8928860  61.7099343
 136.4668571  90.8145931  61.7083673 136.1935833  89.4959295  62.3999807
 141.6696982 102.9979647  54.4889428 141.8433859 102.4326070  53.7363281
 142.1625873 103.7980542  54.3068918 127.4873941  95.0094316  62.5552987
 126.9427409  95.7854124  62.6873261 128.3653291  95.3565121  62.3972108
 134.2761558  88.3405900  54.9333786 134.3977469  87.4122546  55.1324673
 133.9863600  88.3544586  54.0212101 137.1452748  86.0260811  58.0700505
 137.1674445  86.0900144  57.1152485 137.5620807  85.1865319  58.2641012
 142.6572154 102.3146412  51.5886326 143.3523059 102.9353104  51.8073641
 142.9995304 101.4641763  51.8638704 128.2739963  94.1364213  65.4483144
 127.5321699  94.2846848  66.0347774 127.9532707  94.3972478  64.5849893
 136.2183626 103.6780191  65.2463534 136.5270752 103.4329338  66.1186233
 137.0159108 103.8826829  64.7582404 136.2404238 105.8318101  57.4768910
 135.8009228 105.3394479  58.1701767 136.9912355 105.2891068  57.2360986
 128.7196577 102.0229641  57.4793539 129.5454597 101.7233413  57.0992182
 128.3690629 101.2537264  57.9283327 133.6878110 101.3756110  59.5491212
 133.0658119 100.7126815  59.2493440 134.3582977 101.4017242  58.8664860
 126.9205182  99.9415968  58.4382472 126.0837090  99.5138142  58.2566473
 126.8928827 100.1348411  59.3753263 133.7602638  89.8537898  69.1423718
 133.8090793  90.7300020  68.7601488 134.3025152  89.3115291  68.5695361
 133.2491617  99.9260033  53.0249673 133.3979737 100.6095497  52.3716345
 134.0558060  99.9065123  53.5399128 141.6559121  93.2302415  67.0516890
 142.5568983  93.0908880  66.7600888 141.7307095  93.3956870  67.9915068
 135.9901926  90.6069270  65.8970077 135.1205235  90.9002836  65.6252665
 136.2261406  91.1909715  66.6177340 131.0044250  95.9525211  54.0310742
 130.7590292  95.0487541  54.2290952 131.1740164  95.9542361  53.0890220
 138.6940960  86.8248887  63.4135497 139.2122904  87.5609914  63.0881986
 138.3396093  87.1312880  64.2482256 130.2739897  91.6853568  51.5296903
 129.5809142  91.7597923  50.8736939 130.0291649  90.9213912  52.0518420
 138.9453554  83.2449170  58.9336394 139.2255308  82.5772359  59.5596820
 139.7304161  83.4378265  58.4211058 136.7487022 102.4208163  50.4961420
 136.1760990 103.0398351  50.0431892 137.3219816 102.9707525  51.0301342
 140.8376792  88.7522387  62.8667370 140.2426724  89.0327399  62.1713858
 140.5526488  89.2416288  63.6384111 139.9684282 102.7045314  51.6270002
 140.9014955 102.6390875  51.8302878 139.8807495 103.5401580  51.1684535
 142.5972299 102.0211184  48.5873950 142.5185930 101.6871048  49.4809708
 143.4181966 102.5132952  48.5865422 137.1333821  93.7568976  47.8377473
 138.0792926  93.6275184  47.9065891 136.7548066  93.0183638  48.3146901
 137.0172513  97.8086722  69.2978130 137.9375523  97.9865321  69.4918176
 136.9822097  96.8642768  69.1457829 135.3176738  91.6818953  47.7732358
 134.4108193  91.3852065  47.8495071 135.5952719  91.3848771  46.9066644
 126.2354678  93.0025316  58.2231404 125.9157463  92.1490624  57.9305778
 125.6888107  93.2173894  58.9789372 130.0134586  95.7187757  61.9400911
 130.2320596  96.6504865  61.9588945 130.4260360  95.3595731  62.7255715
 136.9338804  86.2255842  53.9276599 136.1239532  85.8802927  54.3031845
 137.6223221  85.9163386  54.5164211 138.8629352  85.3033889  55.5500896
 139.4160391  85.7229343  56.2090919 139.0999438  84.3769637  55.5923852
 134.8862451  91.2920963  71.3303660 134.7859178  92.2415320  71.2615751
 134.6683993  90.9639202  70.4579730 134.0875523  88.5405888  47.9144337
 134.9494687  88.8660786  48.1740154 134.2725867  87.7537384  47.4017403
 126.1042938  96.6228227  60.1924526 125.4106410  96.2082180  59.6794480
 126.8515929  96.6648764  59.5957945 142.2408159  87.4134414  55.0579560
 141.6606828  88.0719218  54.6757612 141.9744092  86.5911759  54.6466977
 140.6911726  86.8139472  57.2600880 141.1911504  86.9256006  56.4515199
 141.3347333  86.5100525  57.9001689 134.7493721  94.7218102  70.1468721
 134.2660803  95.5218462  70.3532610 134.8354660  94.7326046  69.1936165
 128.0179681  96.5546481  58.0690541 127.9950369  96.6534169  57.1172424
 128.3280318  97.4011632  58.3907707 130.6767059  98.6122636  62.1837155
 131.6310312  98.5806579  62.1167087 130.4779582  98.1513260  62.9987381
 131.2666441  97.1823752  64.7507953 132.0859330  97.6767831  64.7742790
 131.5403249  96.2655720  64.7225520 141.0233037  89.5734505  54.1135908
 140.1358892  89.8584155  53.8956103 141.4387026  89.4128268  53.2663185
 129.0317288 104.1542256  59.2007353 128.8971756 103.3942657  58.6345351
 128.6149350 104.8783156  58.7336142 140.1676251  99.3379179  48.2083928
 140.8712101  99.5429182  48.8241584 139.4438899  99.9055941  48.4733012
 140.9974061  95.0889041  54.3286198 140.9409262  95.5457592  53.4893831
 141.5502403  94.3279725  54.1509041 132.1886414 105.0511573  59.4125796
 132.0718798 105.9957005  59.3104486 131.3678860 104.7485134  59.8011595
 142.0762948  99.7761709  50.2582388 142.9108552  99.3442907  50.0759863
 141.9147291  99.6043722  51.1859283 141.7308840  96.2793822  51.6238728
 141.6757644  96.1138093  50.6827172 141.1054896  96.9869855  51.7800917
 126.5201355  91.5161886  65.4500150 127.1660219  91.0060840  65.9387375
 126.3118506  92.2530568  66.0243575 139.0454747  98.5842734  70.9492290
 139.9145907  98.7583386  70.5878925 138.5661499  99.4037151  70.8268020
 135.0404966  85.7801931  51.2024046 135.0283636  86.7243771  51.3592317
 135.9328388  85.5972076  50.9083507 133.2140928 105.7039835  62.6281724
 134.1168174 105.7363445  62.9448219 132.9878298 104.7740286  62.6428060
 134.9694530 104.4570821  59.2891803 134.0190161 104.4572683  59.1756175
 135.2727016 103.7103556  58.7727837 138.8557085  82.3744707  55.4569983
 138.0889481  81.8203194  55.6026665 139.2667790  82.4466576  56.3184134
 130.8598846  88.6629503  69.5475164 131.7230308  88.3066308  69.7578489
 130.2864257  88.3243398  70.2350568 143.3723745 112.0994264  56.2795981
 142.8088610 112.0084201  55.5112268 143.2576140 111.2794169  56.7598473
 140.9188177 113.5945456  59.1180201 141.7109469 113.2536280  58.7026500
 141.1584827 113.7040431  60.0382354 143.1266340 110.3205964  58.2250977
 142.2016837 110.1882178  58.4328669 143.3750753 111.1000183  58.7220920
 140.4875151 109.9639237  59.0594766 140.6167532 110.2173716  59.9734178
 139.8072603 110.5566945  58.7399421 139.4344577 107.4361250  59.1045809
 138.6443631 107.6918779  58.6285919 139.9255824 108.2509588  59.2097849
 141.3859322 107.8005829  56.0629285 140.5890485 107.9124524  56.5812781
 141.1584914 108.1392482  55.1970176 137.7182280 107.6891741  61.5360799
 137.9690318 108.5738750  61.8018375 138.2541828 107.5096342  60.7635891
 140.3842405 113.5094078  54.4518705 140.8966925 114.3037328  54.6024270
 141.0365118 112.8120369  54.3852307 142.1937289 116.6259834  56.5341459
 142.3703918 117.5477799  56.3462443 142.9894123 116.3118254  56.9635838
 141.4789646 108.6724466  66.4103622 141.3643161 107.7709724  66.7110721
 140.6234164 108.9188163  66.0588438 138.3491322 111.8382732  55.2278276
 139.1866544 112.2479741  55.0111984 138.5269589 110.8982175  55.1978470
 138.3717493 109.1773448  55.8989009 138.1741893 108.5842808  55.1740076
 137.8164157 108.8725658  56.6164948 140.8663718 108.7037482  53.5829962
 139.9361307 108.6421937  53.7999924 140.9621190 108.1813434  52.7866603
 140.7849267 105.2292294  56.1708203 141.0456085 106.1437628  56.0617364
 141.6066440 104.7616737  56.3204816 142.2574193 106.6430052  63.3407028
 142.9297246 106.4347414  62.6919677 141.4303979 106.4452138  62.9012260
 134.9317324 110.8623643  58.0656755 135.6188364 110.5485373  57.4777770
 134.7765452 111.7665008  57.7924006 139.7352046 105.7513840  62.4941778
 139.6510235 105.1439509  61.7592188 138.9134752 106.2422858  62.4951275
 139.9167645 116.3718636  61.6169779 140.5021082 115.6262324  61.7497683
 139.7192484 116.6822593  62.5006443 142.7706300 119.4069883  56.6332221
 142.1016676 119.8916011  56.1496261 142.6319170 119.6539104  57.5475600
 134.5085300 108.9424236  60.3374222 134.5469399 108.4087827  61.1311340
 134.0025593 108.4159442  59.7185199 141.8876062 103.7888777  63.8336764
 141.9517389 104.6503608  63.4214162 141.8243182 103.1762778  63.1009123
 141.3628335 105.8611909  67.4809798 141.9900374 105.4788987  68.0947323
 140.5056254 105.6426111  67.8465491 138.1393877 107.6688338  53.4128153
 138.4347319 106.7599017  53.3595207 137.2381913 107.6476078  53.0909156
 141.6688124 105.7444335  59.3955702 140.9474710 106.3580303  59.2563175
 142.4581380 106.2802100  59.3172348 139.8681719 105.3502436  53.5367478
 139.5394425 104.4699815  53.3542584 140.2221090 105.2950105  54.4243868
 142.9823542 105.6375406  53.9042956 143.3219615 106.1661327  53.1821565
 143.4295663 105.9755812  54.6801523 138.3267696 110.3386234  62.5552987
 137.7821164 111.1146042  62.6873261 139.2047046 110.6857039  62.3972108
 139.1133718 109.4656130  65.4483144 138.3715454 109.6138766  66.0347774
 138.7926462 109.7264396  64.5849893 139.5590331 117.3521559  57.4793539
 140.3848351 117.0525331  57.0992182 139.2084383 116.5829182  57.9283327
 137.7598936 115.2707886  58.4382472 136.9230845 114.8430060  58.2566473
 137.7322582 115.4640329  59.3753263 141.8438004 111.2817128  54.0310742
 141.5984046 110.3779458  54.2290952 142.0133919 111.2834279  53.0890220
 141.1133652 107.0145486  51.5296903 140.4202897 107.0889841  50.8736939
 140.8685404 106.2505830  52.0518420 137.0748433 108.3317234  58.2231404
 136.7551217 107.4782542  57.9305778 136.5281861 108.5465812  58.9789372
 140.8528341 111.0479675  61.9400911 141.0714350 111.9796782  61.9588945
 141.2654114 110.6887649  62.7255715 136.9436693 111.9520145  60.1924526
 136.2500164 111.5374098  59.6794480 137.6909684 111.9940682  59.5957945
 138.8573435 111.8838399  58.0690541 138.8344124 111.9826086  57.1172424
 139.1674072 112.7303550  58.3907707 141.5160813 113.9414554  62.1837155
 142.4704067 113.9098496  62.1167087 141.3173337 113.4805178  62.9987381
 142.1060196 112.5115670  64.7507953 142.9253084 113.0059749  64.7742790
 142.3797003 111.5947638  64.7225520 139.8711042 119.4834173  59.2007353
 139.7365510 118.7234574  58.6345351 139.4543104 120.2075073  58.7336142
 143.0280168 120.3803490  59.4125796 142.9112552 121.3248923  59.3104486
 142.2072614 120.0777052  59.8011595 137.3595110 106.8453804  65.4500150
 138.0053973 106.3352758  65.9387375 137.1512261 107.5822486  66.0243575
 141.6992601 103.9921421  69.5475164 142.5624062 103.6358226  69.7578489
 141.1258011 103.6535316  70.2350568  75.8825651  -1.3743928  45.8425508
  76.6746943  -1.7153103  45.4271807  76.1222302  -1.2648953  46.7627661
  83.9160778   0.7975848  38.3155752  83.2648758   1.3829929  37.9289766
  84.7105141   1.3282043  38.3750790  79.6801448  -0.7858632  51.9209786
  79.3891314   0.1186999  51.8056452  80.3158432  -0.7442105  52.6353855
  79.6212113   5.6647104  41.8830547  79.5436142   6.6154929  41.9619028
  79.0173756   5.3192976  42.5405474  81.8950482   1.0229257  40.6036087
  81.7596156   1.8680792  41.0320935  82.4360294   1.2248534  39.8402021
  75.3479879  -1.4595305  41.1764012  75.8604400  -0.6652055  41.3269577
  76.0002592  -2.1569015  41.1097614  77.1574764   1.6570451  43.2586765
  77.3341392   2.5788416  43.0707749  77.9531597   1.3428870  43.6881145
  83.5218958   1.6452823  54.7336429  83.0782812   0.8589202  54.4157334
  84.1836172   1.8331974  54.0680320  78.2806079   3.1748625  49.2597108
  78.8313504   3.0465688  48.4874102  77.4417555   3.4743514  48.9092000
  85.6200196   1.9255623  52.7617830  85.6018672   2.7464504  52.2698100
  86.5420116   1.8009698  52.9867971  84.4946642   5.0963462  37.0391810
  83.8208341   5.3995159  37.6476768  84.8812464   5.8992543  36.6897267
  86.4419003   1.9361636  43.3460100  86.7341978   2.4966693  42.6272465
  86.9517624   2.2290197  44.1013259  81.4052628   2.7141987  44.4353553
  81.3628807   2.9402834  43.5062085  82.3215327   2.4805362  44.5839354
  84.3413274   1.9723112  48.5827883  84.3950296   2.5414048  49.3505599
  83.4728055   2.1424997  48.2181920  82.0989705   0.1634038  47.9113353
  81.9600791  -0.2047177  48.7839291  81.3104301   0.6781678  47.7397310
  82.6937857   5.2643135  39.2538889  82.8689613   4.7931178  40.0684512
  82.0070645   5.8908901  39.4820150  77.2598943   8.4132498  46.0278749
  77.4995541   9.0451022  46.7057768  76.4168139   8.0620538  46.3144109
  81.7726804   4.2211620  48.4320253  81.6996976   5.0266592  48.9439558
  81.3304197   4.4203586  47.6068275  81.5616584   3.4583390  41.9423075
  80.7784106   4.0005070  42.0361299  82.2609329   3.9757370  42.3417316
  84.2325488   4.1198454  50.5878412  84.9453460   4.7545919  50.5154313
  83.7415517   4.2162320  49.7718414  79.2837401   1.8692898  51.4083983
  79.9846861   2.5029381  51.5613377  78.8132516   2.2107629  50.6479622
  84.0445861   4.4597198  43.3364703  84.2268256   3.6418854  43.7992456
  84.8678847   4.6764890  42.8989593  84.3788027   3.3865383  40.5979752
  84.9075793   2.8757838  39.9849914  84.6416246   3.0707914  41.4625285
  74.8805119   1.4029253  48.3415085  75.4658556   0.6572941  48.4742990
  74.6829958   1.7133209  49.2251749  77.7343775   4.4380500  43.3577528
  77.0654150   4.9226628  42.8741568  77.5956644   4.6849720  44.2720906
  81.8749043   6.4724244  49.9560186  82.4267351   6.6355865  50.7209271
  82.2155237   7.0628681  49.2840211  85.0117431   4.4206219  46.9423868
  84.8868570   3.6195959  46.4334814  85.6696522   4.9152412  46.4537838
  84.0798772   2.0167955  44.7707771  83.9323735   1.0884663  44.9515341
  84.9052266   2.0388046  44.2864846  87.6832894   2.8396514  45.8572643
  88.6079442   2.6339375  45.7197095  87.5148197   2.5912915  46.7661985
  87.4728210   3.3582182  41.2134735  87.6465088   2.7928604  40.4608587
  87.9657102   4.1583076  41.0314225  82.0214855   4.0382725  51.9708841
  82.3301981   3.7931872  52.8431540  82.8190337   4.2429364  51.4827711
  82.0435467   6.1920635  44.2014217  81.6040457   5.6997013  44.8947074
  82.7943584   5.6493602  43.9606292  74.5227806   2.3832176  44.2038845
  75.3485826   2.0835948  43.8237489  74.1721858   1.6139798  44.6528634
  79.4909339   1.7358644  46.2736519  78.8689348   1.0729349  45.9738747
  80.1614206   1.7619776  45.5910167  72.7236411   0.3018502  45.1627779
  71.8868319  -0.1259324  44.9811780  72.6960056   0.4950945  46.0998570
  79.0522846   0.2862567  39.7494979  79.2010966   0.9698032  39.0961652
  79.8589289   0.2667657  40.2644435  82.5518251   2.7810698  37.2206727
  81.9792218   3.4000885  36.7677199  83.1251045   3.3310059  37.7546649
  85.7715511   3.0647848  38.3515309  86.7046184   2.9993409  38.5548185
  85.6838724   3.9004115  37.8929842  88.4003528   2.3813718  35.3119257
  88.3217159   2.0473582  36.2055014  89.2213195   2.8735486  35.3110729
  71.9074167  -3.0169238  46.9169832  71.2137639  -3.4315286  46.4039787
  72.6547158  -2.9748702  46.3203251  73.8210910  -3.0850985  44.7935847
  73.7981598  -2.9863297  43.8417730  74.1311546  -2.2385834  45.1153013
  76.4798288  -1.0274830  48.9082462  77.4341541  -1.0590887  48.8412393
  76.2810811  -1.4884206  49.7232688  74.8348516   4.5144790  45.9252660
  74.7002984   3.7545191  45.3590658  74.4180579   5.2385690  45.4581448
  77.9917642   5.4114107  46.1371102  77.8750027   6.3559539  46.0349792
  77.1710089   5.1087669  46.5256901  79.0172156   6.0642369  49.3527031
  79.9199403   6.0965979  49.6693526  78.7909527   5.1342820  49.3673366
  80.7725758   4.8173355  46.0137109  79.8221390   4.8175217  45.9001482
  81.0758245   4.0706090  45.4973144  96.5078452  10.6533894  47.0782872
  97.1456862  10.5340641  46.3746212  96.3899295  11.6014738  47.1370824
  93.3168158  10.6061322  47.0144396  92.9786670  10.4902387  46.1264931
  94.1857926  10.2052487  46.9945402  89.1754974  12.4596798  43.0041287
  88.6119839  12.3686735  42.2357575  89.0607369  11.6396703  43.4843780
  93.7987941  11.7596174  52.9730602  93.7876582  11.3648972  52.1011106
  93.9608581  11.0262246  53.5664373  86.7219406  13.9547990  45.8425508
  87.5140698  13.6138815  45.4271807  86.9616056  14.0642965  46.7627661
  94.7554533  16.1267766  38.3155752  94.1042512  16.7121846  37.9289766
  95.5498895  16.6573961  38.3750790  88.6810160  13.2156903  38.7142887
  89.4541036  12.6685890  38.5755762  89.0335559  14.0801153  38.9257348
  90.5195202  14.5433285  51.9209786  90.2285068  15.4478916  51.8056452
  91.1552187  14.5849813  52.6353855  91.4451409  11.9210134  48.5111146
  92.0414982  11.6966156  47.7968108  91.5026381  11.1794879  49.1136593
  91.0176438   9.3749569  36.3461336  91.2701958   8.8531091  35.5844799
  90.0800997   9.2115715  36.4488020  96.0619720   8.3785348  44.1536080
  96.8482810   7.9604771  43.8026497  96.3258425   9.2831440  44.3217728
  96.2329798  13.8158198  38.8524737  95.5975631  13.8892825  39.5645641
  95.9027204  14.4051797  38.1743816 101.4628148   8.3160581  45.0569058
 102.1953320   7.7459798  45.2906888 100.7067503   7.9282181  45.4975564
  90.7372726  11.2777675  38.5485711  90.6208984  10.6022579  39.2166796
  90.8474986  10.7910049  37.7317864  93.0804267  10.7387822  42.2532401
  92.7162475  10.2118443  42.9645322  93.9371383  10.3486291  42.0798886
  92.7209754   5.7677722  37.2493749  92.8884157   6.6357958  37.6164220
  92.5306923   5.9305004  36.3255038  95.4785087  14.2294701  48.9159580
  95.1785811  15.1319740  48.8075387  95.1336147  13.9626884  49.7680732
  88.9297569  10.6808498  44.9496284  88.0048065  10.5484712  45.1573976
  89.1781982  11.4602717  45.4466226  98.8782231   6.7477241  46.5957017
  97.9699109   6.6792650  46.3015778  98.8269827   7.2249186  47.4238842
  92.6998975   8.2235380  38.2340416  92.5798600   8.6692430  39.0725896
  92.0051564   8.5720697  37.6753954  86.2906380  10.3241771  45.7840073
  86.4198761  10.5776250  46.6979485  85.6103831  10.9169479  45.4644728
  90.4605867  20.9939021  41.8830547  90.3829897  21.9446846  41.9619028
  89.8567511  20.6484894  42.5405474  92.9523097   8.1666887  54.5391914
  92.1756431   8.7260807  54.5294779  93.5913660   8.6523670  55.0606784
  98.3984041   8.6956853  39.0620750  99.3101897   8.9284240  38.8868448
  97.8893688   9.2793897  38.4995829  91.2069469  10.9752340  54.1009881
  91.9484154  11.5137384  53.8244705  90.5006455  11.6018629  54.2581433
  96.6824809  13.1181481  52.6982043  97.0908165  12.6763891  51.9536675
  95.9602071  12.5434108  52.9516236  93.0355879   8.0554087  50.0715600
  93.8817074   8.4793501  50.2150249  92.9754517   7.3987712  50.7654163
  97.0053624  13.6782671  46.4534332  96.3762486  13.8428385  45.7510399
  96.6179286  14.0924281  47.2245296 100.8842856  14.6137109  43.8078695
 100.1993894  14.9936010  43.2575729 100.9686705  15.2232436  44.5410643
  96.1855324   5.7158456  51.7296773  95.9416256   6.4700516  51.1931049
  96.4615255   6.0943803  52.5644020  98.1393787  12.2597068  50.4074039
  98.3510682  12.9028828  49.7308420  98.0923535  11.4259385  49.9395969
  95.7420016   4.8714889  47.3110611  94.8804495   5.1696142  47.6027349
  95.7682451   5.0885288  46.3791644  92.5581586  13.4157079  43.7184417
  93.0219931  13.6944782  42.9289039  92.2938384  12.5140524  43.5357507
  89.4505667  12.9628561  46.6564180  90.0207024  13.3915829  46.0181664
  90.0413778  12.6811146  47.3548366  91.4950472   9.5380232  40.5273982
  92.1974515   9.9901275  40.9947908  91.1631100   8.8964051  41.1553875
  89.9430833   8.1291988  54.9025191  89.3129494   8.8108269  55.1360588
  89.8366921   8.0175070  53.9578329  85.2375806   7.7963784  45.8291115
  84.4474860   8.0521313  45.3531226  85.7287053   8.6112122  45.9343156
  99.2539615  15.1369024  48.5796396 100.0757059  14.7349211  48.2979078
  99.2502018  15.0337258  49.5312512  87.1890551   8.1608364  42.7874592
  86.3921714   8.2727058  43.3058088  86.9616143   8.4995016  41.9215483
  93.0196219  14.6853067  50.7357107  93.0840651  15.1473474  51.5715278
  92.3107142  14.0550432  50.8639417  83.5213509   8.0494275  48.2606106
  83.7721547   8.9341285  48.5263682  84.0573057   7.8698876  47.4881198
 107.3445608  11.4807772  44.9281368 106.5909317  10.9115170  44.7725372
 107.4793149  11.4470436  45.8752002  92.7344236  16.3521174  40.6036087
  92.5989911  17.1972710  41.0320935  93.2754049  16.5540452  39.8402021
  86.1873634  13.8696612  41.1764012  86.6998154  14.6639863  41.3269577
  86.8396346  13.1722903  41.1097614  87.9968518  16.9862369  43.2586765
  88.1735147  17.9080333  43.0707749  88.7925352  16.6720788  43.6881145
  87.2820875   9.0327001  53.1348928  87.1674390   8.1312258  53.4356027
  86.4265393   9.2790697  52.7833745  94.3612713  16.9744741  54.7336429
  93.9176567  16.1881119  54.4157334  95.0229926  17.1623891  54.0680320
  89.1199834  18.5040542  49.2597108  89.6707259  18.3757606  48.4874102
  88.2811310  18.8035431  48.9092000  96.4593951  17.2547541  52.7617830
  96.4412426  18.0756422  52.2698100  97.3813871  17.1301616  52.9867971
  92.9167005  14.7691670  53.6041339  93.4495342  14.0079958  53.3740647
  92.3881086  14.4765322  54.3465493  84.1522550  12.1985267  41.9523583
  84.9897772  12.6082275  41.7357290  84.3300818  11.2584709  41.9223776
  96.0486982   9.8660347  37.6407416  95.5333606  10.6364952  37.8795803
  95.7764291   9.1925483  38.2640477  93.6334094   4.7110048  42.6992654
  92.7775690   4.3216898  42.5198293  94.0461045   4.7902009  41.8392439
 101.0221257  12.6192702  39.5760589 100.2450699  12.2803861  39.1315751
 101.7012738  12.6245325  38.9015554  95.8373286   7.7387439  39.4667197
  95.5323421   8.0533589  40.3177340  96.7903728   7.8168859  39.5094530
  94.2819718  13.8977663  41.1160151  93.7541079  13.1630422  40.8033388
  93.7807220  14.6752339  40.8700119  99.2612564  12.0926683  46.2327197
  98.6036238  12.7825945  46.3207326 100.0652963  12.4823115  46.5761183
  89.0138445   4.5597329  43.4766762  89.5882197   4.3372510  42.7439955
  89.6009428   4.6286023  44.2295364  98.0718022  10.4471056  44.2831139
  98.5849904  11.0801048  44.7852849  98.7219246   9.8472251  43.9174499
  89.3408032   6.5901790  37.4962648  88.5045344   6.9276477  37.8171922
  89.2012802   6.4550770  36.5589784  92.4272318  11.7157873  34.1195124
  91.5199379  11.4847126  34.3186273  92.9243350  10.9195492  34.3069105
  95.3340397  20.4255380  37.0391810  94.6602095  20.7287077  37.6476768
  95.7206219  21.2284460  36.6897267  94.5498853   7.9220511  46.5289479
  93.6321415   8.1435458  46.3711167  94.9658997   7.9966822  45.6701187
  95.3333901   9.3211927  41.6592160  96.0805720   9.8333324  41.3499282
  95.6025490   8.9995980  42.5196553  93.6060551  11.8170468  38.6419114
  92.6971770  11.5329501  38.7391584  93.6355635  12.2369546  37.7822421
  98.8379819  15.4277057  42.4110281  98.3842146  14.5867967  42.4675472
  98.2073785  16.0638456  42.7485062  97.7812738   6.3569043  43.6410949
  97.0435495   5.8446430  43.9721191  98.0339512   5.9169425  42.8294226
  97.2812758  17.2653554  43.3460100  97.5735732  17.8258611  42.6272465
  97.7911378  17.5582115  44.1013259  84.1748722   9.5375982  42.6234316
  83.9773121   8.9445343  41.8985383  83.6195386   9.2328192  43.3410255
  92.1545445   9.4299088  44.7428909  92.2094055   8.4772925  44.6671386
  91.3436647   9.5858528  45.2270208  93.3036639  13.3579211  35.9807192
  92.8656069  12.6415070  35.5212830  94.0447080  13.5855326  35.4192284
  90.0937805   8.0476148  42.5019288  89.2805671   8.3470319  42.9084480
  90.5896799   7.6531837  43.2193770  92.2446383  18.0433905  44.4353553
  92.2022562  18.2694751  43.5062085  93.1609082  17.8097280  44.5839354
  95.6912017   8.5117973  51.3334182  96.0461404   8.7389446  52.1928648
  96.3384148   8.8436349  50.7111437 101.4209754  11.6336409  42.0383511
 101.2827652  11.8238005  41.1104700 101.0645973  12.3955791  42.4951562
  89.5851880   5.6194504  48.1180523  90.2251259   5.4783263  47.4203486
  88.7529410   5.3329017  47.7419125 101.4479133  13.7012936  47.0494782
 101.8815640  13.6088225  47.8977837 102.1610714  13.6770436  46.4114798
  90.3612184  14.9196934  44.2315515  91.1552782  14.4247254  44.0298090
  89.6503876  14.3914797  43.8683221  95.1807028  17.3015030  48.5827883
  95.2344051  17.8705966  49.3505599  94.3121810  17.4716915  48.2181920
  86.6694947   9.0640016  40.3075268  85.7392535   9.0024471  40.5245230
  86.7652419   8.5415969  39.5111909  86.5880496   5.5894829  42.8953510
  86.8487314   6.5040162  42.7862670  87.4097669   5.1219271  43.0450123
  88.0605422   7.0032586  50.0652334  88.7328475   6.7949948  49.4164983
  87.2335208   6.8054672  49.6257567 102.3094683  13.7436636  49.5827668
 102.5030573  14.6482447  49.8286943 102.2095301  13.2844055  50.4166253
  97.3709792  13.8943379  55.1568549  97.2195298  13.6653931  54.2398632
  97.3614471  14.8513980  55.1699894  94.1395128  11.4675292  50.1414815
  95.0687188  11.6186451  49.9683782  93.7186158  11.5559312  49.2863461
  92.9383460  15.4925956  47.9113353  92.7994545  15.1244741  48.7839291
  92.1498056  16.0073596  47.7397310  93.5331612  20.5935053  39.2538889
  93.7083367  20.1223096  40.0684512  92.8464400  21.2200819  39.4820150
  94.4888675  14.8707559  45.3002190  94.1538508  14.8308329  46.1959840
  93.9892621  14.2052275  44.8272601  88.4632919  10.2775189  50.8254772
  88.3252717   9.5455428  51.4266311  89.3737842  10.1884089  50.5438959
  97.4247867  12.2163593  35.5739250  96.8077037  11.4910421  35.4772303
  96.9564355  12.9772953  35.2306324  91.0915220   9.9895148  50.3138451
  91.8014838   9.3488340  50.2725070  91.0484528  10.2408043  51.2364632
  99.0801998  16.9262501  53.2345030  99.0214544  16.2421722  52.5675613
  99.4821517  17.6681491  52.7825656  89.8044153   6.9760366  52.1334091
  89.2681511   6.5251104  52.7855687  89.2160862   7.1106275  51.3904555
  88.0992697  23.7424415  46.0278749  88.3389295  24.3742939  46.7057768
  87.2561893  23.3912455  46.3144109  89.2146412   6.4349017  34.6960554
  88.3375879   6.3137818  34.3322801  89.6904166   5.6435096  34.4439443
  99.0819405  14.8902085  51.4659010  98.1946184  14.5528007  51.5885409
  99.6517957  14.1585117  51.7027775  80.7348553  11.2226177  44.7902061
  81.4219592  10.9087907  44.2023077  80.5796681  12.1267542  44.5169313
  85.5383275   6.1116374  49.2187085  85.4541463   5.5042043  48.4837495
  84.7165981   6.6025392  49.2196581  92.6120559  19.5503538  48.4320253
  92.5390730  20.3558509  48.9439558  92.1697952  19.7495504  47.6068275
  92.4010338  18.7875308  41.9423075  91.6177860  19.3296988  42.0361299
  93.1003084  19.3049287  42.3417316 103.5636746  10.3010303  46.2275572
 103.5526622  11.1835018  45.8569505 102.6954125   9.9481854  46.0330109
  96.7936769  13.3541624  42.1595704  95.8593048  13.4743087  41.9900408
  96.9713438  12.4514091  41.8955713  92.2941957   6.7387320  44.3128965
  91.9239745   6.1858361  45.0009870  92.7901050   6.1345454  43.7603965
 100.1809321   9.1958944  42.6945738 100.6469773  10.0286935  42.6206040
 100.6316821   8.7303925  43.3990996  90.1231156  17.1984815  51.4083983
  90.8240615  17.8321298  51.5613377  89.6526271  17.5399547  50.6479622
  98.2485552  15.5402765  39.6931890  98.5245396  15.4259360  40.6025764
  97.3790050  15.1420250  39.6544063  97.9232442   9.7529423  49.2336533
  97.2703892  10.0005330  48.5788986  98.3012822   8.9393561  48.8999010
  94.8839616  19.7889116  43.3364703  95.0662010  18.9710772  43.7992456
  95.7072602  20.0056808  42.8989593  95.2181781  18.7157301  40.5979752
  95.7469548  18.2049756  39.9849914  95.4810001  18.3999831  41.4625285
  93.9720015  10.4949234  55.7202570  93.2960652  10.3943363  56.3904945
  94.7947649  10.3388448  56.1838567  85.7198874  16.7321170  48.3415085
  86.3052311  15.9864858  48.4742990  85.5223712  17.0425127  49.2251749
  88.5737529  19.7672418  43.3577528  87.9047904  20.2518545  42.8741568
  88.4350399  20.0141638  44.2720906  80.3116529   9.3026771  47.0619529
  80.3500628   8.7690361  47.8556647  79.8056822   8.7761976  46.4430506
  87.6907291   4.1491311  50.5582071  87.7548618   5.0106142  50.1459469
  87.6274411   3.5365313  49.8254429  87.1659564   6.2214444  54.2055105
  87.7931602   5.8391521  54.8192629  86.3087482   6.0028646  54.5710798
  97.5653672  16.6277419  55.8108841  98.1093576  17.2407377  55.3163795
  96.9840517  17.1856997  56.3275854  83.9425106   8.0290873  40.1373460
  84.2378547   7.1201551  40.0840514  83.0413142   8.0078612  39.8154462
  95.8511185  19.7498137  46.9423868  95.7262325  18.9487877  46.4334814
  96.5090276  20.2444330  46.4537838  87.4719353   6.1046869  46.1201009
  86.7505939   6.7182837  45.9808482  88.2612609   6.6404634  46.0417654
  97.9146093  17.5507157  48.5703418  96.9676429  17.4312508  48.4981745
  98.2628867  16.6629655  48.6529680  90.2745667   3.4401296  52.3941660
  90.7980069   3.6863592  53.1567970  90.0558000   4.2721331  51.9744798
  85.6712948   5.7104970  40.2612785  85.3425654   4.8302349  40.0787891
  86.0252319   5.6552639  41.1489174  94.9192527  17.3459873  44.7707771
  94.7717489  16.4176580  44.9515341  95.7446020  17.3679964  44.2864846
  88.7854771   5.9977940  40.6288263  89.1250844   6.5263861  39.9066871
  89.2326892   6.3358346  41.4046829  98.5226649  18.1688432  45.8572643
  99.4473196  17.9631293  45.7197095  98.3541952  17.9204833  46.7661985
  91.4798212   4.3814991  50.0791331  91.1395032   3.5822804  50.4812011
  90.7737218   4.6816702  49.5068164  90.7722918   4.4952562  38.8281556
  91.4931281   4.8733815  38.3245272  90.1488222   5.2141439  38.9316533
  94.9154041   5.1997711  39.7639888  95.1317655   6.0822349  39.4628716
  94.4348108   4.8083924  39.0345530  89.6553262   8.1583424  46.3410632
  89.5097843   8.4723727  47.2334914  89.1778466   8.7768324  45.7881531
  91.5149645   5.1485972  46.3891522  91.5011214   4.2527065  46.0523820
  92.2322073   5.1556636  47.0229808  93.3675776   5.5823312  48.4344649
  93.1093554   6.5040383  48.4328980  92.8360816   5.1853747  49.1245114
  98.3121965  18.6874099  41.2134735  98.4858842  18.1220522  40.4608587
  98.8050856  19.4874994  41.0314225  84.1298925  10.6988768  49.2798294
  83.5852393  11.4748576  49.4118568  85.0078274  11.0459573  49.1217415
  90.9186541   4.0300352  41.6579092  91.0402452   3.1016998  41.8569980
  90.6288584   4.0439038  40.7457408 104.1661356  11.4510522  42.8325035
 104.6092502  10.7017847  42.4344158 103.2887866  11.4420659  42.4498767
  99.2997137  18.0040864  38.3131633  99.9948042  18.6247556  38.5318948
  99.6420287  17.1536215  38.5884011  84.9164946   9.8258665  52.1728451
  84.1746683   9.9741300  52.7593081  84.5957691  10.0866930  51.3095200
 101.1988560  15.4540569  39.8418964 101.7239884  15.7927842  39.1168284
 101.1110913  14.5187584  39.6582099  92.8829221  21.5212552  44.2014217
  92.4434211  21.0288931  44.8947074  93.6337338  20.9785520  43.9606292
  85.3621560  17.7124093  44.2038845  86.1879580  17.4127865  43.8237489
  85.0115612  16.9431716  44.6528634  90.3303093  17.0650562  46.2736519
  89.7083103  16.4021267  45.9738747  91.0007960  17.0911693  45.5910167
  83.5630165  15.6310420  45.1627779  82.7262073  15.2032594  44.9811780
  83.5353811  15.8242863  46.0998570  90.4027621   5.5432350  55.8669025
  90.4515776   6.4194472  55.4846794  90.9450135   5.0009743  55.2940668
 100.8882466  16.0873473  55.1470162 100.0978010  16.0697612  54.6074661
 100.6515821  16.6261767  55.9019198 101.0080342  12.9365939  52.4602890
 101.0578346  12.7715947  53.4018413 100.8994265  12.0693198  52.0700771
  89.8916600  15.6154485  39.7494979  90.0404721  16.2989949  39.0961652
  90.6983044  15.5959575  40.2644435  98.2984104   8.9196867  53.7762197
  99.1993967   8.7803332  53.4846195  98.3732078   9.0851322  54.7160375
  92.6326909   6.2963722  52.6215383  91.7630219   6.5897288  52.3497972
  92.8686390   6.8804167  53.3422647 102.5098538  15.3562881  52.7044912
 102.2183347  15.7192861  53.5408373 101.8970670  14.6429889  52.5258244
 103.7094221  12.9215760  45.2247482 104.5441112  13.3605565  45.3885043
 103.8453349  12.4454414  44.4055728 100.7585727  10.4795495  51.1724970
 101.2339848  10.6723142  50.3643821  99.8351292  10.5354681  50.9268354
  87.6469233  11.6419663  40.7556048  87.4015275  10.7381993  40.9536258
  87.8165148  11.6436813  39.8135526  86.9164881   7.3748020  38.2542210
  86.2234126   7.4492375  37.5982246  86.6716633   6.6108364  38.7763727
  93.3912006  18.1102615  37.2206727  92.8185973  18.7292802  36.7677199
  93.9644799  18.6601977  37.7546649  99.4587396   7.3561255  49.4053276
 100.4104818   7.4559353  49.4265500  99.2890846   6.5639524  49.9151360
  96.6109266  18.3939765  38.3515309  97.5439939  18.3285327  38.5548185
  96.5232478  19.2296032  37.8929842  99.2397282  17.7105636  35.3119257
  99.1610914  17.3765499  36.2055014 100.0606949  18.2027404  35.3110729
 101.9375473  10.5767375  48.5195575 101.9051793   9.6383376  48.7055259
 102.5476097  10.6551412  47.7861400  93.7758804   9.4463428  34.5622779
  94.7217909   9.3169636  34.6311197  93.3973049   8.7078090  35.0392207
 107.7552023  11.6383382  47.6601612 108.4855412  11.3768670  48.2209315
 107.1458969  10.9012104  47.7003680 105.8367320   9.7791245  48.2576063
 105.1100484   9.6447209  47.6492555 105.4214607  10.0868073  49.0632781
  93.6597497  13.4981174  56.0223436  94.5800506  13.6759773  56.2163483
  93.6247080  12.5537220  55.8703135  91.9601721   7.3713404  34.4977664
  91.0533177   7.0746517  34.5740378  92.2377702   7.0743223  33.6311951
  82.8779662   8.6919768  44.9476711  82.5582446   7.8385076  44.6551085
  82.3313090   8.9068346  45.7034678  86.6559569  11.4082209  48.6646217
  86.8745579  12.3399317  48.6834251  87.0685343  11.0490183  49.4501021
  91.5287435   6.9815415  58.0548966  91.4284162   7.9309772  57.9861057
  91.3108977   6.6533654  57.1825036  90.7300506   4.2300340  34.6389644
  91.5919670   4.5555238  34.8985461  90.9150850   3.4431836  34.1262709
  82.7467922  12.3122679  46.9169832  82.0531393  11.8976632  46.4039787
  83.4940913  12.3543216  46.3203251  91.3918705  10.4112553  56.8714028
  90.9085786  11.2112914  57.0777917  91.4779644  10.4220498  55.9181472
  84.6604664  12.2440933  44.7935847  84.6375352  12.3428620  43.8417730
  84.9705301  13.0906084  45.1153013  87.3192042  14.3017088  48.9082462
  88.2735296  14.2701031  48.8412393  87.1204566  13.8407712  49.7232688
  87.9091424  12.8718204  51.4753259  88.7284313  13.3662283  51.4988097
  88.1828232  11.9550172  51.4470827  85.6742271  19.8436708  45.9252660
  85.5396739  19.0837109  45.3590658  85.2574333  20.5677608  45.4581448
  96.8101234  15.0273631  34.9329235  97.5137084  15.2323634  35.5486890
  96.0863883  15.5950393  35.1978318  97.6399044  10.7783492  41.0531505
  97.5834246  11.2352044  40.2139137  98.1927387  10.0174177  40.8754348
 105.7616188   9.3069298  44.3852916 105.2015746   9.3762487  45.1584478
 105.1559691   9.1310282  43.6652412  88.8311397  20.7406025  46.1371102
  88.7143781  21.6851457  46.0349792  88.0103843  20.4379586  46.5256901
  98.7187931  15.4656160  36.9827695  99.5533535  15.0337359  36.8005170
  98.5572274  15.2938174  37.9104589  98.3733824  11.9688274  38.3484034
  98.3182627  11.8032545  37.4072478  97.7479879  12.6764307  38.5046224
  83.1626339   7.2056338  52.1745456  83.8085202   6.6955292  52.6632682
  82.9543490   7.9425020  52.7488882  95.6879731  14.2737186  57.6737597
  96.5570890  14.4477838  57.3124232  95.2086482  15.0931602  57.5513326
  91.6119513  20.1465273  46.0137109  90.6615144  20.1467135  45.9001482
  91.9151999  19.3998008  45.4973144  87.5023830   4.3523955  56.2720471
  88.3655291   3.9960760  56.4823795  86.9289240   4.0137850  56.9595875
 107.3472206  25.9825812  47.0782872 107.9850616  25.8632559  46.3746212
 107.2293049  26.9306655  47.1370824 104.1561913  25.9353240  47.0144396
 103.8180424  25.8194304  46.1264931 105.0251681  25.5344405  46.9945402
 100.0148728  27.7888716  43.0041287  99.4513594  27.6978653  42.2357575
  99.9001123  26.9688620  43.4843780 104.6381696  27.0888091  52.9730602
 104.6270337  26.6940890  52.1011106 104.8002335  26.3554164  53.5664373
  97.5613160  29.2839908  45.8425508  98.3534452  28.9430732  45.4271807
  97.8009811  29.3934883  46.7627661 105.5948287  31.4559684  38.3155752
 104.9436267  32.0413764  37.9289766 106.3892650  31.9865879  38.3750790
  99.5203914  28.5448821  38.7142887 100.2934790  27.9977808  38.5755762
  99.8729313  29.4093070  38.9257348 101.3588957  29.8725203  51.9209786
 101.0678823  30.7770834  51.8056452 101.9945941  29.9141731  52.6353855
 102.2845164  27.2502052  48.5111146 102.8808736  27.0258074  47.7968108
 102.3420135  26.5086797  49.1136593 101.8570192  24.7041487  36.3461336
 102.1095713  24.1823008  35.5844799 100.9194751  24.5407632  36.4488020
 106.9013475  23.7077265  44.1536080 107.6876564  23.2896689  43.8026497
 107.1652179  24.6123358  44.3217728 107.0723552  29.1450116  38.8524737
 106.4369385  29.2184742  39.5645641 106.7420959  29.7343715  38.1743816
 112.3021902  23.6452499  45.0569058 113.0347074  23.0751715  45.2906888
 111.5461258  23.2574099  45.4975564 101.5766481  26.6069593  38.5485711
 101.4602739  25.9314496  39.2166796 101.6868741  26.1201967  37.7317864
 103.9198022  26.0679740  42.2532401 103.5556229  25.5410361  42.9645322
 104.7765138  25.6778209  42.0798886 109.8247322  17.3574073  49.5163667
 109.4930647  18.2269484  49.2924882 109.2292936  17.0410357  50.1957697
 103.5603509  21.0969640  37.2493749 103.7277911  21.9649876  37.6164220
 103.3700678  21.2596921  36.3255038 106.3178842  29.5586619  48.9159580
 106.0179565  30.4611657  48.8075387 105.9729901  29.2918802  49.7680732
  99.7691323  26.0100416  44.9496284  98.8441820  25.8776630  45.1573976
 100.0175737  26.7894635  45.4466226 109.7175986  22.0769159  46.5957017
 108.8092863  22.0084567  46.3015778 109.6663582  22.5541104  47.4238842
 103.5392730  23.5527297  38.2340416 103.4192355  23.9984348  39.0725896
 102.8445318  23.9012615  37.6753954  97.1300134  25.6533689  45.7840073
  97.2592516  25.9068168  46.6979485  96.4497586  26.2461397  45.4644728
 103.7916852  23.4958804  54.5391914 103.0150186  24.0552725  54.5294779
 104.4307415  23.9815587  55.0606784 111.5837632  20.2785597  48.3734891
 110.9412012  20.5718130  47.7274685 111.0792561  20.1638518  49.1788087
 109.2377796  24.0248770  39.0620750 110.1495652  24.2576157  38.8868448
 108.7287443  24.6085815  38.4995829 102.0463224  26.3044258  54.1009881
 102.7877908  26.8429302  53.8244705 101.3400209  26.9310547  54.2581433
 107.5218563  28.4473398  52.6982043 107.9301920  28.0055809  51.9536675
 106.7995825  27.8726026  52.9516236 103.8749634  23.3846005  50.0715600
 104.7210829  23.8085419  50.2150249 103.8148271  22.7279629  50.7654163
 107.8447378  29.0074589  46.4534332 107.2156241  29.1720303  45.7510399
 107.4573040  29.4216198  47.2245296 111.7236610  29.9429027  43.8078695
 111.0387648  30.3227928  43.2575729 111.8080459  30.5524353  44.5410643
 107.0249079  21.0450373  51.7296773 106.7810011  21.7992434  51.1931049
 107.3009009  21.4235721  52.5644020 108.9787542  27.5888986  50.4074039
 109.1904437  28.2320746  49.7308420 108.9317290  26.7551302  49.9395969
 106.5813771  20.2006806  47.3110611 105.7198250  20.4988060  47.6027349
 106.6076205  20.4177205  46.3791644 103.3975340  28.7448997  43.7184417
 103.8613686  29.0236700  42.9289039 103.1332138  27.8432442  43.5357507
 100.2899421  28.2920479  46.6564180 100.8600778  28.7207747  46.0181664
 100.8807533  28.0103063  47.3548366 102.3344226  24.8672149  40.5273982
 103.0368269  25.3193193  40.9947908 102.0024855  24.2255968  41.1553875
 100.7824588  23.4583906  54.9025191 100.1523248  24.1400187  55.1360588
 100.6760675  23.3466988  53.9578329  96.0769560  23.1255702  45.8291115
  95.2868614  23.3813231  45.3531226  96.5680807  23.9404040  45.9343156
 110.0933370  30.4660941  48.5796396 110.9150813  30.0641128  48.2979078
 110.0895772  30.3629175  49.5312512  98.0284305  23.4900281  42.7874592
  97.2315469  23.6018976  43.3058088  97.8009898  23.8286933  41.9215483
 103.8589973  30.0144984  50.7357107 103.9234406  30.4765392  51.5715278
 103.1500897  29.3842349  50.8639417  94.3607263  23.3786192  48.2606106
  94.6115301  24.2633202  48.5263682  94.8966811  23.1990794  47.4881198
 118.1839363  26.8099690  44.9281368 117.4303071  26.2407088  44.7725372
 118.3186904  26.7762354  45.8752002 103.5737991  31.6813092  40.6036087
 103.4383665  32.5264628  41.0320935 104.1147803  31.8832370  39.8402021
 100.0605330  17.7604672  57.2650442  99.6672276  17.2070870  57.9398086
 100.8771471  18.0715250  57.6556960  97.0267388  29.1988530  41.1764012
  97.5391909  29.9931780  41.3269577  97.6790101  28.5014820  41.1097614
  98.8362273  32.3154286  43.2586765  99.0128901  33.2372251  43.0707749
  99.6319106  32.0012705  43.6881145 102.9773291  19.1762551  54.8570699
 103.7183005  19.7769704  54.7775161 103.2091214  18.4340189  54.2988741
  98.1214629  24.3618918  53.1348928  98.0068144  23.4604175  53.4356027
  97.2659147  24.6082615  52.7833745 105.2006467  32.3036658  54.7336429
 104.7570321  31.5173037  54.4157334 105.8623681  32.4915809  54.0680320
  99.9593588  33.8332460  49.2597108 100.5101013  33.7049523  48.4874102
  99.1205064  34.1327349  48.9092000 107.2987705  32.5839458  52.7617830
 107.2806180  33.4048339  52.2698100 108.2207625  32.4593534  52.9867971
 103.7560759  30.0983588  53.6041339 104.2889096  29.3371876  53.3740647
 103.2274840  29.8057240  54.3465493 106.9230454  15.2043654  49.1334980
 106.5794724  16.0945296  49.0574091 107.2909417  15.0145311  48.2704565
  94.9916305  27.5277184  41.9523583  95.8291527  27.9374193  41.7357290
  95.1694573  26.5876626  41.9223776 106.8880737  25.1952265  37.6407416
 106.3727360  25.9656870  37.8795803 106.6158045  24.5217401  38.2640477
 104.4727848  20.0401966  42.6992654 103.6169444  19.6508816  42.5198293
 104.8854800  20.1193927  41.8392439 106.0026995  17.5748309  47.0984214
 105.4991790  17.5378444  46.2852019 106.2957602  18.4841052  47.1580870
 102.2469881  17.6587039  46.1050395 103.1122877  17.4629847  45.7456285
 102.3147389  17.4297390  47.0319752 111.8615011  27.9484620  39.5760589
 111.0844454  27.6095779  39.1315751 112.5406492  27.9537243  38.9015554
 106.6767040  23.0679357  39.4667197 106.3717176  23.3825506  40.3177340
 107.6297482  23.1460777  39.5094530 105.1213472  29.2269580  41.1160151
 104.5934834  28.4922340  40.8033388 104.6200975  30.0044257  40.8700119
 110.1006318  27.4218601  46.2327197 109.4429992  28.1117862  46.3207326
 110.9046717  27.8115033  46.5761183  99.8532200  19.8889247  43.4766762
 100.4275952  19.6664428  42.7439955 100.4403182  19.9577941  44.2295364
 108.9111777  25.7762974  44.2831139 109.4243659  26.4092965  44.7852849
 109.5613001  25.1764169  43.9174499 100.1801787  21.9193708  37.4962648
  99.3439099  22.2568394  37.8171922 100.0406556  21.7842687  36.5589784
 102.1554867  16.7630496  42.2041832 101.5019280  16.4479513  41.5798446
 102.1135341  16.1406236  42.9301655 103.2666072  27.0449791  34.1195124
 102.3593134  26.8139044  34.3186273 103.7637104  26.2487410  34.3069105
 106.1734151  35.7547298  37.0391810 105.4995850  36.0578995  37.6476768
 106.5599973  36.5576378  36.6897267 105.3892608  23.2512429  46.5289479
 104.4715169  23.4727376  46.3711167 105.8052751  23.3258740  45.6701187
 106.1727655  24.6503845  41.6592160 106.9199474  25.1625242  41.3499282
 106.4419245  24.3287898  42.5196553 104.4454306  27.1462386  38.6419114
 103.5365525  26.8621418  38.7391584 104.4749389  27.5661464  37.7822421
 109.6773573  30.7568975  42.4110281 109.2235900  29.9159885  42.4675472
 109.0467540  31.3930373  42.7485062 108.6206493  21.6860961  43.6410949
 107.8829249  21.1738347  43.9721191 108.8733266  21.2461343  42.8294226
 108.1206512  32.5945472  43.3460100 108.4129487  33.1550529  42.6272465
 108.6305133  32.8874033  44.1013259 108.7218120  14.4637213  44.2352718
 109.0276997  13.6034576  43.9478633 109.4470725  15.0554833  44.0351712
  95.0142476  24.8667900  42.6234316  94.8166876  24.2737260  41.8985383
  94.4589140  24.5620110  43.3410255 102.9939200  24.7591006  44.7428909
 103.0487809  23.8064843  44.6671386 102.1830402  24.9150445  45.2270208
 104.1430393  28.6871129  35.9807192 103.7049823  27.9706988  35.5212830
 104.8840834  28.9147244  35.4192284 100.9331560  23.3768066  42.5019288
 100.1199425  23.6762236  42.9084480 101.4290554  22.9823755  43.2193770
 103.0840137  33.3725823  44.4353553 103.0416316  33.5986669  43.5062085
 104.0002836  33.1389197  44.5839354 106.5305771  23.8409890  51.3334182
 106.8855159  24.0681363  52.1928648 107.1777902  24.1728267  50.7111437
 112.2603508  26.9628326  42.0383511 112.1221407  27.1529922  41.1104700
 111.9039727  27.7247709  42.4951562 100.4245634  20.9486421  48.1180523
 101.0645014  20.8075180  47.4203486  99.5923165  20.6620935  47.7419125
 112.2872888  29.0304853  47.0494782 112.7209394  28.9380142  47.8977837
 113.0004469  29.0062354  46.4114798 101.2005938  30.2488852  44.2315515
 101.9946537  29.7539172  44.0298090 100.4897631  29.7206715  43.8683221
 106.0200783  32.6306947  48.5827883 106.0737805  33.1997884  49.3505599
 105.1515564  32.8008832  48.2181920  97.5088702  24.3931934  40.3075268
  96.5786290  24.3316389  40.5245230  97.6046174  23.8707886  39.5111909
  97.4274251  20.9186746  42.8953510  97.6881068  21.8332080  42.7862670
  98.2491423  20.4511189  43.0450123  98.8999176  22.3324504  50.0652334
  99.5722230  22.1241866  49.4164983  98.0728963  22.1346590  49.6257567
 113.1488437  29.0728554  49.5827668 113.3424327  29.9774364  49.8286943
 113.0489056  28.6135973  50.4166253 104.8024748  18.9586444  52.0817995
 104.1552663  19.6576394  51.9882472 105.5725764  19.3922588  52.4494243
 108.2103546  29.2235297  55.1568549 108.0589052  28.9945848  54.2398632
 108.2008226  30.1805898  55.1699894 104.9788882  26.7967209  50.1414815
 105.9080942  26.9478369  49.9683782 104.5579912  26.8851230  49.2863461
 103.7777214  30.8217874  47.9113353 103.6388300  30.4536658  48.7839291
 102.9891810  31.3365513  47.7397310 104.3725366  35.9226970  39.2538889
 104.5477122  35.4515013  40.0684512 103.6858154  36.5492736  39.4820150
 105.3282429  30.1999476  45.3002190 104.9932262  30.1600246  46.1959840
 104.8286375  29.5344192  44.8272601  99.3026673  25.6067107  50.8254772
  99.1646471  24.8747345  51.4266311 100.2131597  25.5176007  50.5438959
 108.2641621  27.5455511  35.5739250 107.6470792  26.8202339  35.4772303
 107.7958109  28.3064871  35.2306324 101.9308974  25.3187066  50.3138451
 102.6408593  24.6780258  50.2725070 101.8878282  25.5699961  51.2364632
 109.9195753  32.2554419  53.2345030 109.8608299  31.5713639  52.5675613
 110.3215271  32.9973409  52.7825656 100.6437908  22.3052284  52.1334091
 100.1075265  21.8543022  52.7855687 100.0554616  22.4398193  51.3904555
 100.0540167  21.7640935  34.6960554  99.1769633  21.6429736  34.3322801
 100.5297920  20.9727013  34.4439443 109.9213160  30.2194003  51.4659010
 109.0339939  29.8819925  51.5885409 110.4911711  29.4877034  51.7027775
  91.5742307  26.5518095  44.7902061  92.2613347  26.2379825  44.2023077
  91.4190436  27.4559459  44.5169313 103.4514313  34.8795455  48.4320253
 103.3784485  35.6850427  48.9439558 103.0091706  35.0787421  47.6068275
 103.2404093  34.1167225  41.9423075 102.4571615  34.6588906  42.0361299
 103.9396838  34.6341205  42.3417316 106.5500743  19.9261855  44.5857280
 107.0469443  19.1731817  44.2658350 105.7787725  19.9626172  44.0200490
 114.4030500  25.6302220  46.2275572 114.3920377  26.5126936  45.8569505
 113.5347880  25.2773771  46.0330109 105.9112997  34.7782289  50.5878412
 106.6240969  35.4129754  50.5154313 105.4203026  34.8746155  49.7718414
 107.6330524  28.6833542  42.1595704 106.6986803  28.8035005  41.9900408
 107.8107192  27.7806009  41.8955713 103.1335712  22.0679238  44.3128965
 102.7633499  21.5150278  45.0009870 103.6294804  21.4637371  43.7603965
 111.0203075  24.5250861  42.6945738 111.4863527  25.3578853  42.6206040
 111.4710576  24.0595843  43.3990996 100.9624910  32.5276733  51.4083983
 101.6634370  33.1613216  51.5613377 100.4920025  32.8691464  50.6479622
 109.0879306  30.8694683  39.6931890 109.3639150  30.7551277  40.6025764
 108.2183805  30.4712168  39.6544063 108.9919738  16.8931448  46.7336639
 108.0782818  17.1235675  46.9018846 109.4212839  16.9769893  47.5850671
 108.7626196  25.0821340  49.2336533 108.1097647  25.3297248  48.5788986
 109.1406576  24.2685479  48.8999010 105.7233370  35.1181034  43.3364703
 105.9055765  34.3002690  43.7992456 106.5466356  35.3348726  42.8989593
 106.0575536  34.0449219  40.5979752 106.5863302  33.5341673  39.9849914
 106.3203755  33.7291749  41.4625285 104.8113769  25.8241151  55.7202570
 104.1354406  25.7235281  56.3904945 105.6341403  25.6680365  56.1838567
  96.5592628  32.0613088  48.3415085  97.1446065  31.3156776  48.4742990
  96.3617467  32.3717045  49.2251749  99.4131284  35.0964335  43.3577528
  98.7441659  35.5810463  42.8741568  99.2744153  35.3433556  44.2720906
  91.1510283  24.6318688  47.0619529  91.1894383  24.0982279  47.8556647
  90.6450576  24.1053894  46.4430506 103.5536552  37.1308079  49.9560186
 104.1054860  37.2939700  50.7209271 103.8942746  37.7212517  49.2840211
  98.5301046  19.4783229  50.5582071  98.5942372  20.3398060  50.1459469
  98.4668166  18.8657230  49.8254429  98.0053318  21.5506361  54.2055105
  98.6325357  21.1683439  54.8192629  97.1481237  21.3320563  54.5710798
 108.4047427  31.9569336  55.8108841 108.9487331  32.5699295  55.3163795
 107.8234271  32.5148915  56.3275854  94.7818861  23.3582790  40.1373460
  95.0772302  22.4493469  40.0840514  93.8806897  23.3370530  39.8154462
 106.6904940  35.0790054  46.9423868 106.5656079  34.2779794  46.4334814
 107.3484031  35.5736248  46.4537838  98.3113108  21.4338787  46.1201009
  97.5899694  22.0474755  45.9808482  99.1006364  21.9696552  46.0417654
 108.7539848  32.8799075  48.5703418 107.8070183  32.7604426  48.4981745
 109.1022621  31.9921573  48.6529680 101.1139421  18.7693213  52.3941660
 101.6373823  19.0155510  53.1567970 100.8951755  19.6013248  51.9744798
  96.5106702  21.0396888  40.2612785  96.1819409  20.1594267  40.0787891
  96.8646073  20.9844557  41.1489174 105.7586281  32.6751791  44.7707771
 105.6111244  31.7468498  44.9515341 106.5839775  32.6971881  44.2864846
  99.6248526  21.3269858  40.6288263  99.9644598  21.8555779  39.9066871
 100.0720646  21.6650264  41.4046829 109.3620403  33.4980349  45.8572643
 110.2866951  33.2923211  45.7197095 109.1935706  33.2496751  46.7661985
 102.3191966  19.7106909  50.0791331 101.9788787  18.9114722  50.4812011
 101.6130973  20.0108619  49.5068164 102.9708438  16.7956221  48.5318654
 103.7934507  16.3216699  48.4097544 103.2146502  17.5746705  49.0317340
 101.6116673  19.8244479  38.8281556 102.3325035  20.2025732  38.3245272
 100.9881977  20.5433356  38.9316533 105.7547796  20.5289628  39.7639888
 105.9711410  21.4114266  39.4628716 105.2741863  20.1375842  39.0345530
 100.4947017  23.4875342  46.3410632 100.3491598  23.8015645  47.2334914
 100.0172221  24.1060242  45.7881531 102.3543400  20.4777890  46.3891522
 102.3404969  19.5818983  46.0523820 103.0715828  20.4848553  47.0229808
 104.2069531  20.9115230  48.4344649 103.9487308  21.8332300  48.4328980
 103.6754571  20.5145664  49.1245114 109.1515719  34.0166017  41.2134735
 109.3252597  33.4512439  40.4608587 109.6444611  34.8166912  41.0314225
 101.7580296  19.3592270  41.6579092 101.8796207  18.4308916  41.8569980
 101.4682338  19.3730956  40.7457408 104.6271486  17.0447180  44.7945812
 104.6493183  17.1086513  43.8397792 105.0439545  16.2051689  44.9886318
 115.0055110  26.7802440  42.8325035 115.4486256  26.0309765  42.4344158
 114.1281621  26.7712576  42.4498767 110.1390892  33.3332781  38.3131633
 110.8341796  33.9539474  38.5318948 110.4814042  32.4828133  38.5884011
 112.0382315  30.7832487  39.8418964 112.5633639  31.1219760  39.1168284
 111.9504667  29.8479502  39.6582099 103.7002364  34.6966560  51.9708841
 104.0089490  34.4515707  52.8431540 104.4977846  34.9013199  51.4827711
 103.7222976  36.8504470  44.2014217 103.2827966  36.3580849  44.8947074
 104.4731093  36.3077438  43.9606292  96.2015315  33.0416011  44.2038845
  97.0273335  32.7419783  43.8237489  95.8509367  32.2723633  44.6528634
 101.1696848  32.3942479  46.2736519 100.5476857  31.7313184  45.9738747
 101.8401715  32.4203611  45.5910167  94.4023920  30.9602337  45.1627779
  93.5655828  30.5324512  44.9811780  94.3747565  31.1534781  46.0998570
 101.2421375  20.8724267  55.8669025 101.2909531  21.7486390  55.4846794
 101.7843889  20.3301660  55.2940668 111.7276221  31.4165390  55.1470162
 110.9371765  31.3989529  54.6074661 111.4909576  31.9553684  55.9019198
 111.8474096  28.2657857  52.4602890 111.8972101  28.1007864  53.4018413
 111.7388019  27.3985116  52.0700771 100.7310355  30.9446403  39.7494979
 100.8798475  31.6281867  39.0961652 101.5376798  30.9251493  40.2644435
 109.1377858  24.2488785  53.7762197 110.0387721  24.1095250  53.4846195
 109.2125833  24.4143240  54.7160375 103.4720664  21.6255640  52.6215383
 102.6023973  21.9189206  52.3497972 103.7080144  22.2096085  53.3422647
 113.3492293  30.6854798  52.7044912 113.0577101  31.0484779  53.5408373
 112.7364424  29.9721807  52.5258244 114.5487975  28.2507678  45.2247482
 115.3834867  28.6897482  45.3885043 114.6847104  27.7746331  44.4055728
 111.5979481  25.8087413  51.1724970 112.0733603  26.0015059  50.3643821
 110.6745046  25.8646599  50.9268354  98.4862988  26.9711580  40.7556048
  98.2409030  26.0673910  40.9536258  98.6558902  26.9728731  39.8135526
 106.1759698  17.8435257  50.1380804 106.6941641  18.5796283  49.8127292
 105.8214830  18.1499250  50.9727563  97.7558635  22.7039938  38.2542210
  97.0627880  22.7784293  37.5982246  97.5110387  21.9400281  38.7763727
 106.4272292  14.2635539  45.6581700 106.7074046  13.5958728  46.2842127
 107.2122899  14.4564635  45.1456364 104.2305760  33.4394533  37.2206727
 103.6579727  34.0584720  36.7677199 104.8038554  33.9893895  37.7546649
 110.2981150  22.6853173  49.4053276 111.2498573  22.7851271  49.4265500
 110.1284601  21.8931442  49.9151360 108.3195530  19.7708756  49.5912676
 107.7245462  20.0513769  48.8959165 108.0345226  20.2602657  50.3629418
 107.4503020  33.7231683  38.3515309 108.3833693  33.6577245  38.5548185
 107.3626233  34.5587950  37.8929842 110.0791037  33.0397553  35.3119257
 110.0004668  32.7057417  36.2055014 110.9000703  33.5319321  35.3110729
 112.7769228  25.9059293  48.5195575 112.7445548  24.9675294  48.7055259
 113.3869852  25.9843330  47.7861400 104.6152559  24.7755346  34.5622779
 105.5611663  24.6461554  34.6311197 104.2366804  24.0370008  35.0392207
 112.9263716  22.6970336  48.5653858 112.4102765  21.9128793  48.3783787
 113.8103665  22.3689053  48.7300378 110.5874443  16.4411352  44.5249671
 110.3899264  16.1326440  45.4093003 111.1974149  17.1672991  44.6547601
 118.5945778  26.9675300  47.6601612 119.3249166  26.7060588  48.2209315
 117.9852723  26.2304022  47.7003680 116.6761075  25.1083162  48.2576063
 115.9494238  24.9739127  47.6492555 116.2608362  25.4159991  49.0632781
 104.4991251  28.8273092  56.0223436 105.4194261  29.0051691  56.2163483
 104.4640834  27.8829137  55.8703135 102.7995476  22.7005322  34.4977664
 101.8926931  22.4038435  34.5740378 103.0771457  22.4035140  33.6311951
  93.7173416  24.0211686  44.9476711  93.3976201  23.1676994  44.6551085
  93.1706844  24.2360264  45.7034678  97.4953324  26.7374127  48.6646217
  97.7139334  27.6691234  48.6834251  97.9079098  26.3782101  49.4501021
 104.4157542  17.2442212  40.6521906 103.6058270  16.8989297  41.0277152
 105.1041959  16.9349756  41.2409517 106.3448090  16.3220259  42.2746202
 106.8979129  16.7415712  42.9336225 106.5818176  15.3956007  42.3169158
 102.3681189  22.3107332  58.0548966 102.2677916  23.2601689  57.9861057
 102.1502731  21.9825571  57.1825036 101.5694261  19.5592257  34.6389644
 102.4313425  19.8847156  34.8985461 101.7544605  18.7723753  34.1262709
  93.5861676  27.6414597  46.9169832  92.8925148  27.2268550  46.4039787
  94.3334667  27.6835134  46.3203251 109.7226897  18.4320784  41.7824867
 109.1425566  19.0905588  41.4002919 109.4562830  17.6098128  41.3712284
 108.1730463  17.8325842  43.9846187 108.6730242  17.9442376  43.1760506
 108.8166071  17.5286894  44.6246995 102.2312459  25.7404471  56.8714028
 101.7479541  26.5404831  57.0777917 102.3173398  25.7512416  55.9181472
  95.4998419  27.5732851  44.7935847  95.4769107  27.6720538  43.8417730
  95.8099055  28.4198002  45.1153013  98.1585797  29.6309006  48.9082462
  99.1129050  29.5992948  48.8412393  97.9598320  29.1699630  49.7232688
 108.5051775  20.5920874  40.8381215 107.6177630  20.8770525  40.6201410
 108.9205764  20.4314638  39.9908492 111.8566311  20.6167395  44.5535554
 112.6326701  21.1063848  44.8260171 111.1314445  21.0425449  45.0107424
 114.2938870  21.3295014  45.6109495 114.8883361  21.0890750  44.9002803
 114.3665453  20.6102145  46.2383031  96.5136025  35.1728625  45.9252660
  96.3790493  34.4129026  45.3590658  96.0968088  35.8969525  45.4581448
 107.6494988  30.3565549  34.9329235 108.3530839  30.5615551  35.5486890
 106.9257637  30.9242311  35.1978318 108.4792799  26.1075410  41.0531505
 108.4228000  26.5643962  40.2139137 109.0321141  25.3466095  40.8754348
 112.2897605  21.8965142  41.8781625 112.0334539  21.4961778  42.7089832
 111.6650473  22.6108936  41.7531764 116.6009943  24.6361215  44.3852916
 116.0409500  24.7054405  45.1584478 115.9953446  24.4602200  43.6652412
  99.6705151  36.0697942  46.1371102  99.5537535  37.0143375  46.0349792
  98.8497598  35.7671504  46.5256901 109.5581686  30.7948078  36.9827695
 110.3927290  30.3629277  36.8005170 109.3966029  30.6230092  37.9104589
 109.2127578  27.2980191  38.3484034 109.1576382  27.1324463  37.4072478
 108.5873633  28.0056224  38.5046224 106.5273485  29.6029103  57.6737597
 107.3964645  29.7769756  57.3124232 106.0480237  30.4223520  57.5513326
 102.5223704  16.7988300  37.9269353 102.5102373  17.7430140  38.0837623
 103.4147125  16.6158446  37.6328814 100.6959665  36.7226204  49.3527031
 101.5986912  36.7549815  49.6693526 100.4697036  35.7926655  49.3673366
 102.4513267  35.4757191  46.0137109 101.5008898  35.4759052  45.9001482
 102.7545754  34.7289925  45.4973144 106.3375823  13.3931077  42.1815289
 105.5708219  12.8389564  42.3271972 106.7486528  13.4652946  43.0429441
  98.3417584  19.6815873  56.2720471  99.2049046  19.3252678  56.4823795
  97.7682995  19.3429768  56.9595875 118.1865961  41.3117729  47.0782872
 118.8244371  41.1924477  46.3746212 118.0686804  42.2598573  47.1370824
 114.9955667  41.2645157  47.0144396 114.6574179  41.1486222  46.1264931
 115.8645435  40.8636322  46.9945402 110.8542483  43.1180634  43.0041287
 110.2907348  43.0270571  42.2357575 110.7394878  42.2980538  43.4843780
 115.4775450  42.4180009  52.9730602 115.4664091  42.0232807  52.1011106
 115.6396090  41.6846082  53.5664373 116.4342042  46.7851601  38.3155752
 115.7830021  47.3705682  37.9289766 117.2286404  47.3157796  38.3750790
 110.3597669  43.8740739  38.7142887 111.1328545  43.3269726  38.5755762
 110.7123068  44.7384988  38.9257348 112.1982711  45.2017121  51.9209786
 111.9072577  46.1062752  51.8056452 112.8339696  45.2433648  52.6353855
 113.1238918  42.5793969  48.5111146 113.7202490  42.3549992  47.7968108
 113.1813890  41.8378715  49.1136593 112.6963947  40.0333405  36.3461336
 112.9489467  39.5114926  35.5844799 111.7588506  39.8699550  36.4488020
 117.7407229  39.0369183  44.1536080 118.5270319  38.6188606  43.8026497
 118.0045934  39.9415275  44.3217728 117.9117307  44.4742033  38.8524737
 117.2763140  44.5476660  39.5645641 117.5814713  45.0635632  38.1743816
 123.1415657  38.9744416  45.0569058 123.8740829  38.4043633  45.2906888
 122.3855012  38.5866017  45.4975564 112.4160235  41.9361511  38.5485711
 112.2996493  41.2606414  39.2166796 112.5262495  41.4493885  37.7317864
 114.7591776  41.3971658  42.2532401 114.3949984  40.8702279  42.9645322
 115.6158892  41.0070127  42.0798886 120.6641077  32.6865990  49.5163667
 120.3324402  33.5561401  49.2924882 120.0686690  32.3702274  50.1957697
 114.3997263  36.4261557  37.2493749 114.5671666  37.2941794  37.6164220
 114.2094432  36.5888839  36.3255038 117.1572596  44.8878536  48.9159580
 116.8573320  45.7903575  48.8075387 116.8123656  44.6210720  49.7680732
 110.6085078  41.3392333  44.9496284 109.6835574  41.2068547  45.1573976
 110.8569491  42.1186552  45.4466226 120.5569740  37.4061077  46.5957017
 119.6486618  37.3376485  46.3015778 120.5057336  37.8833021  47.4238842
 114.3786484  38.8819215  38.2340416 114.2586109  39.3276266  39.0725896
 113.6839073  39.2304533  37.6753954 112.1393376  51.6522857  41.8830547
 112.0617406  52.6030682  41.9619028 111.5355020  51.3068729  42.5405474
 114.6310606  38.8250722  54.5391914 113.8543940  39.3844642  54.5294779
 115.2701169  39.3107505  55.0606784 122.4231387  35.6077515  48.3734891
 121.7805767  35.9010048  47.7274685 121.9186315  35.4930435  49.1788087
 120.0771550  39.3540688  39.0620750 120.9889406  39.5868075  38.8868448
 119.5681197  39.9377732  38.4995829 112.8856978  41.6336175  54.1009881
 113.6271663  42.1721219  53.8244705 112.1793964  42.2602464  54.2581433
 118.3612318  43.7765316  52.6982043 118.7695674  43.3347726  51.9536675
 117.6389579  43.2017943  52.9516236 114.7143388  38.7137923  50.0715600
 115.5604583  39.1377336  50.2150249 114.6542026  38.0571547  50.7654163
 118.6841133  44.3366507  46.4534332 118.0549995  44.5012221  45.7510399
 118.2966795  44.7508116  47.2245296 122.5630365  45.2720944  43.8078695
 121.8781403  45.6519846  43.2575729 122.6474214  45.8816271  44.5410643
 117.8642833  36.3742291  51.7296773 117.6203765  37.1284352  51.1931049
 118.1402764  36.7527639  52.5644020 119.8181296  42.9180903  50.4074039
 120.0298191  43.5612663  49.7308420 119.7711044  42.0843220  49.9395969
 117.4207525  35.5298724  47.3110611 116.5592004  35.8279978  47.6027349
 117.4469960  35.7469123  46.3791644 114.2369095  44.0740915  43.7184417
 114.7007440  44.3528618  42.9289039 113.9725893  43.1724359  43.5357507
 111.1293176  43.6212396  46.6564180 111.6994533  44.0499665  46.0181664
 111.7201287  43.3394981  47.3548366 113.1737981  40.1964067  40.5273982
 113.8762024  40.6485111  40.9947908 112.8418609  39.5547886  41.1553875
 111.6218342  38.7875824  54.9025191 110.9917003  39.4692105  55.1360588
 111.5154430  38.6758905  53.9578329 120.9327124  45.7952859  48.5796396
 121.7544568  45.3933046  48.2979078 120.9289527  45.6921093  49.5312512
 108.8678060  38.8192199  42.7874592 108.0709223  38.9310893  43.3058088
 108.6403652  39.1578851  41.9215483 114.6983728  45.3436902  50.7357107
 114.7628160  45.8057309  51.5715278 113.9894651  44.7134267  50.8639417
 105.2001018  38.7078110  48.2606106 105.4509056  39.5925120  48.5263682
 105.7360566  38.5282712  47.4881198 129.0233117  42.1391607  44.9281368
 128.2696826  41.5699005  44.7725372 129.1580658  42.1054272  45.8752002
 114.4131745  47.0105010  40.6036087 114.2777420  47.8556545  41.0320935
 114.9541558  47.2124287  39.8402021 110.8999085  33.0896589  57.2650442
 110.5066030  32.5362788  57.9398086 111.7165225  33.4007168  57.6556960
 107.8661143  44.5280448  41.1764012 108.3785663  45.3223698  41.3269577
 108.5183855  43.8306738  41.1097614 109.6756027  47.6446204  43.2586765
 109.8522656  48.5664169  43.0707749 110.4712861  47.3304623  43.6881145
 113.8167046  34.5054469  54.8570699 114.5576759  35.1061622  54.7775161
 114.0484969  33.7632106  54.2988741 108.9608384  39.6910836  53.1348928
 108.8461899  38.7896093  53.4356027 108.1052902  39.9374533  52.7833745
 116.0400222  47.6328576  54.7336429 115.5964076  46.8464955  54.4157334
 116.7017435  47.8207727  54.0680320 110.7987343  49.1624378  49.2597108
 111.3494768  49.0341441  48.4874102 109.9598819  49.4619267  48.9092000
 118.1381460  47.9131376  52.7617830 118.1199935  48.7340257  52.2698100
 119.0601380  47.7885451  52.9867971 114.5954514  45.4275506  53.6041339
 115.1282851  44.6663794  53.3740647 114.0668595  45.1349157  54.3465493
 117.7624209  30.5335572  49.1334980 117.4188478  31.4237213  49.0574091
 118.1303171  30.3437229  48.2704565 117.7274491  40.5244183  37.6407416
 117.2121115  41.2948787  37.8795803 117.4551800  39.8509319  38.2640477
 115.3121603  35.3693883  42.6992654 114.4563199  34.9800734  42.5198293
 115.7248554  35.4485844  41.8392439 116.8420749  32.9040227  47.0984214
 116.3385545  32.8670362  46.2852019 117.1351356  33.8132969  47.1580870
 113.0863635  32.9878956  46.1050395 113.9516632  32.7921765  45.7456285
 113.1541144  32.7589308  47.0319752 122.7008766  43.2776537  39.5760589
 121.9238208  42.9387697  39.1315751 123.3800247  43.2829160  38.9015554
 117.5160795  38.3971275  39.4667197 117.2110930  38.7117424  40.3177340
 118.4691237  38.4752695  39.5094530 115.9607226  44.5561498  41.1160151
 115.4328588  43.8214258  40.8033388 115.4594729  45.3336174  40.8700119
 120.9400073  42.7510519  46.2327197 120.2823747  43.4409780  46.3207326
 121.7440472  43.1406950  46.5761183 110.6925954  35.2181164  43.4766762
 111.2669706  34.9956346  42.7439955 111.2796937  35.2869859  44.2295364
 119.7505531  41.1054891  44.2831139 120.2637413  41.7384883  44.7852849
 120.4006755  40.5056087  43.9174499 111.0195541  37.2485625  37.4962648
 110.1832853  37.5860312  37.8171922 110.8800311  37.1134605  36.5589784
 112.9948622  32.0922413  42.2041832 112.3413034  31.7771430  41.5798446
 112.9529096  31.4698154  42.9301655 114.1059827  42.3741708  34.1195124
 113.1986888  42.1430962  34.3186273 114.6030859  41.5779328  34.3069105
 117.0127906  51.0839216  37.0391810 116.3389604  51.3870912  37.6476768
 117.3993728  51.8868296  36.6897267 116.2286362  38.5804347  46.5289479
 115.3108924  38.8019294  46.3711167 116.6446506  38.6550657  45.6701187
 117.0121410  39.9795762  41.6592160 117.7593229  40.4917160  41.3499282
 117.2812999  39.6579815  42.5196553 115.2848060  42.4754303  38.6419114
 114.3759279  42.1913336  38.7391584 115.3143144  42.8953382  37.7822421
 120.5167328  46.0860893  42.4110281 120.0629655  45.2451803  42.4675472
 119.8861294  46.7222291  42.7485062 119.4600247  37.0152879  43.6410949
 118.7223004  36.5030265  43.9721191 119.7127021  36.5753260  42.8294226
 118.9600267  47.9237389  43.3460100 119.2523241  48.4842446  42.6272465
 119.4698887  48.2165950  44.1013259 119.5611874  29.7929131  44.2352718
 119.8670751  28.9326494  43.9478633 120.2864479  30.3846751  44.0351712
 113.8332954  40.0882924  44.7428909 113.8881564  39.1356760  44.6671386
 113.0224156  40.2442363  45.2270208 114.9824148  44.0163047  35.9807192
 114.5443578  43.2998906  35.5212830 115.7234589  44.2439162  35.4192284
 111.7725314  38.7059984  42.5019288 110.9593180  39.0054154  42.9084480
 112.2684308  38.3115672  43.2193770 113.9233892  48.7017740  44.4353553
 113.8810071  48.9278587  43.5062085 114.8396591  48.4681115  44.5839354
 117.3699526  39.1701808  51.3334182 117.7248913  39.3973281  52.1928648
 118.0171657  39.5020185  50.7111437 123.0997263  42.2920244  42.0383511
 122.9615161  42.4821840  41.1104700 122.7433482  43.0539627  42.4951562
 111.2639389  36.2778339  48.1180523 111.9038768  36.1367098  47.4203486
 110.4316919  35.9912852  47.7419125 123.1266642  44.3596771  47.0494782
 123.5603149  44.2672060  47.8977837 123.8398223  44.3354271  46.4114798
 112.0399693  45.5780769  44.2315515 112.8340291  45.0831090  44.0298090
 111.3291385  45.0498633  43.8683221 116.8594537  47.9598865  48.5827883
 116.9131559  48.5289801  49.3505599 115.9909319  48.1300750  48.2181920
 108.3482456  39.7223851  40.3075268 107.4180044  39.6608307  40.5245230
 108.4439928  39.1999804  39.5111909 108.2668005  36.2478664  42.8953510
 108.5274823  37.1623997  42.7862670 109.0885178  35.7803107  43.0450123
 109.7392931  37.6616421  50.0652334 110.4115984  37.4533783  49.4164983
 108.9122717  37.4638507  49.6257567 123.9882192  44.4020472  49.5827668
 124.1818082  45.3066282  49.8286943 123.8882810  43.9427891  50.4166253
 115.6418503  34.2878362  52.0817995 114.9946418  34.9868312  51.9882472
 116.4119518  34.7214506  52.4494243 119.0497301  44.5527214  55.1568549
 118.8982807  44.3237766  54.2398632 119.0401980  45.5097816  55.1699894
 115.8182637  42.1259127  50.1414815 116.7474697  42.2770287  49.9683782
 115.3973667  42.2143148  49.2863461 114.6170969  46.1509791  47.9113353
 114.4782054  45.7828576  48.7839291 113.8285565  46.6657431  47.7397310
 115.2119121  51.2518888  39.2538889 115.3870876  50.7806931  40.0684512
 114.5251909  51.8784654  39.4820150 116.1676184  45.5291394  45.3002190
 115.8326016  45.4892164  46.1959840 115.6680130  44.8636110  44.8272601
 110.1420428  40.9359024  50.8254772 110.0040226  40.2039263  51.4266311
 111.0525351  40.8467924  50.5438959 119.1035376  42.8747428  35.5739250
 118.4864546  42.1494257  35.4772303 118.6351864  43.6356789  35.2306324
 112.7702729  40.6478984  50.3138451 113.4802347  40.0072176  50.2725070
 112.7272037  40.8991878  51.2364632 120.7589507  47.5846337  53.2345030
 120.7002053  46.9005557  52.5675613 121.1609026  48.3265327  52.7825656
 111.4831662  37.6344201  52.1334091 110.9469019  37.1834940  52.7855687
 110.8948371  37.7690110  51.3904555 110.8933921  37.0932853  34.6960554
 110.0163388  36.9721654  34.3322801 111.3691675  36.3018931  34.4439443
 120.7606914  45.5485921  51.4659010 119.8733693  45.2111843  51.5885409
 121.3305466  44.8168952  51.7027775 107.2170784  36.7700209  49.2187085
 107.1328972  36.1625879  48.4837495 106.3953490  37.2609227  49.2196581
 114.2908068  50.2087373  48.4320253 114.2178239  51.0142345  48.9439558
 113.8485461  50.4079339  47.6068275 114.0797847  49.4459143  41.9423075
 113.2965369  49.9880823  42.0361299 114.7790593  49.9633123  42.3417316
 117.3894498  35.2553773  44.5857280 117.8863197  34.5023735  44.2658350
 116.6181479  35.2918089  44.0200490 125.2424255  40.9594138  46.2275572
 125.2314131  41.8418854  45.8569505 124.3741634  40.6065689  46.0330109
 116.7506751  50.1074207  50.5878412 117.4634724  50.7421672  50.5154313
 116.2596780  50.2038073  49.7718414 118.4724278  44.0125460  42.1595704
 117.5380557  44.1326922  41.9900408 118.6500947  43.1097927  41.8955713
 113.9729466  37.3971156  44.3128965 113.6027254  36.8442196  45.0009870
 114.4688559  36.7929289  43.7603965 121.8596830  39.8542779  42.6945738
 122.3257282  40.6870771  42.6206040 122.3104330  39.3887761  43.3990996
 111.8018665  47.8568651  51.4083983 112.5028124  48.4905134  51.5613377
 111.3313780  48.1983382  50.6479622 119.9273061  46.1986600  39.6931890
 120.2032905  46.0843195  40.6025764 119.0577559  45.8004085  39.6544063
 119.8313492  32.2223366  46.7336639 118.9176572  32.4527593  46.9018846
 120.2606594  32.3061810  47.5850671 119.6019951  40.4113258  49.2336533
 118.9491401  40.6589166  48.5788986 119.9800331  39.5977396  48.8999010
 116.5627125  50.4472951  43.3364703 116.7449519  49.6294607  43.7992456
 117.3860111  50.6640644  42.8989593 116.8969290  49.3741136  40.5979752
 117.4257057  48.8633591  39.9849914 117.1597510  49.0583667  41.4625285
 115.6507524  41.1533069  55.7202570 114.9748161  41.0527198  56.3904945
 116.4735158  40.9972283  56.1838567 110.2525038  50.4256253  43.3577528
 109.5835413  50.9102381  42.8741568 110.1137908  50.6725474  44.2720906
 114.3930307  52.4599997  49.9560186 114.9448615  52.6231618  50.7209271
 114.7336500  53.0504434  49.2840211 109.3694800  34.8075146  50.5582071
 109.4336126  35.6689977  50.1459469 109.3061920  34.1949148  49.8254429
 108.8447073  36.8798279  54.2055105 109.4719111  36.4975356  54.8192629
 107.9874991  36.6612481  54.5710798 119.2441181  47.2861254  55.8108841
 119.7881085  47.8991212  55.3163795 118.6628026  47.8440833  56.3275854
 117.5298694  50.4081972  46.9423868 117.4049833  49.6071712  46.4334814
 118.1877785  50.9028165  46.4537838 109.1506862  36.7630705  46.1201009
 108.4293448  37.3766672  45.9808482 109.9400118  37.2988469  46.0417654
 119.5933602  48.2090992  48.5703418 118.6463938  48.0896343  48.4981745
 119.9416376  47.3213490  48.6529680 111.9533176  34.0985131  52.3941660
 112.4767578  34.3447428  53.1567970 111.7345509  34.9305166  51.9744798
 107.3500457  36.3688806  40.2612785 107.0213163  35.4886185  40.0787891
 107.7039828  36.3136474  41.1489174 116.5980036  48.0043708  44.7707771
 116.4504998  47.0760416  44.9515341 117.4233529  48.0263799  44.2864846
 110.4642280  36.6561775  40.6288263 110.8038353  37.1847697  39.9066871
 110.9114400  36.9942182  41.4046829 120.2014158  48.8272267  45.8572643
 121.1260705  48.6215128  45.7197095 120.0329461  48.5788668  46.7661985
 113.1585721  35.0398826  50.0791331 112.8182541  34.2406639  50.4812011
 112.4524727  35.3400537  49.5068164 113.8102193  32.1248139  48.5318654
 114.6328262  31.6508617  48.4097544 114.0540256  32.9038622  49.0317340
 112.4510427  35.1536397  38.8281556 113.1718790  35.5317650  38.3245272
 111.8275731  35.8725274  38.9316533 116.5941550  35.8581546  39.7639888
 116.8105164  36.7406184  39.4628716 116.1135617  35.4667759  39.0345530
 111.3340771  38.8167259  46.3410632 111.1885352  39.1307562  47.2334914
 110.8565975  39.4352160  45.7881531 113.1937154  35.8069807  46.3891522
 113.1798723  34.9110901  46.0523820 113.9109582  35.8140471  47.0229808
 115.0463285  36.2407147  48.4344649 114.7881063  37.1624218  48.4328980
 114.5148325  35.8437582  49.1245114 119.9909474  49.3457935  41.2134735
 120.1646351  48.7804357  40.4608587 120.4838365  50.1458829  41.0314225
 112.5974050  34.6884188  41.6579092 112.7189961  33.7600834  41.8569980
 112.3076093  34.7022874  40.7457408 115.4665241  32.3739098  44.7945812
 115.4886937  32.4378431  43.8397792 115.8833300  31.5343607  44.9886318
 125.8448865  42.1094358  42.8325035 126.2880011  41.3601683  42.4344158
 124.9675375  42.1004494  42.4498767 120.9784646  48.6624699  38.3131633
 121.6735551  49.2831392  38.5318948 121.3207796  47.8120050  38.5884011
 122.8776069  46.1124405  39.8418964 123.4027393  46.4511677  39.1168284
 122.7898422  45.1771420  39.6582099 114.5396118  50.0258478  51.9708841
 114.8483245  49.7807625  52.8431540 115.3371600  50.2305117  51.4827711
 114.5616730  52.1796388  44.2014217 114.1221720  51.6872767  44.8947074
 115.3124847  51.6369355  43.9606292 112.0090602  47.7234397  46.2736519
 111.3870612  47.0605102  45.9738747 112.6795469  47.7495529  45.5910167
 112.0815130  36.2016185  55.8669025 112.1303285  37.0778308  55.4846794
 112.6237644  35.6593578  55.2940668 122.5669975  46.7457308  55.1470162
 121.7765519  46.7281447  54.6074661 122.3303330  47.2845602  55.9019198
 122.6867851  43.5949775  52.4602890 122.7365855  43.4299782  53.4018413
 122.5781774  42.7277034  52.0700771 111.5704109  46.2738320  39.7494979
 111.7192230  46.9573785  39.0961652 112.3770553  46.2543410  40.2644435
 119.9771613  39.5780703  53.7762197 120.8781476  39.4387167  53.4846195
 120.0519587  39.7435157  54.7160375 114.3114418  36.9547557  52.6215383
 113.4417728  37.2481123  52.3497972 114.5473899  37.5388002  53.3422647
 124.1886047  46.0146716  52.7044912 123.8970856  46.3776697  53.5408373
 123.5758179  45.3013724  52.5258244 125.3881730  43.5799596  45.2247482
 126.2228621  44.0189400  45.3885043 125.5240858  43.1038249  44.4055728
 122.4373236  41.1379331  51.1724970 122.9127357  41.3306977  50.3643821
 121.5138801  41.1938517  50.9268354 109.3256742  42.3003498  40.7556048
 109.0802784  41.3965828  40.9536258 109.4952657  42.3020648  39.8135526
 117.0153452  33.1727174  50.1380804 117.5335396  33.9088201  49.8127292
 116.6608585  33.4791168  50.9727563 108.5952390  38.0331855  38.2542210
 107.9021635  38.1076210  37.5982246 108.3504142  37.2692199  38.7763727
 117.2666046  29.5927457  45.6581700 117.5467800  28.9250646  46.2842127
 118.0516653  29.7856552  45.1456364 115.0699515  48.7686451  37.2206727
 114.4973482  49.3876638  36.7677199 115.6432308  49.3185812  37.7546649
 121.1374905  38.0145091  49.4053276 122.0892327  38.1143188  49.4265500
 120.9678355  37.2223359  49.9151360 119.1589284  35.1000674  49.5912676
 118.5639216  35.3805687  48.8959165 118.8738981  35.5894575  50.3629418
 118.2896775  49.0523601  38.3515309 119.2227448  48.9869162  38.5548185
 118.2019987  49.8879868  37.8929842 120.9184791  48.3689471  35.3119257
 120.8398423  48.0349335  36.2055014 121.7394458  48.8611239  35.3110729
 123.6162982  41.2351210  48.5195575 123.5839302  40.2967211  48.7055259
 124.2263606  41.3135247  47.7861400 115.4546313  40.1047263  34.5622779
 116.4005418  39.9753472  34.6311197 115.0760558  39.3661925  35.0392207
 123.7657471  38.0262254  48.5653858 123.2496519  37.2420711  48.3783787
 124.6497419  37.6980971  48.7300378 121.4268198  31.7703269  44.5249671
 121.2293019  31.4618358  45.4093003 122.0367903  32.4964908  44.6547601
 129.4339532  42.2967217  47.6601612 130.1642921  42.0352505  48.2209315
 128.8246478  41.5595939  47.7003680 127.5154829  40.4375080  48.2576063
 126.7887993  40.3031045  47.6492555 127.1002116  40.7451909  49.0632781
 115.3385006  44.1565010  56.0223436 116.2588015  44.3343609  56.2163483
 115.3034589  43.2121055  55.8703135 113.6389230  38.0297240  34.4977664
 112.7320686  37.7330353  34.5740378 113.9165211  37.7327058  33.6311951
 115.2551296  32.5734130  40.6521906 114.4452024  32.2281215  41.0277152
 115.9435713  32.2641673  41.2409517 117.1841844  31.6512176  42.2746202
 117.7372883  32.0707630  42.9336225 117.4211931  30.7247924  42.3169158
 113.2074944  37.6399250  58.0548966 113.1071671  38.5893607  57.9861057
 112.9896486  37.3117489  57.1825036 112.4088015  34.8884175  34.6389644
 113.2707179  35.2139073  34.8985461 112.5938359  34.1015671  34.1262709
 120.5620651  33.7612702  41.7824867 119.9819321  34.4197506  41.4002919
 120.2956584  32.9390046  41.3712284 119.0124218  33.1617759  43.9846187
 119.5123996  33.2734294  43.1760506 119.6559826  32.8578812  44.6246995
 113.0706214  41.0696389  56.8714028 112.5873295  41.8696749  57.0777917
 113.1567153  41.0804334  55.9181472 108.9979551  44.9600924  48.9082462
 109.9522805  44.9284866  48.8412393 108.7992075  44.4991547  49.7232688
 109.5878933  43.5302040  51.4753259 110.4071822  44.0246118  51.4988097
 109.8615741  42.6134008  51.4470827 119.3445529  35.9212792  40.8381215
 118.4571385  36.2062443  40.6201410 119.7599519  35.7606555  39.9908492
 122.6960066  35.9459313  44.5535554 123.4720456  36.4355765  44.8260171
 121.9708200  36.3717367  45.0107424 125.1332624  36.6586932  45.6109495
 125.7277115  36.4182668  44.9002803 125.2059208  35.9394063  46.2383031
 118.4888743  45.6857467  34.9329235 119.1924593  45.8907469  35.5486890
 117.7651392  46.2534228  35.1978318 119.3186553  41.4367328  41.0531505
 119.2621755  41.8935879  40.2139137 119.8714896  40.6758012  40.8754348
 123.1291359  37.2257060  41.8781625 122.8728293  36.8253695  42.7089832
 122.5044227  37.9400854  41.7531764 127.4403697  39.9653133  44.3852916
 126.8803255  40.0346322  45.1584478 126.8347200  39.7894118  43.6652412
 110.5098906  51.3989860  46.1371102 110.3931290  52.3435293  46.0349792
 109.6891352  51.0963422  46.5256901 120.3975440  46.1239996  36.9827695
 121.2321044  45.6921194  36.8005170 120.2359783  45.9522009  37.9104589
 120.0521333  42.6272109  38.3484034 119.9970136  42.4616380  37.4072478
 119.4267388  43.3348142  38.5046224 104.8413848  37.8640173  52.1745456
 105.4872711  37.3539127  52.6632682 104.6330999  38.6008855  52.7488882
 117.3667240  44.9321021  57.6737597 118.2358399  45.1061673  57.3124232
 116.8873991  45.7515438  57.5513326 113.3617458  32.1280218  37.9269353
 113.3496128  33.0722058  38.0837623 114.2540880  31.9450363  37.6328814
 111.5353420  52.0518122  49.3527031 112.4380667  52.0841732  49.6693526
 111.3090790  51.1218573  49.3673366 113.2907022  50.8049108  46.0137109
 112.3402653  50.8050970  45.9001482 113.5939508  50.0581843  45.4973144
 117.1769577  28.7222995  42.1815289 116.4101973  28.1681481  42.3271972
 117.5880282  28.7944863  43.0429441 109.1811339  35.0107791  56.2720471
 110.0442800  34.6544595  56.4823795 108.6076749  34.6721685  56.9595875
 129.0259715  56.6409647  47.0782872 129.6638125  56.5216394  46.3746212
 128.9080558  57.5890491  47.1370824 125.8349422  56.5937075  47.0144396
 125.4967933  56.4778140  46.1264931 126.7039190  56.1928240  46.9945402
 121.6936237  58.4472551  43.0041287 121.1301103  58.3562488  42.2357575
 121.5788632  57.6272456  43.4843780 126.3169205  57.7471927  52.9730602
 126.3057845  57.3524725  52.1011106 126.4789844  57.0137999  53.5664373
 119.2400669  59.9423743  45.8425508 120.0321961  59.6014568  45.4271807
 119.4797320  60.0518718  46.7627661 127.2735796  62.1143519  38.3155752
 126.6223776  62.6997600  37.9289766 128.0680159  62.6449714  38.3750790
 121.1991423  59.2032656  38.7142887 121.9722299  58.6561643  38.5755762
 121.5516822  60.0676906  38.9257348 123.0376466  60.5309039  51.9209786
 122.7466332  61.4354669  51.8056452 123.6733450  60.5725566  52.6353855
 123.9632673  57.9085887  48.5111146 124.5596245  57.6841909  47.7968108
 124.0207644  57.1670633  49.1136593 123.5357701  55.3625322  36.3461336
 123.7883222  54.8406844  35.5844799 122.5982260  55.1991468  36.4488020
 128.5800984  54.3661101  44.1536080 129.3664073  53.9480524  43.8026497
 128.8439688  55.2707193  44.3217728 128.7511061  59.8033951  38.8524737
 128.1156894  59.8768578  39.5645641 128.4208468  60.3927550  38.1743816
 133.9809411  54.3036334  45.0569058 134.7134583  53.7335551  45.2906888
 133.2248767  53.9157934  45.4975564 123.2553990  57.2653428  38.5485711
 123.1390248  56.5898332  39.2166796 123.3656250  56.7785802  37.7317864
 125.5985531  56.7263575  42.2532401 125.2343738  56.1994196  42.9645322
 126.4552647  56.3362044  42.0798886 131.5034831  48.0157908  49.5163667
 131.1718156  48.8853319  49.2924882 130.9080445  47.6994192  50.1957697
 125.2391018  51.7553475  37.2493749 125.4065420  52.6233712  37.6164220
 125.0488187  51.9180757  36.3255038 127.9966351  60.2170454  48.9159580
 127.6967074  61.1195493  48.8075387 127.6517410  59.9502637  49.7680732
 121.4478832  56.6684251  44.9496284 120.5229329  56.5360465  45.1573976
 121.6963246  57.4478470  45.4466226 131.3963495  52.7352994  46.5957017
 130.4880372  52.6668403  46.3015778 131.3451091  53.2124939  47.4238842
 125.2180239  54.2111133  38.2340416 125.0979864  54.6568183  39.0725896
 124.5232827  54.5596450  37.6753954 118.8087643  56.3117524  45.7840073
 118.9380025  56.5652003  46.6979485 118.1285095  56.9045232  45.4644728
 122.9787131  66.9814774  41.8830547 122.9011160  67.9322599  41.9619028
 122.3748774  66.6360647  42.5405474 125.4704361  54.1542640  54.5391914
 124.6937695  54.7136560  54.5294779 126.1094924  54.6399423  55.0606784
 133.2625141  50.9369433  48.3734891 132.6199521  51.2301966  47.7274685
 132.7580070  50.8222353  49.1788087 130.9165305  54.6832606  39.0620750
 131.8283161  54.9159993  38.8868448 130.4074952  55.2669650  38.4995829
 123.7250733  56.9628093  54.1009881 124.4665417  57.5013137  53.8244705
 123.0187718  57.5894382  54.2581433 129.2006072  59.1057234  52.6982043
 129.6089429  58.6639644  51.9536675 128.4783334  58.5309861  52.9516236
 125.5537143  54.0429840  50.0715600 126.3998338  54.4669254  50.2150249
 125.4935780  53.3863465  50.7654163 129.5234887  59.6658424  46.4534332
 128.8943750  59.8304138  45.7510399 129.1360549  60.0800034  47.2245296
 133.4024119  60.6012862  43.8078695 132.7175157  60.9811763  43.2575729
 133.4867968  61.2108189  44.5410643 128.7036588  51.7034209  51.7296773
 128.4597520  52.4576269  51.1931049 128.9796518  52.0819556  52.5644020
 130.6575051  58.2472821  50.4074039 130.8691946  58.8904581  49.7308420
 130.6104799  57.4135138  49.9395969 128.2601280  50.8590642  47.3110611
 127.3985759  51.1571895  47.6027349 128.2863714  51.0761041  46.3791644
 125.0762849  59.4032832  43.7184417 125.5401195  59.6820535  42.9289039
 124.8119647  58.5016277  43.5357507 121.9686930  58.9504314  46.6564180
 122.5388287  59.3791582  46.0181664 122.5595042  58.6686899  47.3548366
 124.0131735  55.5255985  40.5273982 124.7155778  55.9777028  40.9947908
 123.6812364  54.8839804  41.1553875 122.4612097  54.1167741  54.9025191
 121.8310757  54.7984022  55.1360588 122.3548184  54.0050823  53.9578329
 117.7557069  53.7839537  45.8291115 116.9656123  54.0397066  45.3531226
 118.2468316  54.5987875  45.9343156 131.7720879  61.1244777  48.5796396
 132.5938322  60.7224964  48.2979078 131.7683281  61.0213011  49.5312512
 119.7071814  54.1484117  42.7874592 118.9102978  54.2602811  43.3058088
 119.4797407  54.4870769  41.9215483 125.5377482  60.6728820  50.7357107
 125.6021915  61.1349227  51.5715278 124.8288406  60.0426185  50.8639417
 116.0394772  54.0370028  48.2606106 116.2902810  54.9217038  48.5263682
 116.5754320  53.8574629  47.4881198 139.8626872  57.4683525  44.9281368
 139.1090580  56.8990923  44.7725372 139.9974413  57.4346190  45.8752002
 125.2525500  62.3396927  40.6036087 125.1171174  63.1848463  41.0320935
 125.7935312  62.5416205  39.8402021 121.7392839  48.4188507  57.2650442
 121.3459785  47.8654706  57.9398086 122.5558980  48.7299086  57.6556960
 118.7054897  59.8572365  41.1764012 119.2179418  60.6515616  41.3269577
 119.3577610  59.1598656  41.1097614 120.5149782  62.9738122  43.2586765
 120.6916410  63.8956086  43.0707749 121.3106615  62.6596541  43.6881145
 124.6560800  49.8346386  54.8570699 125.3970514  50.4353539  54.7775161
 124.8878723  49.0924024  54.2988741 119.8002138  55.0202754  53.1348928
 119.6855653  54.1188011  53.4356027 118.9446656  55.2666450  52.7833745
 126.8793976  62.9620494  54.7336429 126.4357830  62.1756872  54.4157334
 127.5411190  63.1499644  54.0680320 121.6381097  64.4916295  49.2597108
 122.1888522  64.3633359  48.4874102 120.7992573  64.7911184  48.9092000
 128.9775214  63.2423294  52.7617830 128.9593689  64.0632175  52.2698100
 129.8995134  63.1177369  52.9867971 125.4348268  60.7567423  53.6041339
 125.9676605  59.9955711  53.3740647 124.9062349  60.4641075  54.3465493
 128.6017963  45.8627489  49.1334980 128.2582233  46.7529131  49.0574091
 128.9696926  45.6729147  48.2704565 116.6703814  58.1861020  41.9523583
 117.5079036  58.5958028  41.7357290 116.8482082  57.2460462  41.9223776
 128.5668246  55.8536100  37.6407416 128.0514869  56.6240705  37.8795803
 128.2945554  55.1801236  38.2640477 126.1515357  50.6985801  42.6992654
 125.2956953  50.3092651  42.5198293 126.5642309  50.7777762  41.8392439
 127.6814504  48.2332144  47.0984214 127.1779299  48.1962280  46.2852019
 127.9745110  49.1424887  47.1580870 123.9257390  48.3170874  46.1050395
 124.7910386  48.1213683  45.7456285 123.9934898  48.0881226  47.0319752
 133.5402520  58.6068455  39.5760589 132.7631963  58.2679614  39.1315751
 134.2194001  58.6121078  38.9015554 128.3554549  53.7263192  39.4667197
 128.0504685  54.0409342  40.3177340 129.3084991  53.8044612  39.5094530
 126.8000981  59.8853416  41.1160151 126.2722343  59.1506175  40.8033388
 126.2988484  60.6628092  40.8700119 131.7793827  58.0802436  46.2327197
 131.1217501  58.7701698  46.3207326 132.5834226  58.4698868  46.5761183
 121.5319709  50.5473082  43.4766762 122.1063460  50.3248264  42.7439955
 122.1190691  50.6161777  44.2295364 130.5899286  56.4346809  44.2831139
 131.1031168  57.0676801  44.7852849 131.2400510  55.8348004  43.9174499
 121.8589296  52.5777543  37.4962648 121.0226608  52.9152230  37.8171922
 121.7194065  52.4426523  36.5589784 123.8342376  47.4214331  42.2041832
 123.1806789  47.1063348  41.5798446 123.7922850  46.7990071  42.9301655
 124.9453581  57.7033626  34.1195124 124.0380643  57.4722879  34.3186273
 125.4424613  56.9071245  34.3069105 127.8521660  66.4131133  37.0391810
 127.1783359  66.7162830  37.6476768 128.2387482  67.2160214  36.6897267
 127.0680117  53.9096264  46.5289479 126.1502678  54.1311211  46.3711167
 127.4840260  53.9842575  45.6701187 127.8515164  55.3087680  41.6592160
 128.5986983  55.8209077  41.3499282 128.1206754  54.9871733  42.5196553
 126.1241815  57.8046221  38.6419114 125.2153034  57.5205254  38.7391584
 126.1536898  58.2245299  37.7822421 131.3561082  61.4152810  42.4110281
 130.9023409  60.5743720  42.4675472 130.7255049  62.0514209  42.7485062
 130.2994002  52.3444796  43.6410949 129.5616758  51.8322183  43.9721191
 130.5520775  51.9045178  42.8294226 129.7994021  63.2529307  43.3460100
 130.0916996  63.8134364  42.6272465 130.3092642  63.5457868  44.1013259
 130.4005629  45.1221048  44.2352718 130.7064506  44.2618412  43.9478633
 131.1258234  45.7138669  44.0351712 116.6929985  55.5251735  42.6234316
 116.4954385  54.9321096  41.8985383 116.1376649  55.2203945  43.3410255
 124.6726709  55.4174841  44.7428909 124.7275318  54.4648678  44.6671386
 123.8617911  55.5734281  45.2270208 125.8217902  59.3454965  35.9807192
 125.3837332  58.6290823  35.5212830 126.5628343  59.5731079  35.4192284
 122.6119069  54.0351901  42.5019288 121.7986934  54.3346072  42.9084480
 123.1078063  53.6407590  43.2193770 124.7627646  64.0309658  44.4353553
 124.7203825  64.2570504  43.5062085 125.6790345  63.7973033  44.5839354
 128.2093280  54.4993726  51.3334182 128.5642668  54.7265199  52.1928648
 128.8565411  54.8312102  50.7111437 133.9391017  57.6212162  42.0383511
 133.8008916  57.8113758  41.1104700 133.5827236  58.3831544  42.4951562
 122.1033143  51.6070257  48.1180523 122.7432523  51.4659016  47.4203486
 121.2710674  51.3204770  47.7419125 133.9660397  59.6888689  47.0494782
 134.3996903  59.5963978  47.8977837 134.6791977  59.6646189  46.4114798
 122.8793447  60.9072687  44.2315515 123.6734046  60.4123007  44.0298090
 122.1685140  60.3790550  43.8683221 127.6988292  63.2890783  48.5827883
 127.7525314  63.8581719  49.3505599 126.8303073  63.4592668  48.2181920
 119.1876211  55.0515769  40.3075268 118.2573799  54.9900224  40.5245230
 119.2833683  54.5291722  39.5111909 119.1061760  51.5770582  42.8953510
 119.3668577  52.4915915  42.7862670 119.9278932  51.1095024  43.0450123
 120.5786685  52.9908339  50.0652334 121.2509738  52.7825701  49.4164983
 119.7516472  52.7930425  49.6257567 134.8275946  59.7312389  49.5827668
 135.0211836  60.6358200  49.8286943 134.7276565  59.2719808  50.4166253
 126.4812257  49.6170280  52.0817995 125.8340172  50.3160229  51.9882472
 127.2513272  50.0506424  52.4494243 129.8891055  59.8819132  55.1568549
 129.7376561  59.6529684  54.2398632 129.8795734  60.8389733  55.1699894
 126.6576391  57.4551045  50.1414815 127.5868451  57.6062204  49.9683782
 126.2367421  57.5435066  49.2863461 125.4564723  61.4801709  47.9113353
 125.3175809  61.1120494  48.7839291 124.6679319  61.9949349  47.7397310
 126.0512875  66.5810806  39.2538889 126.2264631  66.1098849  40.0684512
 125.3645663  67.2076572  39.4820150 127.0069938  60.8583312  45.3002190
 126.6719771  60.8184082  46.1959840 126.5073884  60.1928028  44.8272601
 120.9814182  56.2650942  50.8254772 120.8433980  55.5331181  51.4266311
 121.8919106  56.1759842  50.5438959 129.9429130  58.2039346  35.5739250
 129.3258301  57.4786174  35.4772303 129.4745618  58.9648706  35.2306324
 123.6096483  55.9770901  50.3138451 124.3196102  55.3364093  50.2725070
 123.5665791  56.2283796  51.2364632 131.5983262  62.9138255  53.2345030
 131.5395808  62.2297475  52.5675613 132.0002780  63.6557245  52.7825656
 122.3225417  52.9636119  52.1334091 121.7862774  52.5126858  52.7855687
 121.7342125  53.0982028  51.3904555 120.6173960  69.7300168  46.0278749
 120.8570559  70.3618693  46.7057768 119.7743157  69.3788208  46.3144109
 121.7327676  52.4224770  34.6960554 120.8557142  52.3013571  34.3322801
 122.2085429  51.6310849  34.4439443 131.6000669  60.8777838  51.4659010
 130.7127448  60.5403760  51.5885409 132.1699220  60.1460870  51.7027775
 118.0564538  52.0992127  49.2187085 117.9722727  51.4917796  48.4837495
 117.2347245  52.5901145  49.2196581 125.1301822  65.5379291  48.4320253
 125.0571994  66.3434262  48.9439558 124.6879215  65.7371257  47.6068275
 124.9191602  64.7751061  41.9423075 124.1359124  65.3172741  42.0361299
 125.6184347  65.2925040  42.3417316 128.2288252  50.5845690  44.5857280
 128.7256952  49.8315653  44.2658350 127.4575234  50.6210007  44.0200490
 136.0818009  56.2886056  46.2275572 136.0707886  57.1710771  45.8569505
 135.2135389  55.9357607  46.0330109 127.5900506  65.4366125  50.5878412
 128.3028478  66.0713590  50.5154313 127.0990534  65.5329991  49.7718414
 129.3118033  59.3417378  42.1595704 128.3774311  59.4618840  41.9900408
 129.4894701  58.4389844  41.8955713 124.8123221  52.7263073  44.3128965
 124.4421008  52.1734114  45.0009870 125.3082313  52.1221207  43.7603965
 132.6990584  55.1834697  42.6945738 133.1651036  56.0162688  42.6206040
 133.1498085  54.7179678  43.3990996 122.6412419  63.1860568  51.4083983
 123.3421879  63.8197051  51.5613377 122.1707534  63.5275300  50.6479622
 130.7666815  61.5278518  39.6931890 131.0426659  61.4135113  40.6025764
 129.8971314  61.1296003  39.6544063 130.6707247  47.5515284  46.7336639
 129.7570327  47.7819511  46.9018846 131.1000348  47.6353728  47.5850671
 130.4413705  55.7405176  49.2336533 129.7885156  55.9881083  48.5788986
 130.8194085  54.9269314  48.8999010 127.4020879  65.7764869  43.3364703
 127.5843274  64.9586525  43.7992456 128.2253865  65.9932561  42.8989593
 127.7363045  64.7033054  40.5979752 128.2650811  64.1925509  39.9849914
 127.9991264  64.3875584  41.4625285 126.4901278  56.4824987  55.7202570
 125.8141915  56.3819116  56.3904945 127.3128912  56.3264201  56.1838567
 118.2380137  62.7196923  48.3415085 118.8233574  61.9740611  48.4742990
 118.0404976  63.0300880  49.2251749 121.0918793  65.7548171  43.3577528
 120.4229168  66.2394298  42.8741568 120.9531662  66.0017391  44.2720906
 125.2324061  67.7891914  49.9560186 125.7842369  67.9523536  50.7209271
 125.5730255  68.3796352  49.2840211 120.2088554  50.1367064  50.5582071
 120.2729881  50.9981895  50.1459469 120.1455675  49.5241066  49.8254429
 119.6840827  52.2090197  54.2055105 120.3112866  51.8267274  54.8192629
 118.8268746  51.9904399  54.5710798 130.0834936  62.6153172  55.8108841
 130.6274840  63.2283130  55.3163795 129.5021780  63.1732750  56.3275854
 116.4606370  54.0166626  40.1373460 116.7559811  53.1077304  40.0840514
 115.5594406  53.9954365  39.8154462 128.3692449  65.7373890  46.9423868
 128.2443588  64.9363630  46.4334814 129.0271540  66.2320083  46.4537838
 119.9900617  52.0922622  46.1201009 119.2687203  52.7058590  45.9808482
 120.7793873  52.6280387  46.0417654 130.4327357  63.5382910  48.5703418
 129.4857692  63.4188261  48.4981745 130.7810130  62.6505408  48.6529680
 122.7926930  49.4277049  52.3941660 123.3161332  49.6739345  53.1567970
 122.5739264  50.2597084  51.9744798 118.1894211  51.6980723  40.2612785
 117.8606918  50.8178102  40.0787891 118.5433582  51.6428392  41.1489174
 127.4373790  63.3335626  44.7707771 127.2898753  62.4052334  44.9515341
 128.2627284  63.3555717  44.2864846 121.3036035  51.9853693  40.6288263
 121.6432107  52.5139614  39.9066871 121.7508155  52.3234099  41.4046829
 131.0407912  64.1564185  45.8572643 131.9654460  63.9507046  45.7197095
 130.8723215  63.9080586  46.7661985 123.9979475  50.3690744  50.0791331
 123.6576296  49.5698557  50.4812011 123.2918482  50.6692455  49.5068164
 124.6495947  47.4540056  48.5318654 125.4722016  46.9800535  48.4097544
 124.8934011  48.2330540  49.0317340 123.2904182  50.4828315  38.8281556
 124.0112544  50.8609568  38.3245272 122.6669486  51.2017192  38.9316533
 127.4335305  51.1873464  39.7639888 127.6498919  52.0698102  39.4628716
 126.9529372  50.7959677  39.0345530 122.1734526  54.1459177  46.3410632
 122.0279107  54.4599480  47.2334914 121.6959730  54.7644077  45.7881531
 124.0330909  51.1361725  46.3891522 124.0192478  50.2402818  46.0523820
 124.7503337  51.1432389  47.0229808 125.8857040  51.5699065  48.4344649
 125.6274817  52.4916136  48.4328980 125.3542080  51.1729500  49.1245114
 130.8303228  64.6749852  41.2134735 131.0040106  64.1096275  40.4608587
 131.3232120  65.4750747  41.0314225 123.4367805  50.0176105  41.6579092
 123.5583716  49.0892751  41.8569980 123.1469847  50.0314791  40.7457408
 126.3058995  47.7031016  44.7945812 126.3280692  47.7670349  43.8397792
 126.7227054  46.8635524  44.9886318 136.6842619  57.4386275  42.8325035
 137.1273765  56.6893600  42.4344158 135.8069130  57.4296412  42.4498767
 131.8178401  63.9916617  38.3131633 132.5129305  64.6123309  38.5318948
 132.1601551  63.1411968  38.5884011 133.7169824  61.4416322  39.8418964
 134.2421148  61.7803595  39.1168284 133.6292176  60.5063338  39.6582099
 125.3789873  65.3550396  51.9708841 125.6876999  65.1099543  52.8431540
 126.1765355  65.5597034  51.4827711 125.4010485  67.5088305  44.2014217
 124.9615475  67.0164684  44.8947074 126.1518602  66.9661273  43.9606292
 117.8802824  63.6999846  44.2038845 118.7060844  63.4003618  43.8237489
 117.5296876  62.9307469  44.6528634 122.8484357  63.0526315  46.2736519
 122.2264366  62.3897020  45.9738747 123.5189224  63.0787446  45.5910167
 116.0811429  61.6186173  45.1627779 115.2443337  61.1908347  44.9811780
 116.0535074  61.8118616  46.0998570 122.9208884  51.5308103  55.8669025
 122.9697040  52.4070225  55.4846794 123.4631398  50.9885496  55.2940668
 133.4063730  62.0749226  55.1470162 132.6159274  62.0573365  54.6074661
 133.1697085  62.6137520  55.9019198 133.5261605  58.9241692  52.4602890
 133.5759610  58.7591700  53.4018413 133.4175528  58.0568951  52.0700771
 122.4097864  61.6030238  39.7494979 122.5585984  62.2865702  39.0961652
 123.2164307  61.5835328  40.2644435 130.8165367  54.9072620  53.7762197
 131.7175230  54.7679085  53.4846195 130.8913342  55.0727075  54.7160375
 125.1508173  52.2839475  52.6215383 124.2811482  52.5773041  52.3497972
 125.3867653  52.8679920  53.3422647 135.0279802  61.3438634  52.7044912
 134.7364610  61.7068614  53.5408373 134.4151933  60.6305642  52.5258244
 136.2275484  58.9091514  45.2247482 137.0622376  59.3481318  45.3885043
 136.3634613  58.4330167  44.4055728 133.2766990  56.4671248  51.1724970
 133.7521112  56.6598895  50.3643821 132.3532555  56.5230434  50.9268354
 120.1650497  57.6295416  40.7556048 119.9196539  56.7257746  40.9536258
 120.3346411  57.6312566  39.8135526 127.8547207  48.5019092  50.1380804
 128.3729150  49.2380119  49.8127292 127.5002339  48.8083085  50.9727563
 119.4346144  53.3623773  38.2542210 118.7415389  53.4368128  37.5982246
 119.1897896  52.5984117  38.7763727 128.1059801  44.9219374  45.6581700
 128.3861554  44.2542564  46.2842127 128.8910408  45.1148470  45.1456364
 125.9093269  64.0978368  37.2206727 125.3367236  64.7168555  36.7677199
 126.4826063  64.6477730  37.7546649 131.9768659  53.3437008  49.4053276
 132.9286082  53.4435106  49.4265500 131.8072109  52.5515277  49.9151360
 129.9983039  50.4292592  49.5912676 129.4032971  50.7097604  48.8959165
 129.7132735  50.9186493  50.3629418 129.1290529  64.3815518  38.3515309
 130.0621202  64.3161080  38.5548185 129.0413742  65.2171785  37.8929842
 131.7578546  63.6981389  35.3119257 131.6792177  63.3641252  36.2055014
 132.5788212  64.1903157  35.3110729 134.4556737  56.5643128  48.5195575
 134.4233057  55.6259129  48.7055259 135.0657361  56.6427165  47.7861400
 126.2940068  55.4339181  34.5622779 127.2399172  55.3045389  34.6311197
 125.9154313  54.6953843  35.0392207 134.6051225  53.3554172  48.5653858
 134.0890274  52.5712628  48.3783787 135.4891174  53.0272888  48.7300378
 132.2661952  47.0995187  44.5249671 132.0686773  46.7910275  45.4093003
 132.8761658  47.8256826  44.6547601 140.2733287  57.6259135  47.6601612
 141.0036675  57.3644423  48.2209315 139.6640232  56.8887857  47.7003680
 138.3548584  55.7666998  48.2576063 137.6281747  55.6322963  47.6492555
 137.9395871  56.0743826  49.0632781 126.1778760  59.4856927  56.0223436
 127.0981770  59.6635526  56.2163483 126.1428343  58.5412973  55.8703135
 124.4782985  53.3589158  34.4977664 123.5714440  53.0622270  34.5740378
 124.7558966  53.0618976  33.6311951 115.3960925  54.6795521  44.9476711
 115.0763710  53.8260829  44.6551085 114.8494353  54.8944099  45.7034678
 119.1740833  57.3957962  48.6646217 119.3926843  58.3275070  48.6834251
 119.5866607  57.0365936  49.4501021 126.0945051  47.9026047  40.6521906
 125.2845779  47.5573132  41.0277152 126.7829468  47.5933591  41.2409517
 128.0235599  46.9804094  42.2746202 128.5766637  47.3999547  42.9336225
 128.2605685  46.0539842  42.3169158 124.0468698  52.9691168  58.0548966
 123.9465425  53.9185525  57.9861057 123.8290240  52.6409407  57.1825036
 123.2481769  50.2176093  34.6389644 124.1100933  50.5430991  34.8985461
 123.4332114  49.4307589  34.1262709 131.4014406  49.0904619  41.7824867
 130.8213075  49.7489423  41.4002919 131.1350339  48.2681964  41.3712284
 129.8517972  48.4909677  43.9846187 130.3517751  48.6026211  43.1760506
 130.4953580  48.1870730  44.6246995 123.9099968  56.3988307  56.8714028
 123.4267050  57.1988667  57.0777917 123.9960907  56.4096251  55.9181472
 117.1785928  58.2316686  44.7935847 117.1556616  58.3304373  43.8417730
 117.4886564  59.0781837  45.1153013 119.8373306  60.2892841  48.9082462
 120.7916559  60.2576784  48.8412393 119.6385829  59.8283465  49.7232688
 120.4272688  58.8593957  51.4753259 121.2465577  59.3538036  51.4988097
 120.7009495  57.9425925  51.4470827 130.1839284  51.2504710  40.8381215
 129.2965139  51.5354360  40.6201410 130.5993273  51.0898473  39.9908492
 133.5353820  51.2751231  44.5535554 134.3114210  51.7647683  44.8260171
 132.8101954  51.7009285  45.0107424 135.9726379  51.9878850  45.6109495
 136.5670870  51.7474586  44.9002803 136.0452962  51.2685980  46.2383031
 118.1923534  65.8312461  45.9252660 118.0578002  65.0712862  45.3590658
 117.7755597  66.5553361  45.4581448 129.3282497  61.0149384  34.9329235
 130.0318348  61.2199387  35.5486890 128.6045146  61.5826146  35.1978318
 130.1580308  56.7659245  41.0531505 130.1015509  57.2227797  40.2139137
 130.7108650  56.0049930  40.8754348 133.9685114  52.5548977  41.8781625
 133.7122048  52.1545613  42.7089832 133.3437982  53.2692771  41.7531764
 138.2797451  55.2945051  44.3852916 137.7197009  55.3638240  45.1584478
 137.6740955  55.1186035  43.6652412 121.3492660  66.7281778  46.1371102
 121.2325044  67.6727210  46.0349792 120.5285107  66.4255339  46.5256901
 131.2369195  61.4531913  36.9827695 132.0714799  61.0213112  36.8005170
 131.0753538  61.2813927  37.9104589 130.8915087  57.9564027  38.3484034
 130.8363891  57.7908298  37.4072478 130.2661142  58.6640060  38.5046224
 128.2060994  60.2612939  57.6737597 129.0752154  60.4353591  57.3124232
 127.7267746  61.0807355  57.5513326 124.2011213  47.4572136  37.9269353
 124.1889882  48.4013976  38.0837623 125.0934634  47.2742281  37.6328814
 122.3747174  67.3810040  49.3527031 123.2774421  67.4133650  49.6693526
 122.1484545  66.4510491  49.3673366 124.1300776  66.1341026  46.0137109
 123.1796407  66.1342888  45.9001482 124.4333263  65.3873761  45.4973144
 128.0163332  44.0514912  42.1815289 127.2495728  43.4973399  42.3271972
 128.4274037  44.1236781  43.0429441 120.0205093  50.3399708  56.2720471
 120.8836555  49.9836513  56.4823795 119.4470504  50.0013603  56.9595875
 139.8653470  71.9701565  47.0782872 140.5031880  71.8508312  46.3746212
 139.7474313  72.9182409  47.1370824 136.6743176  71.9228993  47.0144396
 136.3361688  71.8070057  46.1264931 137.5432944  71.5220158  46.9945402
 132.5329992  73.7764469  43.0041287 131.9694857  73.6854406  42.2357575
 132.4182387  72.9564374  43.4843780 137.1562959  73.0763844  52.9730602
 137.1451600  72.6816643  52.1011106 137.3183599  72.3429917  53.5664373
 130.0794424  75.2715661  45.8425508 130.8715716  74.9306485  45.4271807
 130.3191074  75.3810636  46.7627661 138.1129551  77.4435437  38.3155752
 137.4617530  78.0289517  37.9289766 138.9073913  77.9741632  38.3750790
 132.0385178  74.5324574  38.7142887 132.8116054  73.9853561  38.5755762
 132.3910577  75.3968823  38.9257348 133.8770220  75.8600956  51.9209786
 133.5860086  76.7646587  51.8056452 134.5127205  75.9017484  52.6353855
 134.8026427  73.2377805  48.5111146 135.3989999  73.0133827  47.7968108
 134.8601399  72.4962550  49.1136593 134.3751456  70.6917240  36.3461336
 134.6276976  70.1698761  35.5844799 133.4376015  70.5283385  36.4488020
 139.4194738  69.6953018  44.1536080 140.2057828  69.2772442  43.8026497
 139.6833443  70.5999111  44.3217728 139.5904816  75.1325869  38.8524737
 138.9550649  75.2060495  39.5645641 139.2602222  75.7219468  38.1743816
 134.0947744  72.5945346  38.5485711 133.9784002  71.9190249  39.2166796
 134.2050004  72.1077720  37.7317864 136.4379285  72.0555493  42.2532401
 136.0737493  71.5286114  42.9645322 137.2946401  71.6653962  42.0798886
 142.3428586  63.3449826  49.5163667 142.0111911  64.2145237  49.2924882
 141.7474199  63.0286110  50.1957697 136.0784772  67.0845393  37.2493749
 136.2459175  67.9525629  37.6164220 135.8881941  67.2472674  36.3255038
 138.8360105  75.5462372  48.9159580 138.5360829  76.4487411  48.8075387
 138.4911165  75.2794555  49.7680732 132.2872587  71.9976169  44.9496284
 131.3623083  71.8652383  45.1573976 132.5357000  72.7770388  45.4466226
 142.2357249  68.0644912  46.5957017 141.3274127  67.9960320  46.3015778
 142.1844845  68.5416857  47.4238842 136.0573993  69.5403050  38.2340416
 135.9373618  69.9860101  39.0725896 135.3626582  69.8888368  37.6753954
 129.6481398  71.6409442  45.7840073 129.7773779  71.8943921  46.6979485
 128.9678849  72.2337150  45.4644728 133.8180885  82.3106692  41.8830547
 133.7404915  83.2614517  41.9619028 133.2142529  81.9652565  42.5405474
 136.3098115  69.4834557  54.5391914 135.5331449  70.0428478  54.5294779
 136.9488678  69.9691340  55.0606784 141.7559059  70.0124523  39.0620750
 142.6676915  70.2451910  38.8868448 141.2468706  70.5961568  38.4995829
 134.5644487  72.2920011  54.1009881 135.3059172  72.8305055  53.8244705
 133.8581473  72.9186300  54.2581433 140.0399827  74.4349151  52.6982043
 140.4483183  73.9931562  51.9536675 139.3177088  73.8601779  52.9516236
 136.3930897  69.3721758  50.0715600 137.2392092  69.7961172  50.2150249
 136.3329535  68.7155382  50.7654163 140.3628642  74.9950342  46.4534332
 139.7337504  75.1596056  45.7510399 139.9754304  75.4091951  47.2245296
 139.5430342  67.0326126  51.7296773 139.2991274  67.7868187  51.1931049
 139.8190273  67.4111474  52.5644020 141.4968805  73.5764739  50.4074039
 141.7085700  74.2196499  49.7308420 141.4498553  72.7427055  49.9395969
 139.0995034  66.1882559  47.3110611 138.2379513  66.4863813  47.6027349
 139.1257469  66.4052958  46.3791644 135.9156603  74.7324750  43.7184417
 136.3794949  75.0112453  42.9289039 135.6513402  73.8308195  43.5357507
 132.8080685  74.2796232  46.6564180 133.3782042  74.7083500  46.0181664
 133.3988796  73.9978816  47.3548366 134.8525490  70.8547902  40.5273982
 135.5549533  71.3068946  40.9947908 134.5206118  70.2131721  41.1553875
 133.3005851  69.4459659  54.9025191 132.6704512  70.1275940  55.1360588
 133.1941939  69.3342741  53.9578329 128.5950823  69.1131455  45.8291115
 127.8049877  69.3688984  45.3531226 129.0862071  69.9279793  45.9343156
 142.6114633  76.4536694  48.5796396 143.4332077  76.0516881  48.2979078
 142.6077036  76.3504928  49.5312512 130.5465569  69.4776034  42.7874592
 129.7496732  69.5894729  43.3058088 130.3191161  69.8162687  41.9215483
 136.3771237  76.0020738  50.7357107 136.4415669  76.4641145  51.5715278
 135.6682160  75.3718102  50.8639417 126.8788526  69.3661945  48.2606106
 127.1296565  70.2508955  48.5263682 127.4148075  69.1866547  47.4881198
 136.0919254  77.6688845  40.6036087 135.9564929  78.5140381  41.0320935
 136.6329067  77.8708123  39.8402021 132.5786594  63.7480425  57.2650442
 132.1853539  63.1946623  57.9398086 133.3952734  64.0591003  57.6556960
 129.5448652  75.1864283  41.1764012 130.0573172  75.9807533  41.3269577
 130.1971364  74.4890573  41.1097614 131.3543536  78.3030039  43.2586765
 131.5310165  79.2248004  43.0707749 132.1500370  77.9888459  43.6881145
 135.4954555  65.1638304  54.8570699 136.2364268  65.7645457  54.7775161
 135.7272478  64.4215942  54.2988741 130.6395893  70.3494671  53.1348928
 130.5249408  69.4479928  53.4356027 129.7840411  70.5958368  52.7833745
 137.7187731  78.2912412  54.7336429 137.2751585  77.5048790  54.4157334
 138.3804944  78.4791562  54.0680320 132.4774852  79.8208213  49.2597108
 133.0282277  79.6925276  48.4874102 131.6386328  80.1203102  48.9092000
 139.8168969  78.5715211  52.7617830 139.7987444  79.3924092  52.2698100
 140.7388889  78.4469287  52.9867971 136.2742023  76.0859341  53.6041339
 136.8070360  75.3247629  53.3740647 135.7456104  75.7932993  54.3465493
 139.4411718  61.1919407  49.1334980 139.0975987  62.0821049  49.0574091
 139.8090680  61.0021065  48.2704565 127.5097568  73.5152937  41.9523583
 128.3472790  73.9249946  41.7357290 127.6875836  72.5752379  41.9223776
 139.4062000  71.1828018  37.6407416 138.8908624  71.9532623  37.8795803
 139.1339309  70.5093154  38.2640477 136.9909111  66.0277719  42.6992654
 136.1350708  65.6384569  42.5198293 137.4036063  66.1069680  41.8392439
 138.5208258  63.5624062  47.0984214 138.0173054  63.5254197  46.2852019
 138.8138865  64.4716805  47.1580870 134.7651144  63.6462792  46.1050395
 135.6304141  63.4505600  45.7456285 134.8328653  63.4173144  47.0319752
 139.1948304  69.0555110  39.4667197 138.8898439  69.3701259  40.3177340
 140.1478746  69.1336530  39.5094530 137.6394735  75.2145333  41.1160151
 137.1116097  74.4798093  40.8033388 137.1382238  75.9920010  40.8700119
 142.6187581  73.4094354  46.2327197 141.9611256  74.0993615  46.3207326
 143.4227981  73.7990786  46.5761183 132.3713463  65.8765000  43.4766762
 132.9457215  65.6540181  42.7439955 132.9584446  65.9453694  44.2295364
 141.4293040  71.7638727  44.2831139 141.9424922  72.3968718  44.7852849
 142.0794264  71.1639922  43.9174499 132.6983050  67.9069461  37.4962648
 131.8620362  68.2444147  37.8171922 132.5587820  67.7718441  36.5589784
 134.6736131  62.7506249  42.2041832 134.0200543  62.4355266  41.5798446
 134.6316605  62.1281989  42.9301655 135.7847336  73.0325544  34.1195124
 134.8774397  72.8014797  34.3186273 136.2818368  72.2363163  34.3069105
 138.6915415  81.7423051  37.0391810 138.0177113  82.0454748  37.6476768
 139.0781237  82.5452131  36.6897267 137.9073871  69.2388182  46.5289479
 136.9896433  69.4603129  46.3711167 138.3234015  69.3134493  45.6701187
 138.6908919  70.6379598  41.6592160 139.4380738  71.1500995  41.3499282
 138.9600508  70.3163651  42.5196553 136.9635569  73.1338139  38.6419114
 136.0546788  72.8497171  38.7391584 136.9930653  73.5537217  37.7822421
 142.1954837  76.7444728  42.4110281 141.7417164  75.9035638  42.4675472
 141.5648803  77.3806126  42.7485062 141.1387756  67.6736714  43.6410949
 140.4010513  67.1614100  43.9721191 141.3914530  67.2337096  42.8294226
 140.6387776  78.5821225  43.3460100 140.9310750  79.1426282  42.6272465
 141.1486396  78.8749786  44.1013259 141.2399383  60.4512966  44.2352718
 141.5458260  59.5910329  43.9478633 141.9651988  61.0430586  44.0351712
 127.5323739  70.8543653  42.6234316 127.3348139  70.2613013  41.8985383
 126.9770403  70.5495863  43.3410255 135.5120463  70.7466759  44.7428909
 135.5669073  69.7940596  44.6671386 134.7011665  70.9026198  45.2270208
 136.6611657  74.6746882  35.9807192 136.2231087  73.9582741  35.5212830
 137.4022098  74.9022997  35.4192284 133.4512823  69.3643819  42.5019288
 132.6380689  69.6637989  42.9084480 133.9471817  68.9699508  43.2193770
 135.6021401  79.3601576  44.4353553 135.5597580  79.5862422  43.5062085
 136.5184100  79.1264950  44.5839354 139.0487035  69.8285643  51.3334182
 139.4036422  70.0557116  52.1928648 139.6959166  70.1604020  50.7111437
 132.9426898  66.9362174  48.1180523 133.5826277  66.7950933  47.4203486
 132.1104428  66.6496688  47.7419125 133.7187202  76.2364605  44.2315515
 134.5127800  75.7414925  44.0298090 133.0078894  75.7082468  43.8683221
 138.5382046  78.6182700  48.5827883 138.5919068  79.1873637  49.3505599
 137.6696828  78.7884585  48.2181920 130.0269965  70.3807687  40.3075268
 129.0967553  70.3192142  40.5245230 130.1227437  69.8583639  39.5111909
 129.9455514  66.9062499  42.8953510 130.2062332  67.8207833  42.7862670
 130.7672687  66.4386942  43.0450123 131.4180440  68.3200257  50.0652334
 132.0903493  68.1117619  49.4164983 130.5910226  68.1222343  49.6257567
 137.3206012  64.9462197  52.0817995 136.6733927  65.6452147  51.9882472
 138.0907027  65.3798341  52.4494243 140.7284810  75.2111050  55.1568549
 140.5770316  74.9821601  54.2398632 140.7189489  76.1681651  55.1699894
 137.4970146  72.7842962  50.1414815 138.4262206  72.9354122  49.9683782
 137.0761176  72.8726983  49.2863461 136.2958478  76.8093627  47.9113353
 136.1569563  76.4412411  48.7839291 135.5073074  77.3241266  47.7397310
 136.8906630  81.9102723  39.2538889 137.0658385  81.4390766  40.0684512
 136.2039418  82.5368489  39.4820150 137.8463693  76.1875229  45.3002190
 137.5113525  76.1475999  46.1959840 137.3467639  75.5219945  44.8272601
 131.8207937  71.5942860  50.8254772 131.6827735  70.8623098  51.4266311
 132.7312860  71.5051760  50.5438959 140.7822885  73.5331264  35.5739250
 140.1652055  72.8078092  35.4772303 140.3139373  74.2940624  35.2306324
 134.4490237  71.3062819  50.3138451 135.1589856  70.6656011  50.2725070
 134.4059546  71.5575714  51.2364632 142.4377016  78.2430172  53.2345030
 142.3789562  77.5589392  52.5675613 142.8396535  78.9849162  52.7825656
 133.1619171  68.2928037  52.1334091 132.6256528  67.8418775  52.7855687
 132.5735880  68.4273946  51.3904555 131.4567715  85.0592086  46.0278749
 131.6964313  85.6910610  46.7057768 130.6136911  84.7080126  46.3144109
 132.5721430  67.7516688  34.6960554 131.6950897  67.6305489  34.3322801
 133.0479183  66.9602766  34.4439443 142.4394423  76.2069756  51.4659010
 141.5521202  75.8695678  51.5885409 143.0092974  75.4752787  51.7027775
 124.0923571  72.5393848  44.7902061 124.7794610  72.2255578  44.2023077
 123.9371699  73.4435213  44.5169313 128.8958293  67.4284044  49.2187085
 128.8116481  66.8209714  48.4837495 128.0740999  67.9193063  49.2196581
 135.9695577  80.8671208  48.4320253 135.8965748  81.6726180  48.9439558
 135.5272970  81.0663174  47.6068275 135.7585356  80.1042979  41.9423075
 134.9752878  80.6464659  42.0361299 136.4578102  80.6216958  42.3417316
 139.0682007  65.9137608  44.5857280 139.5650706  65.1607570  44.2658350
 138.2968988  65.9501925  44.0200490 138.4294260  80.7658043  50.5878412
 139.1422233  81.4005507  50.5154313 137.9384289  80.8621909  49.7718414
 140.1511787  74.6709295  42.1595704 139.2168066  74.7910758  41.9900408
 140.3288456  73.7681762  41.8955713 135.6516975  68.0554991  44.3128965
 135.2814763  67.5026031  45.0009870 136.1476068  67.4513124  43.7603965
 133.4806174  78.5152486  51.4083983 134.1815633  79.1488969  51.5613377
 133.0101289  78.8567218  50.6479622 141.6060570  76.8570436  39.6931890
 141.8820414  76.7427030  40.6025764 140.7365068  76.4587921  39.6544063
 141.5101001  62.8807201  46.7336639 140.5964081  63.1111428  46.9018846
 141.9394103  62.9645646  47.5850671 141.2807460  71.0697093  49.2336533
 140.6278910  71.3173001  48.5788986 141.6587840  70.2561232  48.8999010
 138.2414634  81.1056787  43.3364703 138.4237028  80.2878443  43.7992456
 139.0647620  81.3224479  42.8989593 138.5756799  80.0324972  40.5979752
 139.1044566  79.5217426  39.9849914 138.8385019  79.7167502  41.4625285
 137.3295033  71.8116904  55.7202570 136.6535670  71.7111034  56.3904945
 138.1522667  71.6556118  56.1838567 129.0773892  78.0488841  48.3415085
 129.6627329  77.3032529  48.4742990 128.8798730  78.3592798  49.2251749
 131.9312547  81.0840088  43.3577528 131.2622922  81.5686216  42.8741568
 131.7925417  81.3309309  44.2720906 123.6691547  70.6194441  47.0619529
 123.7075646  70.0858032  47.8556647 123.1631839  70.0929647  46.4430506
 136.0717816  83.1183832  49.9560186 136.6236124  83.2815453  50.7209271
 136.4124009  83.7088270  49.2840211 131.0482309  65.4658982  50.5582071
 131.1123635  66.3273813  50.1459469 130.9849429  64.8532983  49.8254429
 130.5234582  67.5382114  54.2055105 131.1506620  67.1559192  54.8192629
 129.6662500  67.3196316  54.5710798 140.9228690  77.9445089  55.8108841
 141.4668594  78.5575048  55.3163795 140.3415535  78.5024668  56.3275854
 127.3000124  69.3458543  40.1373460 127.5953565  68.4369222  40.0840514
 126.3988160  69.3246283  39.8154462 139.2086203  81.0665807  46.9423868
 139.0837342  80.2655547  46.4334814 139.8665294  81.5612001  46.4537838
 130.8294371  67.4214540  46.1201009 130.1080957  68.0350508  45.9808482
 131.6187627  67.9572305  46.0417654 141.2721111  78.8674828  48.5703418
 140.3251447  78.7480179  48.4981745 141.6203885  77.9797326  48.6529680
 133.6320685  64.7568966  52.3941660 134.1555087  65.0031263  53.1567970
 133.4133018  65.5889001  51.9744798 129.0287966  67.0272641  40.2612785
 128.7000672  66.1470020  40.0787891 129.3827337  66.9720310  41.1489174
 138.2767545  78.6627544  44.7707771 138.1292507  77.7344251  44.9515341
 139.1021038  78.6847634  44.2864846 132.1429789  67.3145611  40.6288263
 132.4825862  67.8431532  39.9066871 132.5901909  67.6526017  41.4046829
 141.8801667  79.4856102  45.8572643 142.8048214  79.2798964  45.7197095
 141.7116970  79.2372504  46.7661985 134.8373230  65.6982662  50.0791331
 134.4970050  64.8990475  50.4812011 134.1312236  65.9984372  49.5068164
 135.4889702  62.7831974  48.5318654 136.3115771  62.3092452  48.4097544
 135.7327765  63.5622458  49.0317340 134.1297936  65.8120232  38.8281556
 134.8506299  66.1901485  38.3245272 133.5063240  66.5309109  38.9316533
 138.2729059  66.5165381  39.7639888 138.4892673  67.3990019  39.4628716
 137.7923126  66.1251595  39.0345530 133.0128280  69.4751095  46.3410632
 132.8672861  69.7891398  47.2334914 132.5353484  70.0935995  45.7881531
 134.8724663  66.4653643  46.3891522 134.8586232  65.5694736  46.0523820
 135.5897091  66.4724306  47.0229808 136.7250794  66.8990983  48.4344649
 136.4668572  67.8208053  48.4328980 136.1935834  66.5021417  49.1245114
 141.6696983  80.0041770  41.2134735 141.8433860  79.4388192  40.4608587
 142.1625874  80.8042665  41.0314225 127.4873943  72.0156439  49.2798294
 126.9427411  72.7916247  49.4118568 128.3653292  72.3627244  49.1217415
 134.2761559  65.3468023  41.6579092 134.3977470  64.4184669  41.8569980
 133.9863602  65.3606709  40.7457408 137.1452750  63.0322933  44.7945812
 137.1674446  63.0962266  43.8397792 137.5620809  62.1927442  44.9886318
 142.6572155  79.3208534  38.3131633 143.3523060  79.9415227  38.5318948
 142.9995305  78.4703886  38.5884011 128.2739964  71.1426335  52.1728451
 127.5321700  71.2908971  52.7593081 127.9532709  71.4034601  51.3095200
 136.2183627  80.6842314  51.9708841 136.5270754  80.4391460  52.8431540
 137.0159109  80.8888952  51.4827711 136.2404239  82.8380223  44.2014217
 135.8009229  82.3456602  44.8947074 136.9912356  82.2953191  43.9606292
 128.7196578  79.0291764  44.2038845 129.5454598  78.7295536  43.8237489
 128.3690630  78.2599386  44.6528634 133.6878111  78.3818232  46.2736519
 133.0658121  77.7188937  45.9738747 134.3582978  78.4079364  45.5910167
 126.9205183  76.9478090  45.1627779 126.0837091  76.5200265  44.9811780
 126.8928829  77.1410534  46.0998570 133.7602639  66.8600020  55.8669025
 133.8090794  67.7362143  55.4846794 134.3025153  66.3177413  55.2940668
 133.2491618  76.9322156  39.7494979 133.3979739  77.6157620  39.0961652
 134.0558062  76.9127246  40.2644435 141.6559122  70.2364538  53.7762197
 142.5568985  70.0971003  53.4846195 141.7307096  70.4018993  54.7160375
 135.9901927  67.6131393  52.6215383 135.1205237  67.9064959  52.3497972
 136.2261408  68.1971838  53.3422647 131.0044251  72.9587333  40.7556048
 130.7590293  72.0549663  40.9536258 131.1740166  72.9604484  39.8135526
 138.6940961  63.8311010  50.1380804 139.2122905  64.5672037  49.8127292
 138.3396094  64.1375003  50.9727563 130.2739899  68.6915691  38.2542210
 129.5809144  68.7660046  37.5982246 130.0291651  67.9276034  38.7763727
 138.9453555  60.2511292  45.6581700 139.2255309  59.5834481  46.2842127
 139.7304162  60.4440388  45.1456364 136.7487024  79.4270286  37.2206727
 136.1760991  80.0460473  36.7677199 137.3219817  79.9769648  37.7546649
 140.8376793  65.7584509  49.5912676 140.2426725  66.0389522  48.8959165
 140.5526490  66.2478410  50.3629418 139.9684283  79.7107436  38.3515309
 140.9014957  79.6452998  38.5548185 139.8807496  80.5463703  37.8929842
 142.5972300  79.0273307  35.3119257 142.5185932  78.6933170  36.2055014
 143.4181967  79.5195074  35.3110729 137.1333822  70.7631099  34.5622779
 138.0792927  70.6337307  34.6311197 136.7548067  70.0245761  35.0392207
 137.0172515  74.8148845  56.0223436 137.9375524  74.9927444  56.2163483
 136.9822098  73.8704890  55.8703135 135.3176739  68.6881075  34.4977664
 134.4108195  68.3914188  34.5740378 135.5952720  68.3910893  33.6311951
 126.2354680  70.0087439  44.9476711 125.9157464  69.1552747  44.6551085
 125.6888108  70.2236017  45.7034678 130.0134587  72.7249880  48.6646217
 130.2320597  73.6566987  48.6834251 130.4260361  72.3657854  49.4501021
 136.9338805  63.2317965  40.6521906 136.1239533  62.8865050  41.0277152
 137.6223222  62.9225509  41.2409517 138.8629353  62.3096012  42.2746202
 139.4160392  62.7291465  42.9336225 139.0999440  61.3831760  42.3169158
 134.8862453  68.2983085  58.0548966 134.7859179  69.2477442  57.9861057
 134.6683995  67.9701324  57.1825036 134.0875524  65.5468010  34.6389644
 134.9494688  65.8722909  34.8985461 134.2725868  64.7599506  34.1262709
 126.1042940  73.6290350  46.9169832 125.4106411  73.2144303  46.4039787
 126.8515931  73.6710887  46.3203251 142.2408160  64.4196537  41.7824867
 141.6606830  65.0781341  41.4002919 141.9744093  63.5973881  41.3712284
 140.6911727  63.8201595  43.9846187 141.1911505  63.9318129  43.1760506
 141.3347335  63.5162647  44.6246995 134.7493723  71.7280224  56.8714028
 134.2660804  72.5280584  57.0777917 134.8354662  71.7388169  55.9181472
 128.0179682  73.5608604  44.7935847 127.9950370  73.6596291  43.8417730
 128.3280319  74.4073755  45.1153013 130.6767060  75.6184759  48.9082462
 131.6310314  75.5868701  48.8412393 130.4779584  75.1575383  49.7232688
 131.2666442  74.1885875  51.4753259 132.0859331  74.6829954  51.4988097
 131.5403250  73.2717843  51.4470827 141.0233038  66.5796627  40.8381215
 140.1358894  66.8646278  40.6201410 141.4387028  66.4190391  39.9908492
 129.0317289  81.1604378  45.9252660 128.8971757  80.4004779  45.3590658
 128.6149351  81.8845278  45.4581448 140.1676252  76.3441302  34.9329235
 140.8712102  76.5491304  35.5486890 139.4438901  76.9118064  35.1978318
 140.9974062  72.0951163  41.0531505 140.9409264  72.5519715  40.2139137
 141.5502405  71.3341848  40.8754348 132.1886415  82.0573695  46.1371102
 132.0718799  83.0019128  46.0349792 131.3678861  81.7547257  46.5256901
 142.0762949  76.7823831  36.9827695 142.9108553  76.3505030  36.8005170
 141.9147292  76.6105845  37.9104589 141.7308842  73.2855944  38.3484034
 141.6757645  73.1200216  37.4072478 141.1054897  73.9931977  38.5046224
 126.5201357  68.5224009  52.1745456 127.1660220  68.0122963  52.6632682
 126.3118508  69.2592690  52.7488882 139.0454749  75.5904856  57.6737597
 139.9145908  75.7645509  57.3124232 138.5661500  76.4099273  57.5513326
 135.0404967  62.7864053  37.9269353 135.0283637  63.7305893  38.0837623
 135.9328389  62.6034199  37.6328814 133.2140929  82.7101957  49.3527031
 134.1168176  82.7425568  49.6693526 132.9878299  81.7802408  49.3673366
 134.9694531  81.4632944  46.0137109 134.0190162  81.4634805  45.9001482
 135.2727017  80.7165678  45.4973144 138.8557086  59.3806830  42.1815289
 138.0889482  58.8265317  42.3271972 139.2667791  59.4528699  43.0429441
 130.8598848  65.6691626  56.2720471 131.7230309  65.3128431  56.4823795
 130.2864258  65.3305521  56.9595875 143.3723746  89.1056387  43.0041287
 142.8088612  89.0146324  42.2357575 143.2576141  88.2856291  43.4843780
 140.9188178  90.6007578  45.8425508 141.7109470  90.2598403  45.4271807
 141.1584829  90.7102553  46.7627661 143.1266341  87.3268086  44.9496284
 142.2016838  87.1944300  45.1573976 143.3750755  88.1062305  45.4466226
 140.4875152  86.9701360  45.7840073 140.6167534  87.2235839  46.6979485
 139.8072604  87.5629068  45.4644728 139.4344578  84.4423373  45.8291115
 138.6443632  84.6980901  45.3531226 139.9255825  85.2571711  45.9343156
 141.3859323  84.8067952  42.7874592 140.5890487  84.9186646  43.3058088
 141.1584916  85.1454604  41.9215483 137.7182281  84.6953863  48.2606106
 137.9690319  85.5800873  48.5263682 138.2541829  84.5158465  47.4881198
 140.3842406  90.5156201  41.1764012 140.8966927  91.3099451  41.3269577
 141.0365119  89.8182491  41.1097614 142.1937291  93.6321957  43.2586765
 142.3703919  94.5539922  43.0707749 142.9894124  93.3180376  43.6881145
 141.4789647  85.6786589  53.1348928 141.3643162  84.7771846  53.4356027
 140.6234165  85.9250286  52.7833745 138.3491323  88.8444855  41.9523583
 139.1866545  89.2541863  41.7357290 138.5269591  87.9044297  41.9223776
 138.3717494  86.1835570  42.6234316 138.1741894  85.5904931  41.8985383
 137.8164158  85.8787781  43.3410255 140.8663720  85.7099604  40.3075268
 139.9361308  85.6484060  40.5245230 140.9621192  85.1875557  39.5111909
 140.7849269  82.2354417  42.8953510 141.0456086  83.1499750  42.7862670
 141.6066441  81.7678860  43.0450123 142.2574194  83.6492174  50.0652334
 142.9297247  83.4409536  49.4164983 141.4303981  83.4514260  49.6257567
 142.2961469 100.3884004  46.0278749 142.5358068 101.0202528  46.7057768
 141.4530666 100.0372044  46.3144109 134.9317325  87.8685766  44.7902061
 135.6188365  87.5547496  44.2023077 134.7765454  88.7727130  44.5169313
 139.7352047  82.7575962  49.2187085 139.6510236  82.1501632  48.4837495
 138.9134754  83.2484980  49.2196581 139.9167646  93.3780759  48.3415085
 140.5021083  92.6324447  48.4742990 139.7192485  93.6884715  49.2251749
 142.7706302  96.4132006  43.3577528 142.1016677  96.8978134  42.8741568
 142.6319171  96.6601227  44.2720906 134.5085301  85.9486359  47.0619529
 134.5469401  85.4149950  47.8556647 134.0025594  85.4221564  46.4430506
 141.8876063  80.7950899  50.5582071 141.9517390  81.6565730  50.1459469
 141.8243184  80.1824901  49.8254429 141.3628336  82.8674032  54.2055105
 141.9900375  82.4851109  54.8192629 140.5056255  82.6488234  54.5710798
 138.1393879  84.6750461  40.1373460 138.4347320  83.7661139  40.0840514
 137.2381915  84.6538201  39.8154462 141.6688126  82.7506458  46.1201009
 140.9474712  83.3642425  45.9808482 142.4581382  83.2864222  46.0417654
 139.8681720  82.3564559  40.2612785 139.5394426  81.4761938  40.0787891
 140.2221091  82.3012227  41.1489174 142.9823543  82.6437529  40.6288263
 143.3219616  83.1723450  39.9066871 143.4295664  82.9817935  41.4046829
 138.3267697  87.3448357  49.2798294 137.7821165  88.1208165  49.4118568
 139.2047047  87.6919161  49.1217415 139.1133719  86.4718253  52.1728451
 138.3715455  86.6200888  52.7593081 138.7926463  86.7326519  51.3095200
 139.5590333  94.3583682  44.2038845 140.3848353  94.0587454  43.8237489
 139.2084385  93.5891304  44.6528634 137.7598938  92.2770008  45.1627779
 136.9230846  91.8492183  44.9811780 137.7322583  92.4702451  46.0998570
 141.8438006  88.2879251  40.7556048 141.5984048  87.3841581  40.9536258
 142.0133920  88.2896401  39.8135526 141.1133653  84.0207608  38.2542210
 140.4202898  84.0951963  37.5982246 140.8685405  83.2567952  38.7763727
 137.0748434  85.3379356  44.9476711 136.7551219  84.4844664  44.6551085
 136.5281862  85.5527934  45.7034678 140.8528342  88.0541797  48.6646217
 141.0714352  88.9858905  48.6834251 141.2654116  87.6949772  49.4501021
 136.9436694  88.9582268  46.9169832 136.2500166  88.5436221  46.4039787
 137.6909685  89.0002804  46.3203251 138.8573437  88.8900522  44.7935847
 138.8344125  88.9888209  43.8417730 139.1674073  89.7365672  45.1153013
 141.5160815  90.9476677  48.9082462 142.4704068  90.9160619  48.8412393
 141.3173338  90.4867300  49.7232688 142.1060197  89.5177793  51.4753259
 142.9253086  90.0121871  51.4988097 142.3797004  88.6009761  51.4470827
 139.8711043  96.4896296  45.9252660 139.7365511  95.7296697  45.3590658
 139.4543106  97.2137196  45.4581448 143.0280169  97.3865613  46.1371102
 142.9112553  98.3311046  46.0349792 142.2072616  97.0839175  46.5256901
 137.3595111  83.8515926  52.1745456 138.0053975  83.3414880  52.6632682
 137.1512262  84.5884608  52.7488882 141.6992602  80.9983544  56.2720471
 142.5624064  80.6420348  56.4823795 141.1258013  80.6597438  56.9595875
  97.5613162   6.2902030  32.5670814  98.3534454   5.9492855  32.1517114
  97.8009812   6.3997005  33.4872968 105.5948288   8.4621806  25.0401059
 104.9436268   9.0475887  24.6535073 106.3892651   8.9928001  25.0996096
 101.3588958   6.8787326  38.6455093 101.0678824   7.7832957  38.5301759
 101.9945943   6.9203853  39.3599162 101.2999623  13.3293062  28.6075854
 101.2223653  14.2800887  28.6864334 100.6961267  12.9838934  29.2650780
 103.5737992   8.6875215  27.3281394 103.4383667   9.5326750  27.7566241
 104.1147804   8.8894492  26.5647327  97.0267389   6.2050653  27.9009319
  97.5391910   6.9993903  28.0514883  97.6790102   5.5076943  27.8342920
  98.8362274   9.3216409  29.9832072  99.0128902  10.2434374  29.7953056
  99.6319108   9.0074828  30.4126452 105.2006468   9.3098781  41.4581736
 104.7570323   8.5235160  41.1402640 105.8623682   9.4977932  40.7925626
  99.9593590  10.8394583  35.9842414 100.5101015  10.7111646  35.2119408
  99.1205065  11.1389472  35.6337307 107.2987706   9.5901581  39.4863137
 107.2806182  10.4110462  38.9943406 108.2207626   9.4655656  39.7113278
 106.1734152  12.7609420  23.7637117 105.4995851  13.0641117  24.3722074
 106.5599974  13.5638501  23.4142574 108.1206514   9.6007594  30.0705406
 108.4129488  10.1612651  29.3517772 108.6305134   9.8936155  30.8258565
 103.0840139  10.3787945  31.1598859 103.0416318  10.6048792  30.2307391
 104.0002838  10.1451320  31.3084661 106.0200784   9.6369070  35.3073190
 106.0737806  10.2060006  36.0750906 105.1515565   9.8070955  34.9427227
 103.7777215   7.8279996  34.6358659 103.6388301   7.4598781  35.5084597
 102.9891812   8.3427636  34.4642617 104.3725367  12.9289093  25.9784196
 104.5477123  12.4577136  26.7929818 103.6858155  13.5554859  26.2065456
  98.9386453  16.0778456  32.7524056  99.1783051  16.7096980  33.4303074
  98.0955649  15.7266496  33.0389415 103.4514315  11.8857578  35.1565560
 103.3784486  12.6912550  35.6684864 103.0091708  12.0849544  34.3313581
 103.2404094  11.1229348  28.6668381 102.4571616  11.6651028  28.7606606
 103.9396839  11.6403328  29.0662623 105.9112998  11.7844412  37.3123719
 106.6240970  12.4191877  37.2399620 105.4203027  11.8808278  36.4963720
 100.9624912   9.5338856  38.1329289 101.6634371  10.1675339  38.2858684
 100.4920027   9.8753587  37.3724929 105.7233372  12.1243156  30.0610010
 105.9055766  11.3064812  30.5237762 106.5466358  12.3410848  29.6234900
 106.0575537  11.0511341  27.3225058 106.5863303  10.5403796  26.7095221
 106.3203757  10.7353872  28.1870592  96.5592630   9.0675211  35.0660392
  97.1446067   8.3218898  35.1988296  96.3617468   9.3779167  35.9497056
  99.4131285  12.1026458  30.0822834  98.7441660  12.5872586  29.5986874
  99.2744155  12.3495678  30.9966213 103.5536554  14.1370202  36.6805493
 104.1054862  14.3001823  37.4454578 103.8942747  14.7274639  36.0085518
 106.6904941  12.0852177  33.6669175 106.5656080  11.2841917  33.1580120
 107.3484032  12.5798370  33.1783145 105.7586283   9.6813913  31.4953077
 105.6111245   8.7530621  31.6760647 106.5839776   9.7034004  31.0110153
 109.3620404  10.5042472  32.5817950 110.2866952  10.2985333  32.4442401
 109.1935708  10.2558873  33.4907292 109.1515721  11.0228140  27.9380041
 109.3252598  10.4574562  27.1853894 109.6444612  11.8229034  27.7559531
 103.7002365  11.7028683  38.6954147 104.0089491  11.4577830  39.5676847
 104.4977847  11.9075322  38.2073017 103.7222977  13.8566593  30.9259524
 103.2827967  13.3642971  31.6192380 104.4731094  13.3139560  30.6851599
  96.2015316  10.0478134  30.9284152  97.0273336   9.7481905  30.5482795
  95.8509368   9.2785756  31.3773940 101.1696849   9.4004602  32.9981825
 100.5476858   8.7375307  32.6984053 101.8401716   9.4265734  32.3155473
  94.4023921   7.9664460  31.8873085  93.5655829   7.5386634  31.7057087
  94.3747566   8.1596903  32.8243877 100.7310356   7.9508525  26.4740286
 100.8798476   8.6343990  25.8206959 101.5376799   7.9313615  26.9889742
 104.2305761  10.4456656  23.9452033 103.6579729  11.0646843  23.4922505
 104.8038555  10.9956017  24.4791955 107.4503021  10.7293806  25.0760616
 108.3833694  10.6639367  25.2793491 107.3626234  11.5650073  24.6175148
  93.5861678   4.6476720  33.6415139  92.8925149   4.2330672  33.1285093
  94.3334669   4.6897256  33.0448558  95.4998420   4.5794973  31.5181154
  95.4769108   4.6782661  30.5663037  95.8099057   5.4260124  31.8398320
  98.1585798   6.6371128  35.6327768  99.1129051   6.6055071  35.5657700
  97.9598322   6.1761752  36.4477994  96.5136027  12.1790748  32.6497966
  96.3790495  11.4191149  32.0835964  96.0968089  12.9031648  32.1826755
  99.6705153  13.0760065  32.8616409  99.5537537  14.0205497  32.7595099
  98.8497599  12.7733627  33.2502208 100.6959667  13.7288327  36.0772337
 101.5986913  13.7611937  36.3938832 100.4697037  12.7988778  36.0918673
 102.4513269  12.4819313  32.7382416 101.5008900  12.4821175  32.6246788
 102.7545755  11.7352048  32.2218451 118.1865962  18.3179852  33.8028178
 118.8244372  18.1986599  33.0991518 118.0686805  19.2660696  33.8616130
 114.9955669  18.2707280  33.7389703 114.6574180  18.1548345  32.8510238
 115.8645437  17.8698445  33.7190709 110.8542484  20.1242756  29.7286594
 110.2907349  20.0332693  28.9602882 110.7394879  19.3042661  30.2089086
 115.4775452  19.4242132  39.6975909 115.4664092  19.0294930  38.8256412
 115.6396091  18.6908204  40.2909680 108.4006916  21.6193948  32.5670814
 109.1928208  21.2784773  32.1517114 108.6403566  21.7288923  33.4872968
 116.4342043  23.7913724  25.0401059 115.7830023  24.3767804  24.6535073
 117.2286406  24.3219919  25.0996096 110.3597670  20.8802861  25.4388193
 111.1328546  20.3331848  25.3001069 110.7123069  21.7447110  25.6502655
 112.1982713  22.2079243  38.6455093 111.9072579  23.1124874  38.5301759
 112.8339697  22.2495771  39.3599162 113.1238919  19.5856092  35.2356452
 113.7202492  19.3612114  34.5213415 113.1813891  18.8440837  35.8381900
 112.6963948  17.0395527  23.0706643 112.9489469  16.5177049  22.3090106
 111.7588507  16.8761673  23.1733327 117.7407231  16.0431306  30.8781386
 118.5270320  15.6250729  30.5271803 118.0045935  16.9477398  31.0463035
 117.9117308  21.4804156  25.5770043 117.2763141  21.5538782  26.2890948
 117.5814714  22.0697755  24.8989122 123.1415658  15.9806539  31.7814365
 123.8740830  15.4105756  32.0152194 122.3855014  15.5928139  32.2220870
 112.4160237  18.9423633  25.2731018 112.2996495  18.2668537  25.9412102
 112.5262497  18.4556007  24.4563171 114.7591778  18.4033780  28.9777707
 114.3949985  17.8764401  29.6890629 115.6158893  18.0132249  28.8044193
 117.1572598  21.8940659  35.6404886 116.8573321  22.7965698  35.5320693
 116.8123657  21.6272842  36.4926039 110.6085079  18.3454456  31.6741591
 109.6835576  18.2130670  31.8819282 110.8569492  19.1248675  32.1711533
 120.5569742  14.4123199  33.3202324 119.6486619  14.3438608  33.0261084
 120.5057337  14.8895144  34.1484149 114.3786485  15.8881338  24.9585723
 114.2586111  16.3338388  25.7971203 113.6839074  16.2366655  24.3999261
 107.9693890  17.9887729  32.5085380 108.0986271  18.2422208  33.4224791
 107.2891342  18.5815437  32.1890035 112.1393378  28.6584979  28.6075854
 112.0617407  29.6092804  28.6864334 111.5355021  28.3130852  29.2650780
 114.6310607  15.8312845  41.2637221 113.8543941  16.3906765  41.2540085
 115.2701170  16.3169628  41.7852091 112.8856980  18.6398298  40.8255188
 113.6271664  19.1783342  40.5490011 112.1793965  19.2664587  40.9826740
 118.3612319  20.7827439  39.4227349 118.7695675  20.3409849  38.6781982
 117.6389581  20.2080066  39.6761542 114.7143389  15.7200045  36.7960906
 115.5604584  16.1439459  36.9395555 114.6542027  15.0633670  37.4899469
 118.6841134  21.3428629  33.1779638 118.0549996  21.5074343  32.4755706
 118.2966796  21.7570239  33.9490602 122.5630366  22.2783067  30.5324002
 121.8781404  22.6581968  29.9821035 122.6474215  22.8878394  31.2655950
 117.8642835  13.3804414  38.4542080 117.6203766  14.1346474  37.9176356
 118.1402765  13.7589761  39.2889327 119.8181297  19.9243026  37.1319345
 120.0298193  20.5674786  36.4553727 119.7711046  19.0905343  36.6641276
 117.4207526  12.5360847  34.0355918 116.5592005  12.8342100  34.3272655
 117.4469961  12.7531246  33.1036950 114.2369096  21.0803037  30.4429723
 114.7007441  21.3590740  29.6534346 113.9725894  20.1786482  30.2602814
 111.1293177  20.6274519  33.3809487 111.6994534  21.0561787  32.7426971
 111.7201289  20.3457103  34.0793672 113.1737982  17.2026190  27.2519288
 113.8762025  17.6547233  27.7193215 112.8418610  16.5610008  27.8799182
 111.6218343  15.7937946  41.6270498 110.9917004  16.4754227  41.8605895
 111.5154431  15.6821028  40.6823636 106.9163316  15.4609742  32.5536422
 106.1262370  15.7167271  32.0776533 107.4074563  16.2758080  32.6588463
 120.9327125  22.8014981  35.3041703 121.7544569  22.3995169  35.0224384
 120.9289528  22.6983216  36.2557819 108.8678061  15.8254322  29.5119899
 108.0709224  15.9373016  30.0303394 108.6403653  16.1640974  28.6460789
 114.6983729  22.3499025  37.4602413 114.7628161  22.8119432  38.2960585
 113.9894653  21.7196390  37.5884723 105.2001019  15.7140233  34.9851413
 105.4509057  16.5987243  35.2508989 105.7360567  15.5344834  34.2126505
 114.4131746  24.0167132  27.3281394 114.2777421  24.8618668  27.7566241
 114.9541559  24.2186410  26.5647327 107.8661144  21.5342570  27.9009319
 108.3785664  22.3285821  28.0514883 108.5183857  20.8368861  27.8342920
 109.6756029  24.6508327  29.9832072 109.8522657  25.5726291  29.7953056
 110.4712862  24.3366746  30.4126452 108.9608385  16.6972958  39.8594235
 108.8461900  15.7958216  40.1601334 108.1052903  16.9436655  39.5079052
 116.0400223  24.6390699  41.4581736 115.5964077  23.8527077  41.1402640
 116.7017436  24.8269849  40.7925626 110.7987344  26.1686500  35.9842414
 111.3494769  26.0403564  35.2119408 109.9598820  26.4681389  35.6337307
 118.1381461  24.9193499  39.4863137 118.1199936  25.7402380  38.9943406
 119.0601381  24.7947574  39.7113278 114.5954515  22.4337628  40.3286645
 115.1282852  21.6725916  40.0985953 114.0668596  22.1411280  41.0710800
 105.8310061  19.8631225  28.6768889 106.6685283  20.2728233  28.4602597
 106.0088328  18.9230667  28.6469083 117.7274493  17.5306305  24.3652722
 117.2121116  18.3010910  24.6041110 117.4551801  16.8571441  24.9885784
 115.3121604  12.3756006  29.4237961 114.4563200  11.9862856  29.2443599
 115.7248556  12.4547967  28.5637746 117.5160796  15.4033397  26.1912503
 117.2110931  15.7179547  27.0422647 118.4691238  15.4814817  26.2339836
 115.9607228  21.5623621  27.8405457 115.4328589  20.8276380  27.5278695
 115.4594730  22.3398297  27.5945426 120.9400074  19.7572641  32.9572504
 120.2823748  20.4471903  33.0452632 121.7440473  20.1469073  33.3006490
 110.6925955  12.2243287  30.2012069 111.2669707  12.0018468  29.4685262
 111.2796938  12.2931981  30.9540670 119.7505533  18.1117014  31.0076445
 120.2637414  18.7447006  31.5098155 120.4006756  17.5118209  30.6419805
 111.0195542  14.2547748  24.2207954 110.1832855  14.5922434  24.5417229
 110.8800312  14.1196728  23.2835091 117.0127907  28.0901338  23.7637117
 116.3389606  28.3933035  24.3722074 117.3993729  28.8930418  23.4142574
 116.2286363  15.5866469  33.2534786 115.3108925  15.8081416  33.0956474
 116.6446507  15.6612780  32.3946493 117.0121411  16.9857885  28.3837466
 117.7593230  17.4979282  28.0744588 117.2813001  16.6641938  29.2441860
 115.2848061  19.4816426  25.3664420 114.3759281  19.1975459  25.4636890
 115.3143145  19.9015504  24.5067727 120.5167329  23.0923015  29.1355588
 120.0629656  22.2513925  29.1920779 119.8861295  23.7284414  29.4730368
 119.4600248  14.0215001  30.3656255 118.7223005  13.5092388  30.6966498
 119.7127022  13.5815383  29.5539532 118.9600268  24.9299512  30.0705406
 119.2523242  25.4904569  29.3517772 119.4698889  25.2228073  30.8258565
 105.8536232  17.2021940  29.3479623 105.6560632  16.6091301  28.6230689
 105.2982896  16.8974150  30.0655561 113.8332955  17.0945046  31.4674216
 113.8881565  16.1418883  31.3916692 113.0224157  17.2504485  31.9515514
 114.9824149  21.0225169  22.7052499 114.5443579  20.3061028  22.2458136
 115.7234590  21.2501284  22.1437590 111.7725315  15.7122106  29.2264595
 110.9593181  16.0116277  29.6329787 112.2684310  15.3177795  29.9439077
 113.9233893  25.7079863  31.1598859 113.8810072  25.9340709  30.2307391
 114.8396592  25.4743238  31.3084661 117.3699527  16.1763931  38.0579489
 117.7248915  16.4035404  38.9173954 118.0171658  16.5082307  37.4356744
 123.0997264  19.2982366  28.7628818 122.9615163  19.4883962  27.8350007
 122.7433483  20.0601749  29.2196869 111.2639390  13.2840462  34.8425830
 111.9038769  13.1429221  34.1448793 110.4316921  12.9974975  34.4664432
 123.1266644  21.3658893  33.7740089 123.5603150  21.2734183  34.6223143
 123.8398224  21.3416394  33.1360105 112.0399694  22.5842892  30.9560822
 112.8340292  22.0893212  30.7543397 111.3291386  22.0560755  30.5928528
 116.8594538  24.9660988  35.3073190 116.9131561  25.5351924  36.0750906
 115.9909320  25.1362873  34.9427227 108.3482457  16.7285974  27.0320575
 107.4180046  16.6670429  27.2490537 108.4439929  16.2061927  26.2357216
 108.2668007  13.2540787  29.6198816 108.5274824  14.1686120  29.5107977
 109.0885179  12.7865229  29.7695429 109.7392932  14.6678544  36.7897641
 110.4115985  14.4595906  36.1410290 108.9122718  14.4700630  36.3502873
 123.9882193  21.4082594  36.3072975 124.1818083  22.3128405  36.5532249
 123.8882811  20.9490013  37.1411560 119.0497302  21.5589337  41.8813855
 118.8982808  21.3299889  40.9643939 119.0401981  22.5159938  41.8945200
 115.8182638  19.1321250  36.8660122 116.7474698  19.2832409  36.6929089
 115.3973668  19.2205270  36.0108768 114.6170970  23.1571914  34.6358659
 114.4782056  22.7890698  35.5084597 113.8285566  23.6719553  34.4642617
 115.2119122  28.2581011  25.9784196 115.3870878  27.7869054  26.7929818
 114.5251910  28.8846777  26.2065456 116.1676185  22.5353517  32.0247497
 115.8326018  22.4954287  32.9205147 115.6680131  21.8698233  31.5517907
 110.1420429  17.9421147  37.5500078 110.0040227  17.2101386  38.1511617
 111.0525353  17.8530047  37.2684266 112.7702730  17.6541106  37.0383758
 113.4802348  17.0134298  36.9970376 112.7272038  17.9054001  37.9609939
 120.7589508  24.5908459  39.9590337 120.7002055  23.9067680  39.2920920
 121.1609027  25.3327449  39.5070963 111.4831664  14.6406324  38.8579397
 110.9469021  14.1897062  39.5100994 110.8948372  14.7752233  38.1149862
 109.7780207  31.4070373  32.7524056 110.0176805  32.0388897  33.4303074
 108.9349404  31.0558413  33.0389415 120.7606916  22.5548043  38.1904317
 119.8733694  22.2173965  38.3130716 121.3305467  21.8231075  38.4273082
 102.4136063  18.8872135  31.5147368 103.1007103  18.5733865  30.9268383
 102.2584192  19.7913500  31.2414619 107.2170785  13.7762332  35.9432392
 107.1328974  13.1688001  35.2082802 106.3953491  14.2671350  35.9441888
 114.2908069  27.2149496  35.1565560 114.2178241  28.0204467  35.6684864
 113.8485462  27.4141462  34.3313581 114.0797849  26.4521266  28.6668381
 113.2965371  26.9942946  28.7606606 114.7790594  26.9695245  29.0662623
 125.2424256  17.9656261  32.9520878 125.2314132  18.8480976  32.5814811
 124.3741636  17.6127812  32.7575415 116.7506753  27.1136330  37.3123719
 117.4634725  27.7483795  37.2399620 116.2596781  27.2100196  36.4963720
 118.4724280  21.0187582  28.8841010 117.5380558  21.1389045  28.7145715
 118.6500948  20.1160049  28.6201020 113.9729468  14.4033278  31.0374271
 113.6027255  13.8504319  31.7255177 114.4688560  13.7991412  30.4849271
 121.8596831  16.8604902  29.4191044 122.3257283  17.6932893  29.3451347
 122.3104331  16.3949883  30.1236303 111.8018666  24.8630773  38.1329289
 112.5028126  25.4967256  38.2858684 111.3313781  25.2045505  37.3724929
 119.9273062  23.2048723  26.4177196 120.2032906  23.0905318  27.3271070
 119.0577561  22.8066208  26.3789369 119.6019952  17.4175381  35.9581840
 118.9491402  17.6651288  35.3034292 119.9800332  16.6039519  35.6244317
 116.5627126  27.4535074  30.0610010 116.7449521  26.6356730  30.5237762
 117.3860112  27.6702766  29.6234900 116.8969292  26.3803259  27.3225058
 117.4257058  25.8695714  26.7095221 117.1597511  26.0645789  28.1870592
 115.6507525  18.1595192  42.4447877 114.9748162  18.0589321  43.1150252
 116.4735159  18.0034405  42.9083874 107.3986384  24.3967128  35.0660392
 107.9839821  23.6510816  35.1988296 107.2011223  24.7071085  35.9497056
 110.2525039  27.4318376  30.0822834 109.5835415  27.9164503  29.5986874
 110.1137909  27.6787596  30.9966213 101.9904039  16.9672728  33.7864835
 102.0288138  16.4336319  34.5801953 101.4844332  16.4407934  33.1675812
 114.3930308  29.4662119  36.6805493 114.9448616  29.6293741  37.4454578
 114.7336501  30.0566557  36.0085518 109.3694801  11.8137269  37.2827377
 109.4336128  12.6752100  36.8704775 109.3061921  11.2011271  36.5499736
 108.8447074  13.8860402  40.9300412 109.4719113  13.5037479  41.5437936
 107.9874993  13.6674603  41.2956104 119.2441182  24.2923377  42.5354147
 119.7881086  24.9053335  42.0409102 118.6628027  24.8502955  43.0521160
 105.6212617  15.6936831  26.8618767 105.9166058  14.7847509  26.8085820
 104.7200652  15.6724570  26.5399769 117.5298695  27.4144095  33.6669175
 117.4049835  26.6133835  33.1580120 118.1877786  27.9090288  33.1783145
 109.1506864  13.7692827  32.8446315 108.4293449  14.3828795  32.7053788
 109.9400119  14.3050592  32.7662961 119.5933604  25.2153115  35.2948725
 118.6463939  25.0958466  35.2227052 119.9416377  24.3275613  35.3774986
 111.9533177  11.1047254  39.1186967 112.4767579  11.3509550  39.8813276
 111.7345510  11.9367289  38.6990104 107.3500458  13.3750928  26.9858092
 107.0213164  12.4948307  26.8033198 107.7039829  13.3198597  27.8734481
 116.5980037  25.0105831  31.4953077 116.4504999  24.0822538  31.6760647
 117.4233530  25.0325922  31.0110153 110.4642281  13.6623898  27.3533569
 110.8038354  14.1909819  26.6312178 110.9114402  14.0004304  28.1292136
 120.2014159  25.8334390  32.5817950 121.1260706  25.6277251  32.4442401
 120.0329462  25.5850791  33.4907292 113.1585722  12.0460949  36.8036637
 112.8182542  11.2468762  37.2057317 112.4524728  12.3462660  36.2313471
 112.4510428  12.1598520  25.5526862 113.1718791  12.5379772  25.0490579
 111.8275733  12.8787396  25.6561840 111.3340773  15.8229382  33.0655939
 111.1885353  16.1369685  33.9580221 110.8565976  16.4414282  32.5126838
 113.1937156  12.8131930  33.1136829 113.1798724  11.9173023  32.7769127
 113.9109584  12.8202594  33.7475115 115.0463286  13.2469270  35.1589956
 114.7881064  14.1686341  35.1574287 114.5148327  12.8499705  35.8490420
 119.9909475  26.3520057  27.9380041 120.1646353  25.7866480  27.1853894
 120.4838366  27.1520952  27.7559531 105.8086435  18.3634726  36.0043600
 105.2639903  19.1394534  36.1363875 106.6865785  18.7105531  35.8462722
 112.5974051  11.6946310  28.3824399 112.7189963  10.7662956  28.5815286
 112.3076094  11.7084996  27.4702714 120.9784648  25.6686822  25.0376940
 121.6735552  26.2893514  25.2564254 121.3207798  24.8182173  25.3129318
 106.5952457  17.4904623  38.8973757 105.8534193  17.6387258  39.4838388
 106.2745201  17.7512888  38.0340507 122.8776071  23.1186527  26.5664271
 123.4027395  23.4573800  25.8413591 122.7898423  22.1833542  26.3827405
 114.5396119  27.0320601  38.6954147 114.8483246  26.7869748  39.5676847
 115.3371601  27.2367239  38.2073017 114.5616731  29.1858510  30.9259524
 114.1221722  28.6934889  31.6192380 115.3124848  28.6431478  30.6851599
 107.0409070  25.3770051  30.9284152 107.8667090  25.0773823  30.5482795
 106.6903122  24.6077674  31.3773940 112.0090604  24.7296519  32.9981825
 111.3870613  24.0667225  32.6984053 112.6795470  24.7557651  32.3155473
 105.2417675  23.2956378  31.8873085 104.4049584  22.8678552  31.7057087
 105.2141321  23.4888821  32.8243877 112.0815131  13.2078308  42.5914331
 112.1303287  14.0840430  42.2092101 112.6237645  12.6655701  42.0185975
 122.5669977  23.7519431  41.8715468 121.7765520  23.7343570  41.3319968
 122.3303331  24.2907724  42.6264505 122.6867852  20.6011897  39.1848197
 122.7365857  20.4361905  40.1263720 122.5781775  19.7339156  38.7946078
 111.5704110  23.2800443  26.4740286 111.7192231  23.9635907  25.8206959
 112.3770554  23.2605533  26.9889742 119.9771614  16.5842825  40.5007504
 120.8781477  16.4449290  40.2091502 120.0519589  16.7497280  41.4405681
 114.3114419  13.9609680  39.3460690 113.4417729  14.2543246  39.0743279
 114.5473900  14.5450125  40.0667954 124.1886049  23.0208839  39.4290219
 123.8970857  23.3838819  40.2653680 123.5758180  22.3075847  39.2503551
 125.3881731  20.5861718  31.9492789 126.2228622  21.0251523  32.1130349
 125.5240860  20.1100372  31.1301035 122.4373237  18.1441453  37.8970277
 122.9127358  18.3369100  37.0889128 121.5138802  18.2000639  37.6513660
 109.3256743  19.3065620  27.4801355 109.0802785  18.4027950  27.6781565
 109.4952658  19.3082771  26.5380833 108.5952391  15.0393978  24.9787516
 107.9021636  15.1138333  24.3227552 108.3504143  14.2754322  25.5009033
 115.0699516  25.7748573  23.9452033 114.4973483  26.3938760  23.4922505
 115.6432310  26.3247935  24.4791955 121.1374906  15.0207213  36.1298582
 122.0892329  15.1205311  36.1510806 120.9678356  14.2285482  36.6396667
 118.2896776  26.0585723  25.0760616 119.2227449  25.9931285  25.2793491
 118.2019989  26.8941990  24.6175148 123.6162984  18.2413333  35.2440882
 123.5839304  17.3029334  35.4300566 124.2263607  18.3197370  34.5106707
 129.4339533  19.3029340  34.3846919 130.1642922  19.0414628  34.9454622
 128.8246479  18.5658062  34.4248987 127.5154831  17.4437202  34.9821370
 126.7887994  17.3093167  34.3737861 127.1002117  17.7514031  35.7878088
 115.3385007  21.1627132  42.7468743 116.2588016  21.3405731  42.9408789
 115.3034590  20.2183178  42.5948442 104.5567172  16.3565726  31.6722017
 104.2369956  15.5031034  31.3796391 104.0100600  16.5714304  32.4279985
 108.3347080  19.0728167  35.3891524 108.5533089  20.0045275  35.4079558
 108.7472853  18.7136141  36.1746328 113.2074945  14.6461373  44.7794273
 113.1071672  15.5955730  44.7106364 112.9896487  14.3179611  43.9070343
 104.4255432  19.9768637  33.6415139 103.7318903  19.5622590  33.1285093
 105.1728423  20.0189174  33.0448558 113.0706215  18.0758511  43.5959335
 112.5873297  18.8758872  43.8023224 113.1567154  18.0866456  42.6426779
 106.3392175  19.9086891  31.5181154 106.3162863  20.0074578  30.5663037
 106.6492811  20.7552042  31.8398320 108.9979552  21.9663046  35.6327768
 109.9522806  21.9346988  35.5657700 108.7992076  21.5053670  36.4477994
 109.5878935  20.5364162  38.1998566 110.4071824  21.0308241  38.2233403
 109.8615742  19.6196130  38.1716134 107.3529781  27.5082666  32.6497966
 107.2184249  26.7483067  32.0835964 106.9361843  28.2323565  32.1826755
 119.3186554  18.4429450  27.7776812 119.2621756  18.8998002  26.9384444
 119.8714897  17.6820135  27.5999654 110.5098907  28.4051983  32.8616409
 110.3931291  29.3497415  32.7595099 109.6891353  28.1025544  33.2502208
 104.8413849  14.8702296  38.8990763 105.4872712  14.3601250  39.3877988
 104.6331000  15.6070978  39.4734188 117.3667241  21.9383144  44.3982904
 118.2358401  22.1123796  44.0369539 116.8873992  22.7577560  44.2758633
 111.5353421  29.0580245  36.0772337 112.4380668  29.0903855  36.3938832
 111.3090791  28.1280695  36.0918673 113.2907023  27.8111231  32.7382416
 112.3402654  27.8113093  32.6246788 113.5939509  27.0643966  32.2218451
 109.1811340  12.0169913  42.9965777 110.0442801  11.6606718  43.2069102
 108.6076750  11.6783808  43.6841182 129.0259717  33.6471769  33.8028178
 129.6638127  33.5278517  33.0991518 128.9080560  34.5952613  33.8616130
 125.8349423  33.5999198  33.7389703 125.4967935  33.4840262  32.8510238
 126.7039191  33.1990363  33.7190709 121.6936239  35.4534674  29.7286594
 121.1301104  35.3624611  28.9602882 121.5788634  34.6334578  30.2089086
 126.3169206  34.7534049  39.6975909 126.3057847  34.3586848  38.8256412
 126.4789845  34.0200122  40.2909680 119.2400671  36.9485866  32.5670814
 120.0321963  36.6076690  32.1517114 119.4797321  37.0580841  33.4872968
 127.2735797  39.1205642  25.0401059 126.6223777  39.7059722  24.6535073
 128.0680160  39.6511837  25.0996096 121.1991425  36.2094779  25.4388193
 121.9722301  35.6623766  25.3001069 121.5516823  37.0739028  25.6502655
 123.0376467  37.5371161  38.6455093 122.7466333  38.4416792  38.5301759
 123.6733451  37.5787689  39.3599162 123.9632674  34.9148010  35.2356452
 124.5596246  34.6904032  34.5213415 124.0207646  34.1732755  35.8381900
 123.5357702  32.3687445  23.0706643 123.7883223  31.8468966  22.3090106
 122.5982261  32.2053590  23.1733327 128.5800985  31.3723223  30.8781386
 129.3664074  30.9542646  30.5271803 128.8439690  32.2769315  31.0463035
 128.7511063  36.8096074  25.5770043 128.1156896  36.8830700  26.2890948
 128.4208469  37.3989672  24.8989122 133.9809412  31.3098457  31.7814365
 134.7134584  30.7397673  32.0152194 133.2248768  30.9220057  32.2220870
 123.2553991  34.2715551  25.2731018 123.1390249  33.5960454  25.9412102
 123.3656251  33.7847925  24.4563171 125.5985532  33.7325698  28.9777707
 125.2343739  33.2056319  29.6890629 126.4552648  33.3424167  28.8044193
 131.5034833  25.0220031  36.2408973 131.1718157  25.8915442  36.0170188
 130.9080446  24.7056315  36.9203004 127.9966352  37.2232577  35.6404886
 127.6967075  38.1257615  35.5320693 127.6517412  36.9564760  36.4926039
 121.4478834  33.6746373  31.6741591 120.5229330  33.5422588  31.8819282
 121.6963247  34.4540593  32.1711533 131.3963496  29.7415117  33.3202324
 130.4880373  29.6730525  33.0261084 131.3451092  30.2187062  34.1484149
 125.2180240  31.2173255  24.9585723 125.0979865  31.6630306  25.7971203
 124.5232828  31.5658573  24.3999261 118.8087645  33.3179647  32.5085380
 118.9380026  33.5714126  33.4224791 118.1285096  33.9107355  32.1890035
 122.9787132  43.9876897  28.6075854 122.9011162  44.9384722  28.6864334
 122.3748776  43.6422769  29.2650780 125.4704362  31.1604762  41.2637221
 124.6937696  31.7198683  41.2540085 126.1094925  31.6461545  41.7852091
 133.2625142  27.9431555  35.0980197 132.6199523  28.2364088  34.4519992
 132.7580071  27.8284476  35.9033394 123.7250734  33.9690216  40.8255188
 124.4665418  34.5075260  40.5490011 123.0187720  34.5956505  40.9826740
 129.2006074  36.1119356  39.4227349 129.6089430  35.6701767  38.6781982
 128.4783335  35.5371984  39.6761542 125.5537144  31.0491963  36.7960906
 126.3998339  31.4731377  36.9395555 125.4935781  30.3925587  37.4899469
 129.5234888  36.6720547  33.1779638 128.8943751  36.8366261  32.4755706
 129.1360550  37.0862156  33.9490602 133.4024120  37.6074985  30.5324002
 132.7175158  37.9873886  29.9821035 133.4867970  38.2170311  31.2655950
 128.7036589  28.7096331  38.4542080 128.4597521  29.4638392  37.9176356
 128.9796520  29.0881679  39.2889327 130.6575052  35.2534944  37.1319345
 130.8691947  35.8966704  36.4553727 130.6104800  34.4197260  36.6641276
 128.2601281  27.8652764  34.0355918 127.3985760  28.1634018  34.3272655
 128.2863715  28.0823163  33.1036950 125.0762850  36.4094955  30.4429723
 125.5401196  36.6882658  29.6534346 124.8119648  35.5078400  30.2602814
 121.9686931  35.9566436  33.3809487 122.5388288  36.3853705  32.7426971
 122.5595043  35.6749021  34.0793672 124.0131736  32.5318107  27.2519288
 124.7155780  32.9839151  27.7193215 123.6812365  31.8901926  27.8799182
 122.4612098  31.1229864  41.6270498 121.8310758  31.8046145  41.8605895
 122.3548186  31.0112946  40.6823636 117.7557070  30.7901660  32.5536422
 116.9656124  31.0459188  32.0776533 118.2468318  31.6049998  32.6588463
 131.7720880  38.1306899  35.3041703 132.5938324  37.7287086  35.0224384
 131.7683283  38.0275133  36.2557819 119.7071816  31.1546239  29.5119899
 118.9102979  31.2664933  30.0303394 119.4797408  31.4932891  28.6460789
 125.5377483  37.6790942  37.4602413 125.6021916  38.1411350  38.2960585
 124.8288407  37.0488307  37.5884723 116.0394773  31.0432150  34.9851413
 116.2902812  31.9279160  35.2508989 116.5754322  30.8636752  34.2126505
 125.2525501  39.3459050  27.3281394 125.1171176  40.1910586  27.7566241
 125.7935313  39.5478328  26.5647327 121.7392841  25.4250630  43.9895749
 121.3459786  24.8716828  44.6643393 122.5558981  25.7361208  44.3802266
 118.7054898  36.8634488  27.9009319 119.2179419  37.6577738  28.0514883
 119.3577611  36.1660778  27.8342920 120.5149783  39.9800244  29.9832072
 120.6916411  40.9018209  29.7953056 121.3106617  39.6658663  30.4126452
 124.6560802  26.8408509  41.5816005 125.3970515  27.4415662  41.5020468
 124.8878724  26.0986147  41.0234048 119.8002140  32.0264876  39.8594235
 119.6855655  31.1250133  40.1601334 118.9446657  32.2728573  39.5079052
 126.8793977  39.9682616  41.4581736 126.4357831  39.1818995  41.1402640
 127.5411191  40.1561767  40.7925626 121.6381098  41.4978418  35.9842414
 122.1888524  41.3695481  35.2119408 120.7992574  41.7973307  35.6337307
 128.9775215  40.2485416  39.4863137 128.9593691  41.0694297  38.9943406
 129.8995135  40.1239492  39.7113278 125.4348270  37.7629546  40.3286645
 125.9676606  37.0017834  40.0985953 124.9062351  37.4703198  41.0710800
 128.6017965  22.8689612  35.8580287 128.2582234  23.7591253  35.7819398
 128.9696927  22.6791269  34.9949872 116.6703815  35.1923142  28.6768889
 117.5079037  35.6020151  28.4602597 116.8482083  34.2522584  28.6469083
 128.5668247  32.8598223  24.3652722 128.0514871  33.6302828  24.6041110
 128.2945556  32.1863359  24.9885784 126.1515358  27.7047924  29.4237961
 125.2956955  27.3154774  29.2443599 126.5642310  27.7839884  28.5637746
 127.6814505  25.2394267  33.8229520 127.1779300  25.2024402  33.0097326
 127.9745112  26.1487010  33.8826177 123.9257391  25.3232997  32.8295702
 124.7910388  25.1275805  32.4701592 123.9934900  25.0943348  33.7565059
 128.3554550  30.7325315  26.1912503 128.0504686  31.0471464  27.0422647
 129.3084993  30.8106735  26.2339836 126.8000982  36.8915538  27.8405457
 126.2722344  36.1568298  27.5278695 126.2988485  37.6690215  27.5945426
 131.7793828  35.0864559  32.9572504 131.1217503  35.7763820  33.0452632
 132.5834227  35.4760991  33.3006490 121.5319710  27.5535205  30.2012069
 122.1063462  27.3310386  29.4685262 122.1190692  27.6223899  30.9540670
 130.5899287  33.4408931  31.0076445 131.1031169  34.0738923  31.5098155
 131.2400511  32.8410127  30.6419805 121.8589297  29.5839666  24.2207954
 121.0226609  29.9214352  24.5417229 121.7194067  29.4488645  23.2835091
 123.8342378  24.4276453  28.9287138 123.1806790  24.1125471  28.3043753
 123.7922852  23.8052194  29.6546961 127.8521661  43.4193256  23.7637117
 127.1783360  43.7224953  24.3722074 128.2387483  44.2222336  23.4142574
 127.0680118  30.9158387  33.2534786 126.1502679  31.1373334  33.0956474
 127.4840262  30.9904698  32.3946493 127.8515166  32.3149803  28.3837466
 128.5986985  32.8271200  28.0744588 128.1206755  31.9933855  29.2441860
 126.1241816  34.8108343  25.3664420 125.2153035  34.5267376  25.4636890
 126.1536900  35.2307422  24.5067727 131.3561083  38.4214933  29.1355588
 130.9023410  37.5805843  29.1920779 130.7255050  39.0576331  29.4730368
 130.2994003  29.3506919  30.3656255 129.5616760  28.8384305  30.6966498
 130.5520776  28.9107301  29.5539532 129.7994023  40.2591430  30.0705406
 130.0916997  40.8196487  29.3517772 130.3092643  40.5519991  30.8258565
 116.6929986  32.5313858  29.3479623 116.4954386  31.9383218  28.6230689
 116.1376650  32.2266068  30.0655561 124.6726710  32.4236964  31.4674216
 124.7275320  31.4710800  31.3916692 123.8617912  32.5796403  31.9515514
 125.8217904  36.3517087  22.7052499 125.3837334  35.6352946  22.2458136
 126.5628345  36.5793202  22.1437590 122.6119070  31.0414024  29.2264595
 121.7986935  31.3408194  29.6329787 123.1078064  30.6469713  29.9439077
 124.7627648  41.0371781  31.1598859 124.7203827  41.2632627  30.2307391
 125.6790347  40.8035155  31.3084661 128.2093282  31.5055848  38.0579489
 128.5642669  31.7327321  38.9173954 128.8565413  31.8374225  37.4356744
 133.9391018  34.6274284  28.7628818 133.8008917  34.8175880  27.8350007
 133.5827237  35.3893667  29.2196869 122.1033145  28.6132379  34.8425830
 122.7432524  28.4721138  34.1448793 121.2710675  28.3266893  34.4664432
 133.9660398  36.6950811  33.7740089 134.3996905  36.6026100  34.6223143
 134.6791979  36.6708312  33.1360105 122.8793448  37.9134810  30.9560822
 123.6734047  37.4185130  30.7543397 122.1685141  37.3852673  30.5928528
 127.6988293  40.2952905  35.3073190 127.7525315  40.8643842  36.0750906
 126.8303074  40.4654790  34.9427227 119.1876212  32.0577891  27.0320575
 118.2573800  31.9962347  27.2490537 119.2833684  31.5353844  26.2357216
 119.1061761  28.5832704  29.6198816 119.3668578  29.4978038  29.5107977
 119.9278933  28.1157147  29.7695429 120.5786686  29.9970461  36.7897641
 121.2509740  29.7887824  36.1410290 119.7516473  29.7992547  36.3502873
 134.8275948  36.7374512  36.3072975 135.0211838  37.6420322  36.5532249
 134.7276566  36.2781931  37.1411560 126.4812258  26.6232402  38.8063302
 125.8340173  27.3222352  38.7127778 127.2513274  27.0568546  39.1739550
 129.8891056  36.8881255  41.8813855 129.7376563  36.6591806  40.9643939
 129.8795736  37.8451856  41.8945200 126.6576393  34.4613167  36.8660122
 127.5868453  34.6124327  36.6929089 126.2367423  34.5497188  36.0108768
 125.4564724  38.4863832  34.6358659 125.3175810  38.1182616  35.5084597
 124.6679321  39.0011471  34.4642617 126.0512876  43.5872928  25.9784196
 126.2264632  43.1160971  26.7929818 125.3645664  44.2138694  26.2065456
 127.0069940  37.8645434  32.0247497 126.6719772  37.8246204  32.9205147
 126.5073885  37.1990150  31.5517907 120.9814184  33.2713064  37.5500078
 120.8433982  32.5393303  38.1511617 121.8919107  33.1821965  37.2684266
 123.6096484  32.9833024  37.0383758 124.3196103  32.3426216  36.9970376
 123.5665792  33.2345919  37.9609939 131.5983263  39.9200377  39.9590337
 131.5395809  39.2359597  39.2920920 132.0002781  40.6619367  39.5070963
 122.3225418  29.9698242  38.8579397 121.7862775  29.5188980  39.5100994
 121.7342127  30.1044150  38.1149862 120.6173962  46.7362291  32.7524056
 120.8570560  47.3680815  33.4303074 119.7743158  46.3850331  33.0389415
 131.6000670  37.8839961  38.1904317 130.7127449  37.5465883  38.3130716
 132.1699221  37.1522992  38.4273082 113.2529817  34.2164053  31.5147368
 113.9400857  33.9025783  30.9268383 113.0977946  35.1205417  31.2414619
 118.0564539  29.1054249  35.9432392 117.9722728  28.4979919  35.2082802
 117.2347246  29.5963268  35.9441888 125.1301824  42.5441413  35.1565560
 125.0571995  43.3496385  35.6684864 124.6879217  42.7433379  34.3313581
 124.9191603  41.7813183  28.6668381 124.1359125  42.3234864  28.7606606
 125.6184348  42.2987163  29.0662623 128.2288253  27.5907813  31.3102587
 128.7256953  26.8377775  30.9903657 127.4575235  27.6272130  30.7445796
 136.0818011  33.2948178  32.9520878 136.0707887  34.1772894  32.5814811
 135.2135390  32.9419729  32.7575415 127.5900507  42.4428247  37.3123719
 128.3028479  43.0775712  37.2399620 127.0990536  42.5392113  36.4963720
 129.3118034  36.3479500  28.8841010 128.3774313  36.4680963  28.7145715
 129.4894702  35.4451967  28.6201020 124.8123222  29.7325196  31.0374271
 124.4421010  29.1796236  31.7255177 125.3082315  29.1283329  30.4849271
 132.6990585  32.1896819  29.4191044 133.1651038  33.0224811  29.3451347
 133.1498086  31.7241801  30.1236303 122.6412421  40.1922691  38.1329289
 123.3421880  40.8259174  38.2858684 122.1707536  40.5337422  37.3724929
 130.7666816  38.5340641  26.4177196 131.0426660  38.4197235  27.3271070
 129.8971315  38.1358126  26.3789369 130.6707248  24.5577406  33.4581946
 129.7570328  24.7881633  33.6264153 131.1000350  24.6415850  34.3095978
 130.4413707  32.7467298  35.9581840 129.7885157  32.9943206  35.3034292
 130.8194087  31.9331437  35.6244317 127.4020880  42.7826992  30.0610010
 127.5843275  41.9648647  30.5237762 128.2253867  42.9994684  29.6234900
 127.7363046  41.7095177  27.3225058 128.2650812  41.1987631  26.7095221
 127.9991266  41.3937707  28.1870592 126.4901280  33.4887109  42.4447877
 125.8141917  33.3881239  43.1150252 127.3128914  33.3326323  42.9083874
 118.2380139  39.7259046  35.0660392 118.8233576  38.9802734  35.1988296
 118.0404977  40.0363003  35.9497056 121.0918794  42.7610293  30.0822834
 120.4229169  43.2456421  29.5986874 120.9531664  43.0079514  30.9966213
 112.8297793  32.2964646  33.7864835 112.8681893  31.7628237  34.5801953
 112.3238086  31.7699852  33.1675812 125.2324063  44.7954037  36.6805493
 125.7842371  44.9585658  37.4454578 125.5730256  45.3858475  36.0085518
 120.2088556  27.1429187  37.2827377 120.2729882  28.0044018  36.8704775
 120.1455676  26.5303188  36.5499736 119.6840828  29.2152319  40.9300412
 120.3112867  28.8329397  41.5437936 118.8268747  28.9966521  41.2956104
 130.0834937  39.6215294  42.5354147 130.6274841  40.2345253  42.0409102
 129.5021782  40.1794873  43.0521160 116.4606371  31.0228748  26.8618767
 116.7559812  30.1139427  26.8085820 115.5594407  31.0016488  26.5399769
 128.3692450  42.7436012  33.6669175 128.2443589  41.9425752  33.1580120
 129.0271541  43.2382206  33.1783145 119.9900618  29.0984745  32.8446315
 119.2687204  29.7120713  32.7053788 120.7793874  29.6342510  32.7662961
 130.4327358  40.5445032  35.2948725 129.4857694  40.4250384  35.2227052
 130.7810131  39.6567531  35.3774986 122.7926932  26.4339171  39.1186967
 123.3161333  26.6801468  39.8813276 122.5739265  27.2659206  38.6990104
 118.1894213  28.7042846  26.9858092 117.8606919  27.8240225  26.8033198
 118.5433583  28.6490515  27.8734481 127.4373791  40.3397749  31.4953077
 127.2898754  39.4114456  31.6760647 128.2627285  40.3617839  31.0110153
 121.3036036  28.9915816  27.3533569 121.6432108  29.5201737  26.6312178
 121.7508156  29.3296222  28.1292136 131.0407913  41.1626307  32.5817950
 131.9654461  40.9569169  32.4442401 130.8723217  40.9142709  33.4907292
 123.9979477  27.3752866  36.8036637 123.6576297  26.5760680  37.2057317
 123.2918483  27.6754577  36.2313471 124.6495948  24.4602179  35.2563960
 125.4722018  23.9862657  35.1342851 124.8934012  25.2392663  35.7562647
 123.2904183  27.4890437  25.5526862 124.0112545  27.8671690  25.0490579
 122.6669487  28.2079314  25.6561840 122.1734527  31.1521300  33.0655939
 122.0279108  31.4661603  33.9580221 121.6959731  31.7706200  32.5126838
 124.0330910  28.1423848  33.1136829 124.0192479  27.2464941  32.7769127
 124.7503338  28.1494511  33.7475115 125.8857041  28.5761188  35.1589956
 125.6274819  29.4978258  35.1574287 125.3542081  28.1791622  35.8490420
 130.8303230  41.6811975  27.9380041 131.0040107  41.1158397  27.1853894
 131.3232121  42.4812870  27.7559531 116.6480189  33.6926644  36.0043600
 116.1033657  34.4686452  36.1363875 117.5259539  34.0397448  35.8462722
 123.4367806  27.0238228  28.3824399 123.5583717  26.0954874  28.5815286
 123.1469848  27.0376914  27.4702714 126.3058996  24.7093138  31.5191119
 126.3280693  24.7732471  30.5643098 126.7227055  23.8697647  31.7131625
 131.8178402  40.9978739  25.0376940 132.5129307  41.6185432  25.2564254
 132.1601552  40.1474090  25.3129318 117.4346211  32.8196540  38.8973757
 116.6927947  32.9679176  39.4838388 117.1138955  33.0804806  38.0340507
 133.7169825  38.4478445  26.5664271 134.2421149  38.7865718  25.8413591
 133.6292178  37.5125460  26.3827405 125.3789874  42.3612518  38.6954147
 125.6877000  42.1161665  39.5676847 126.1765356  42.5659157  38.2073017
 125.4010486  44.5150428  30.9259524 124.9615476  44.0226807  31.6192380
 126.1518603  43.9723396  30.6851599 117.8802825  40.7061969  30.9284152
 118.7060845  40.4065741  30.5482795 117.5296877  39.9369591  31.3773940
 122.8484358  40.0588437  32.9981825 122.2264367  39.3959142  32.6984053
 123.5189225  40.0849569  32.3155473 116.0811430  38.6248295  31.8873085
 115.2443338  38.1970470  31.7057087 116.0535075  38.8180739  32.8243877
 122.9208886  28.5370225  42.5914331 122.9697041  29.4132348  42.2092101
 123.4631400  27.9947618  42.0185975 133.4063731  39.0811348  41.8715468
 132.6159275  39.0635487  41.3319968 133.1697086  39.6199642  42.6264505
 133.5261606  35.9303815  39.1848197 133.5759611  35.7653822  40.1263720
 133.4175530  35.0631074  38.7946078 122.4097865  38.6092361  26.4740286
 122.5585985  39.2927825  25.8206959 123.2164308  38.5897451  26.9889742
 130.8165369  31.9134743  40.5007504 131.7175231  31.7741208  40.2091502
 130.8913343  32.0789198  41.4405681 125.1508174  29.2901598  39.3460690
 124.2811483  29.5835164  39.0743279 125.3867654  29.8742043  40.0667954
 135.0279803  38.3500756  39.4290219 134.7364611  38.7130737  40.2653680
 134.4151934  37.6367765  39.2503551 136.2275485  35.9153636  31.9492789
 137.0622377  36.3543440  32.1130349 136.3634614  35.4392289  31.1301035
 133.2766991  33.4733371  37.8970277 133.7521113  33.6661017  37.0889128
 132.3532557  33.5292557  37.6513660 120.1650498  34.6357538  27.4801355
 119.9196540  33.7319868  27.6781565 120.3346412  34.6374689  26.5380833
 127.8547208  25.5081215  36.8626110 128.3729152  26.2442241  36.5372599
 127.5002341  25.8145208  37.6972870 119.4346145  30.3685896  24.9787516
 118.7415390  30.4430251  24.3227552 119.1897897  29.6046239  25.5009033
 128.1059802  21.9281497  32.3827007 128.3861556  21.2604686  33.0087434
 128.8910409  22.1210593  31.8701671 125.9093270  41.1040491  23.9452033
 125.3367238  41.7230678  23.4922505 126.4826064  41.6539853  24.4791955
 131.9768660  30.3499131  36.1298582 132.9286083  30.4497229  36.1510806
 131.8072111  29.5577400  36.6396667 129.9983040  27.4354714  36.3157983
 129.4032972  27.7159727  35.6204472 129.7132736  27.9248615  37.0874724
 129.1290530  41.3877641  25.0760616 130.0621203  41.3223203  25.2793491
 129.0413743  42.2233908  24.6175148 134.4556738  33.5705251  35.2440882
 134.4233058  32.6321251  35.4300566 135.0657362  33.6489287  34.5106707
 134.6051227  30.3616294  35.2899165 134.0890275  29.5774751  35.1029094
 135.4891175  30.0335011  35.4545684 140.2733288  34.6321258  34.3846919
 141.0036676  34.3706546  34.9454622 139.6640233  33.8949980  34.4248987
 138.3548585  32.7729120  34.9821370 137.6281749  32.6385085  34.3737861
 137.9395872  33.0805949  35.7878088 126.1778762  36.4919050  42.7468743
 127.0981771  36.6697649  42.9408789 126.1428345  35.5475095  42.5948442
 115.3960927  31.6857644  31.6722017 115.0763711  30.8322952  31.3796391
 114.8494355  31.9006222  32.4279985 119.1740834  34.4020085  35.3891524
 119.3926844  35.3337192  35.4079558 119.5866608  34.0428059  36.1746328
 126.0945052  24.9088170  27.3767212 125.2845780  24.5635255  27.7522458
 126.7829469  24.5995714  27.9654824 124.0468699  29.9753290  44.7794273
 123.9465426  30.9247647  44.7106364 123.8290241  29.6471529  43.9070343
 115.2649187  35.3060555  33.6415139 114.5712658  34.8914508  33.1285093
 116.0122178  35.3481092  33.0448558 123.9099969  33.4050429  43.5959335
 123.4267051  34.2050789  43.8023224 123.9960908  33.4158374  42.6426779
 117.1785929  35.2378809  31.5181154 117.1556617  35.3366496  30.5663037
 117.4886566  36.0843960  31.8398320 119.8373307  37.2954964  35.6327768
 120.7916560  37.2638906  35.5657700 119.6385830  36.8345588  36.4477994
 120.4272689  35.8656080  38.1998566 121.2465578  36.3600159  38.2233403
 120.7009497  34.9488048  38.1716134 133.5353821  28.2813353  31.2780861
 134.3114211  28.7709806  31.5505478 132.8101956  28.7071407  31.7352730
 118.1923536  42.8374583  32.6497966 118.0578004  42.0774984  32.0835964
 117.7755598  43.5615483  32.1826755 130.1580309  33.7721368  27.7776812
 130.1015510  34.2289920  26.9384444 130.7108651  33.0112053  27.5999654
 121.3492662  43.7343900  32.8616409 121.2325046  44.6789333  32.7595099
 120.5285108  43.4317462  33.2502208 115.6807603  30.1994214  38.8990763
 116.3266467  29.6893168  39.3877988 115.4724754  30.9362895  39.4734188
 128.2060995  37.2675061  44.3982904 129.0752155  37.4415713  44.0369539
 127.7267747  38.0869478  44.2758633 122.3747176  44.3872162  36.0772337
 123.2774422  44.4195772  36.3938832 122.1484546  43.4572613  36.0918673
 124.1300778  43.1403149  32.7382416 123.1796409  43.1405010  32.6246788
 124.4333264  42.3935883  32.2218451 120.0205094  27.3461831  42.9965777
 120.8836556  26.9898636  43.2069102 119.4470505  27.0075726  43.6841182
 139.8653471  48.9763687  33.8028178 140.5031881  48.8570435  33.0991518
 139.7474314  49.9244531  33.8616130 136.6743177  48.9291115  33.7389703
 136.3361689  48.8132180  32.8510238 137.5432946  48.5282280  33.7190709
 132.5329993  50.7826592  29.7286594 131.9694858  50.6916529  28.9602882
 132.4182388  49.9626496  30.2089086 137.1562960  50.0825967  39.6975909
 137.1451601  49.6878765  38.8256412 137.3183600  49.3492040  40.2909680
 130.0794425  52.2777783  32.5670814 130.8715717  51.9368608  32.1517114
 130.3191075  52.3872758  33.4872968 138.1129552  54.4497559  25.0401059
 137.4617532  55.0351640  24.6535073 138.9073915  54.9803754  25.0996096
 132.0385179  51.5386697  25.4388193 132.8116055  50.9915684  25.3001069
 132.3910578  52.4030946  25.6502655 133.8770222  52.8663079  38.6455093
 133.5860088  53.7708710  38.5301759 134.5127206  52.9079606  39.3599162
 134.8026428  50.2439927  35.2356452 135.3990001  50.0195950  34.5213415
 134.8601400  49.5024673  35.8381900 134.3751457  47.6979363  23.0706643
 134.6276978  47.1760884  22.3090106 133.4376016  47.5345508  23.1733327
 139.4194740  46.7015141  30.8781386 140.2057829  46.2834564  30.5271803
 139.6833444  47.6061233  31.0463035 139.5904817  52.1387991  25.5770043
 138.9550650  52.2122618  26.2890948 139.2602223  52.7281590  24.8989122
 134.0947746  49.6007469  25.2731018 133.9784004  48.9252372  25.9412102
 134.2050006  49.1139843  24.4563171 136.4379287  49.0617616  28.9777707
 136.0737494  48.5348237  29.6890629 137.2946402  48.6716085  28.8044193
 142.3428587  40.3511948  36.2408973 142.0111912  41.2207359  36.0170188
 141.7474201  40.0348232  36.9203004 138.8360107  52.5524494  35.6404886
 138.5360830  53.4549533  35.5320693 138.4911166  52.2856678  36.4926039
 132.2872588  49.0038291  31.6741591 131.3623085  48.8714505  31.8819282
 132.5357001  49.7832510  32.1711533 142.2357251  45.0707034  33.3202324
 141.3274128  45.0022443  33.0261084 142.1844846  45.5478979  34.1484149
 136.0573994  46.5465173  24.9585723 135.9373620  46.9922224  25.7971203
 135.3626583  46.8950491  24.3999261 129.6481399  48.6471565  32.5085380
 129.7773780  48.9006044  33.4224791 128.9678851  49.2399273  32.1890035
 133.8180887  59.3168815  28.6075854 133.7404916  60.2676640  28.6864334
 133.2142530  58.9714687  29.2650780 136.3098116  46.4896680  41.2637221
 135.5331450  47.0490600  41.2540085 136.9488679  46.9753463  41.7852091
 134.5644489  49.2982133  40.8255188 135.3059173  49.8367177  40.5490011
 133.8581474  49.9248422  40.9826740 140.0399828  51.4411274  39.4227349
 140.4483184  50.9993684  38.6781982 139.3177090  50.8663901  39.6761542
 136.3930898  46.3783881  36.7960906 137.2392093  46.8023294  36.9395555
 136.3329536  45.7217505  37.4899469 140.3628643  52.0012465  33.1779638
 139.7337505  52.1658179  32.4755706 139.9754305  52.4154074  33.9490602
 139.5430344  44.0388249  38.4542080 139.2991275  44.7930310  37.9176356
 139.8190274  44.4173597  39.2889327 141.4968806  50.5826861  37.1319345
 141.7085702  51.2258621  36.4553727 141.4498555  49.7489178  36.6641276
 139.0995035  43.1944682  34.0355918 138.2379514  43.4925936  34.3272655
 139.1257470  43.4115081  33.1036950 135.9156605  51.7386873  30.4429723
 136.3794950  52.0174576  29.6534346 135.6513403  50.8370317  30.2602814
 132.8080686  51.2858354  33.3809487 133.3782043  51.7145623  32.7426971
 133.3988798  51.0040939  34.0793672 134.8525491  47.8610025  27.2519288
 135.5549534  48.3131069  27.7193215 134.5206119  47.2193844  27.8799182
 133.3005852  46.4521782  41.6270498 132.6704513  47.1338062  41.8605895
 133.1941940  46.3404863  40.6823636 128.5950825  46.1193578  32.5536422
 127.8049879  46.3751106  32.0776533 129.0862072  46.9341915  32.6588463
 142.6114634  53.4598817  35.3041703 143.4332078  53.0579004  35.0224384
 142.6077037  53.3567051  36.2557819 130.5465570  46.4838157  29.5119899
 129.7496733  46.5956851  30.0303394 130.3191162  46.8224809  28.6460789
 136.3771238  53.0082860  37.4602413 136.4415670  53.4703267  38.2960585
 135.6682162  52.3780225  37.5884723 126.8788528  46.3724068  34.9851413
 127.1296566  47.2571078  35.2508989 127.4148076  46.1928670  34.2126505
 136.0919255  54.6750968  27.3281394 135.9564930  55.5202503  27.7566241
 136.6329068  54.8770245  26.5647327 132.5786595  40.7542547  43.9895749
 132.1853541  40.2008746  44.6643393 133.3952735  41.0653126  44.3802266
 129.5448653  52.1926406  27.9009319 130.0573173  52.9869656  28.0514883
 130.1971366  51.4952696  27.8342920 131.3543538  55.3092162  29.9832072
 131.5310166  56.2310127  29.7953056 132.1500371  54.9950581  30.4126452
 135.4954556  42.1700427  41.5816005 136.2364269  42.7707580  41.5020468
 135.7272479  41.4278064  41.0234048 130.6395894  47.3556794  39.8594235
 130.5249409  46.4542051  40.1601334 129.7840412  47.6020491  39.5079052
 137.7187732  55.2974534  41.4581736 137.2751586  54.5110913  41.1402640
 138.3804945  55.4853685  40.7925626 132.4774853  56.8270336  35.9842414
 133.0282278  56.6987399  35.2119408 131.6386329  57.1265225  35.6337307
 139.8168970  55.5777334  39.4863137 139.7987445  56.3986215  38.9943406
 140.7388890  55.4531409  39.7113278 136.2742024  53.0921464  40.3286645
 136.8070361  52.3309752  40.0985953 135.7456105  52.7995115  41.0710800
 139.4411719  38.1981529  35.8580287 139.0975988  39.0883171  35.7819398
 139.8090682  38.0083187  34.9949872 127.5097570  50.5215060  28.6768889
 128.3472792  50.9312068  28.4602597 127.6875837  49.5814502  28.6469083
 139.4062002  48.1890141  24.3652722 138.8908625  48.9594745  24.6041110
 139.1339310  47.5155277  24.9885784 136.9909113  43.0339841  29.4237961
 136.1350709  42.6446692  29.2443599 137.4036065  43.1131802  28.5637746
 138.5208259  40.5686185  33.8229520 138.0173055  40.5316320  33.0097326
 138.8138866  41.4778927  33.8826177 134.7651145  40.6524914  32.8295702
 135.6304142  40.4567723  32.4701592 134.8328654  40.4235266  33.7565059
 139.1948305  46.0617233  26.1912503 138.8898440  46.3763382  27.0422647
 140.1478747  46.1398653  26.2339836 137.6394737  52.2207456  27.8405457
 137.1116098  51.4860216  27.5278695 137.1382239  52.9982132  27.5945426
 142.6187583  50.4156476  32.9572504 141.9611257  51.1055738  33.0452632
 143.4227982  50.8052908  33.3006490 132.3713464  42.8827122  30.2012069
 132.9457216  42.6602304  29.4685262 132.9584447  42.9515817  30.9540670
 141.4293042  48.7700849  31.0076445 141.9424923  49.4030841  31.5098155
 142.0794265  48.1702045  30.6419805 132.6983051  44.9131583  24.2207954
 131.8620364  45.2506270  24.5417229 132.5587821  44.7780563  23.2835091
 134.6736132  39.7568371  28.9287138 134.0200544  39.4417388  28.3043753
 134.6316606  39.1344112  29.6546961 138.6915416  58.7485173  23.7637117
 138.0177115  59.0516870  24.3722074 139.0781238  59.5514254  23.4142574
 137.9073872  46.2450305  33.2534786 136.9896434  46.4665252  33.0956474
 138.3234016  46.3196615  32.3946493 138.6908920  47.6441720  28.3837466
 139.4380739  48.1563118  28.0744588 138.9600510  47.3225773  29.2441860
 136.9635570  50.1400261  25.3664420 136.0546790  49.8559294  25.4636890
 136.9930654  50.5599340  24.5067727 142.1954838  53.7506851  29.1355588
 141.7417165  52.9097761  29.1920779 141.5648804  54.3868249  29.4730368
 141.1387757  44.6798837  30.3656255 140.4010514  44.1676223  30.6966498
 141.3914531  44.2399218  29.5539532 140.6387777  55.5883347  30.0705406
 140.9310751  56.1488404  29.3517772 141.1486398  55.8811908  30.8258565
 127.5323741  47.8605775  29.3479623 127.3348141  47.2675136  28.6230689
 126.9770405  47.5557985  30.0655561 135.5120464  47.7528882  31.4674216
 135.5669074  46.8002718  31.3916692 134.7011666  47.9088321  31.9515514
 136.6611658  51.6809005  22.7052499 136.2231088  50.9644864  22.2458136
 137.4022099  51.9085120  22.1437590 133.4512824  46.3705941  29.2264595
 132.6380690  46.6700112  29.6329787 133.9471818  45.9761630  29.9439077
 135.6021402  56.3663698  31.1598859 135.5597581  56.5924545  30.2307391
 136.5184101  56.1327073  31.3084661 139.0487036  46.8347766  38.0579489
 139.4036424  47.0619239  38.9173954 139.6959167  47.1666143  37.4356744
 132.9426899  43.9424297  34.8425830 133.5826278  43.8013056  34.1448793
 132.1104430  43.6558810  34.4664432 133.7187203  53.2426727  30.9560822
 134.5127801  52.7477048  30.7543397 133.0078895  52.7144591  30.5928528
 138.5382047  55.6244823  35.3073190 138.5919070  56.1935759  36.0750906
 137.6696829  55.7946708  34.9427227 130.0269966  47.3869809  27.0320575
 129.0967555  47.3254265  27.2490537 130.1227438  46.8645762  26.2357216
 129.9455515  43.9124622  29.6198816 130.2062333  44.8269955  29.5107977
 130.7672688  43.4449065  29.7695429 131.4180441  45.3262379  36.7897641
 132.0903494  45.1179741  36.1410290 130.5910227  45.1284465  36.3502873
 137.3206013  41.9524320  38.8063302 136.6733928  42.6514270  38.7127778
 138.0907028  42.3860464  39.1739550 140.7284811  52.2173172  41.8813855
 140.5770317  51.9883724  40.9643939 140.7189490  53.1743774  41.8945200
 137.4970147  49.7905085  36.8660122 138.4262207  49.9416245  36.6929089
 137.0761177  49.8789106  36.0108768 136.2958479  53.8155749  34.6358659
 136.1569565  53.4474534  35.5084597 135.5073075  54.3303389  34.4642617
 136.8906631  58.9164846  25.9784196 137.0658387  58.4452889  26.7929818
 136.2039419  59.5430612  26.2065456 137.8463694  53.1937352  32.0247497
 137.5113527  53.1538122  32.9205147 137.3467640  52.5282068  31.5517907
 131.8207938  48.6004982  37.5500078 131.6827736  47.8685221  38.1511617
 132.7312862  48.5113882  37.2684266 134.4490239  48.3124941  37.0383758
 135.1589857  47.6718134  36.9970376 134.4059547  48.5637836  37.9609939
 142.4377017  55.2492295  39.9590337 142.3789564  54.5651515  39.2920920
 142.8396536  55.9911285  39.5070963 133.1619173  45.2990159  38.8579397
 132.6256530  44.8480898  39.5100994 132.5735881  45.4336068  38.1149862
 131.4567716  62.0654209  32.7524056 131.6964314  62.6972733  33.4303074
 130.6136913  61.7142249  33.0389415 142.4394425  53.2131879  38.1904317
 141.5521203  52.8757801  38.3130716 143.0092976  52.4814910  38.4273082
 124.0923572  49.5455970  31.5147368 124.7794612  49.2317701  30.9268383
 123.9371700  50.4497335  31.2414619 128.8958294  44.4346167  35.9432392
 128.8116483  43.8271837  35.2082802 128.0741000  44.9255185  35.9441888
 135.9695578  57.8733331  35.1565560 135.8965750  58.6788303  35.6684864
 135.5272971  58.0725297  34.3313581 135.7585358  57.1105101  28.6668381
 134.9752880  57.6526781  28.7606606 136.4578103  57.6279081  29.0662623
 139.0682008  42.9199731  31.3102587 139.5650707  42.1669693  30.9903657
 138.2968989  42.9564047  30.7445796 138.4294262  57.7720165  37.3123719
 139.1422234  58.4067630  37.2399620 137.9384290  57.8684031  36.4963720
 140.1511789  51.6771418  28.8841010 139.2168067  51.7972880  28.7145715
 140.3288457  50.7743885  28.6201020 135.6516977  45.0617114  31.0374271
 135.2814764  44.5088154  31.7255177 136.1476069  44.4575247  30.4849271
 133.4806175  55.5214609  38.1329289 134.1815635  56.1551092  38.2858684
 133.0101290  55.8629340  37.3724929 141.6060571  53.8632558  26.4177196
 141.8820415  53.7489153  27.3271070 140.7365070  53.4650043  26.3789369
 141.5101003  39.8869324  33.4581946 140.5964082  40.1173551  33.6264153
 141.9394104  39.9707768  34.3095978 141.2807461  48.0759216  35.9581840
 140.6278911  48.3235123  35.3034292 141.6587841  47.2623354  35.6244317
 138.2414635  58.1118909  30.0610010 138.4237030  57.2940565  30.5237762
 139.0647621  58.3286601  29.6234900 138.5756800  57.0387094  27.3225058
 139.1044567  56.5279549  26.7095221 138.8385020  56.7229625  28.1870592
 137.3295034  48.8179027  42.4447877 136.6535671  48.7173156  43.1150252
 138.1522668  48.6618241  42.9083874 129.0773893  55.0550964  35.0660392
 129.6627330  54.3094652  35.1988296 128.8798732  55.3654920  35.9497056
 131.9312548  58.0902211  30.0822834 131.2622924  58.5748339  29.5986874
 131.7925418  58.3371431  30.9966213 123.6691548  47.6256564  33.7864835
 123.7075647  47.0920155  34.5801953 123.1631841  47.0991769  33.1675812
 136.0717817  60.1245955  36.6805493 136.6236125  60.2877576  37.4454578
 136.4124010  60.7150392  36.0085518 131.0482310  42.4721104  37.2827377
 131.1123637  43.3335935  36.8704775 130.9849430  41.8595106  36.5499736
 130.5234583  44.5444237  40.9300412 131.1506622  44.1621314  41.5437936
 129.6662502  44.3258439  41.2956104 140.9228691  54.9507212  42.5354147
 141.4668595  55.5637170  42.0409102 140.3415536  55.5086790  43.0521160
 127.3000126  46.3520666  26.8618767 127.5953567  45.4431344  26.8085820
 126.3988161  46.3308405  26.5399769 139.2086204  58.0727930  33.6669175
 139.0837344  57.2717670  33.1580120 139.8665295  58.5674123  33.1783145
 130.8294373  44.4276663  32.8446315 130.1080958  45.0412630  32.7053788
 131.6187628  44.9634427  32.7662961 141.2721113  55.8736950  35.2948725
 140.3251448  55.7542301  35.2227052 141.6203886  54.9859448  35.3774986
 133.6320686  41.7631089  39.1186967 134.1555088  42.0093386  39.8813276
 133.4133019  42.5951124  38.6990104 129.0287967  44.0334764  26.9858092
 128.7000673  43.1532143  26.8033198 129.3827338  43.9782432  27.8734481
 138.2767546  55.6689666  31.4953077 138.1292508  54.7406374  31.6760647
 139.1021039  55.6909757  31.0110153 132.1429790  44.3207733  27.3533569
 132.4825863  44.8493655  26.6312178 132.5901911  44.6588140  28.1292136
 141.8801668  56.4918225  32.5817950 142.8048215  56.2861086  32.4442401
 141.7116971  56.2434626  33.4907292 134.8373231  42.7044784  36.8036637
 134.4970051  41.9052597  37.2057317 134.1312237  43.0046495  36.2313471
 135.4889703  39.7894097  35.2563960 136.3115772  39.3154575  35.1342851
 135.7327766  40.5684580  35.7562647 134.1297937  42.8182355  25.5526862
 134.8506300  43.1963608  25.0490579 133.5063242  43.5371232  25.6561840
 133.0128282  46.4813217  33.0655939 132.8672862  46.7953520  33.9580221
 132.5353485  47.0998118  32.5126838 134.8724665  43.4715765  33.1136829
 134.8586233  42.5756859  32.7769127 135.5897093  43.4786429  33.7475115
 136.7250795  43.9053105  35.1589956 136.4668573  44.8270176  35.1574287
 136.1935836  43.5083540  35.8490420 141.6696984  57.0103893  27.9380041
 141.8433862  56.4450315  27.1853894 142.1625875  57.8104787  27.7559531
 127.4873944  49.0218562  36.0043600 126.9427412  49.7978370  36.1363875
 128.3653294  49.3689366  35.8462722 134.2761560  42.3530146  28.3824399
 134.3977472  41.4246792  28.5815286 133.9863603  42.3668831  27.4702714
 137.1452751  40.0385056  31.5191119 137.1674448  40.1024389  30.5643098
 137.5620810  39.1989565  31.7131625 142.6572157  56.3270657  25.0376940
 143.3523061  56.9477350  25.2564254 142.9995307  55.4766008  25.3129318
 128.2739966  48.1488458  38.8973757 127.5321702  48.2971093  39.4838388
 127.9532710  48.4096724  38.0340507 136.2183628  57.6904436  38.6954147
 136.5270755  57.4453583  39.5676847 137.0159110  57.8951075  38.2073017
 136.2404240  59.8442346  30.9259524 135.8009231  59.3518724  31.6192380
 136.9912357  59.3015313  30.6851599 128.7196579  56.0353887  30.9284152
 129.5454599  55.7357658  30.5482795 128.3690631  55.2661509  31.3773940
 133.6878113  55.3880355  32.9981825 133.0658122  54.7251060  32.6984053
 134.3582979  55.4141487  32.3155473 126.9205184  53.9540213  31.8873085
 126.0837093  53.5262387  31.7057087 126.8928830  54.1472656  32.8243877
 133.7602640  43.8662143  42.5914331 133.8090795  44.7424266  42.2092101
 134.3025154  43.3239536  42.0185975 133.2491619  53.9384278  26.4740286
 133.3979740  54.6219743  25.8206959 134.0558063  53.9189368  26.9889742
 141.6559123  47.2426661  40.5007504 142.5568986  47.1033125  40.2091502
 141.7307098  47.4081115  41.4405681 135.9901928  44.6193515  39.3460690
 135.1205238  44.9127081  39.0743279 136.2261409  45.2033960  40.0667954
 131.0044252  49.9649456  27.4801355 130.7590294  49.0611786  27.6781565
 131.1740167  49.9666606  26.5380833 138.6940962  40.8373132  36.8626110
 139.2122906  41.5734159  36.5372599 138.3396095  41.1437125  37.6972870
 130.2739900  45.6977813  24.9787516 129.5809145  45.7722168  24.3227552
 130.0291652  44.9338157  25.5009033 138.9453556  37.2573415  32.3827007
 139.2255310  36.5896604  33.0087434 139.7304163  37.4502510  31.8701671
 136.7487025  56.4332409  23.9452033 136.1760992  57.0522596  23.4922505
 137.3219819  56.9831770  24.4791955 140.8376794  42.7646632  36.3157983
 140.2426726  43.0451645  35.6204472 140.5526491  43.2540533  37.0874724
 139.9684285  56.7169559  25.0760616 140.9014958  56.6515120  25.2793491
 139.8807498  57.5525826  24.6175148 137.0172516  51.8210968  42.7468743
 137.9375525  51.9989567  42.9408789 136.9822099  50.8767013  42.5948442
 126.2354681  47.0149561  31.6722017 125.9157465  46.1614869  31.3796391
 125.6888109  47.2298139  32.4279985 130.0134589  49.7312002  35.3891524
 130.2320598  50.6629110  35.4079558 130.4260362  49.3719977  36.1746328
 136.9338806  40.2380087  27.3767212 136.1239535  39.8927172  27.7522458
 137.6223223  39.9287631  27.9654824 134.8862454  45.3045208  44.7794273
 134.7859181  46.2539565  44.7106364 134.6683996  44.9763447  43.9070343
 126.1042941  50.6352473  33.6415139 125.4106412  50.2206425  33.1285093
 126.8515932  50.6773009  33.0448558 134.7493724  48.7342347  43.5959335
 134.2660806  49.5342707  43.8023224 134.8354663  48.7450292  42.6426779
 128.0179684  50.5670726  31.5181154 127.9950372  50.6658414  30.5663037
 128.3280320  51.4135877  31.8398320 130.6767061  52.6246881  35.6327768
 131.6310315  52.5930824  35.5657700 130.4779585  52.1637505  36.4477994
 131.2666444  51.1947998  38.1998566 132.0859333  51.6892076  38.2233403
 131.5403251  50.2779966  38.1716134 129.0317290  58.1666501  32.6497966
 128.8971758  57.4066902  32.0835964 128.6149352  58.8907401  32.1826755
 140.9974063  49.1013286  27.7776812 140.9409265  49.5581837  26.9384444
 141.5502406  48.3403970  27.5999654 132.1886416  59.0635818  32.8616409
 132.0718800  60.0081250  32.7595099 131.3678862  58.7609380  33.2502208
 126.5201358  45.5286131  38.8990763 127.1660221  45.0185085  39.3877988
 126.3118509  46.2654813  39.4734188 139.0454750  52.5966979  44.3982904
 139.9145910  52.7707631  44.0369539 138.5661501  53.4161396  44.2758633
 133.2140930  59.7164080  36.0772337 134.1168177  59.7487690  36.3938832
 132.9878300  58.7864531  36.0918673 134.9694532  58.4695066  32.7382416
 134.0190163  58.4696928  32.6246788 135.2727018  57.7227801  32.2218451
 130.8598849  42.6753748  42.9965777 131.7230310  42.3190553  43.2069102
 130.2864259  42.3367643  43.6841182 143.3723748  66.1118509  29.7286594
 142.8088613  66.0208446  28.9602882 143.2576143  65.2918414  30.2089086
 140.9188180  67.6069701  32.5670814 141.7109472  67.2660526  32.1517114
 141.1584830  67.7164676  33.4872968 143.1266343  64.3330209  31.6741591
 142.2016839  64.2006423  31.8819282 143.3750756  65.1124428  32.1711533
 140.4875154  63.9763482  32.5085380 140.6167535  64.2297961  33.4224791
 139.8072605  64.5691190  32.1890035 139.4344579  61.4485495  32.5536422
 138.6443633  61.7043024  32.0776533 139.9255827  62.2633833  32.6588463
 141.3859325  61.8130075  29.5119899 140.5890488  61.9248769  30.0303394
 141.1584917  62.1516727  28.6460789 137.7182282  61.7015986  34.9851413
 137.9690321  62.5862996  35.2508989 138.2541831  61.5220587  34.2126505
 140.3842407  67.5218323  27.9009319 140.8966928  68.3161574  28.0514883
 141.0365120  66.8244614  27.8342920 142.1937292  70.6384080  29.9832072
 142.3703920  71.5602044  29.7953056 142.9894126  70.3242499  30.4126452
 141.4789649  62.6848711  39.8594235 141.3643164  61.7833969  40.1601334
 140.6234166  62.9312408  39.5079052 138.3491324  65.8506978  28.6768889
 139.1866546  66.2603986  28.4602597 138.5269592  64.9106420  28.6469083
 138.3717495  63.1897693  29.3479623 138.1741895  62.5967054  28.6230689
 137.8164159  62.8849903  30.0655561 140.8663721  62.7161727  27.0320575
 139.9361309  62.6546182  27.2490537 140.9621193  62.1937680  26.2357216
 140.7849270  59.2416540  29.6198816 141.0456087  60.1561873  29.5107977
 141.6066442  58.7740982  29.7695429 142.2574195  60.6554297  36.7897641
 142.9297249  60.4471659  36.1410290 141.4303982  60.4576383  36.3502873
 142.2961471  77.3946126  32.7524056 142.5358069  78.0264650  33.4303074
 141.4530667  77.0434166  33.0389415 134.9317326  64.8747888  31.5147368
 135.6188366  64.5609618  30.9268383 134.7765455  65.7789253  31.2414619
 139.7352048  59.7638085  35.9432392 139.6510237  59.1563754  35.2082802
 138.9134755  60.2547103  35.9441888 139.9167648  70.3842881  35.0660392
 140.5021085  69.6386569  35.1988296 139.7192486  70.6946838  35.9497056
 142.7706303  73.4194129  30.0822834 142.1016678  73.9040256  29.5986874
 142.6319173  73.6663349  30.9966213 134.5085302  62.9548482  33.7864835
 134.5469402  62.4212072  34.5801953 134.0025595  62.4283687  33.1675812
 141.8876065  57.8013022  37.2827377 141.9517391  58.6627853  36.8704775
 141.8243185  57.1887024  36.5499736 141.3628337  59.8736155  40.9300412
 141.9900376  59.4913232  41.5437936 140.5056256  59.6550356  41.2956104
 138.1393880  61.6812584  26.8618767 138.4347321  60.7723262  26.8085820
 137.2381916  61.6600323  26.5399769 141.6688127  59.7568580  32.8446315
 140.9474713  60.3704548  32.7053788 142.4581383  60.2926345  32.7662961
 139.8681722  59.3626681  26.9858092 139.5394428  58.4824060  26.8033198
 140.2221092  59.3074350  27.8734481 142.9823545  59.6499651  27.3533569
 143.3219617  60.1785572  26.6312178 143.4295665  59.9880057  28.1292136
 138.3267698  64.3510479  36.0043600 137.7821166  65.1270287  36.1363875
 139.2047048  64.6981284  35.8462722 139.1133720  63.4780376  38.8973757
 138.3715456  63.6263011  39.4838388 138.7926464  63.7388641  38.0340507
 139.5590334  71.3645804  30.9284152 140.3848354  71.0649576  30.5482795
 139.2084386  70.5953427  31.3773940 137.7598939  69.2832131  31.8873085
 136.9230847  68.8554305  31.7057087 137.7322584  69.4764574  32.8243877
 141.8438007  65.2941373  27.4801355 141.5984049  64.3903703  27.6781565
 142.0133921  65.2958524  26.5380833 141.1133654  61.0269731  24.9787516
 140.4202899  61.1014086  24.3227552 140.8685406  60.2630075  25.5009033
 137.0748435  62.3441479  31.6722017 136.7551220  61.4906787  31.3796391
 136.5281864  62.5590057  32.4279985 140.8528343  65.0603920  35.3891524
 141.0714353  65.9921028  35.4079558 141.2654117  64.7011894  36.1746328
 136.9436695  65.9644390  33.6415139 136.2500167  65.5498343  33.1285093
 137.6909686  66.0064927  33.0448558 138.8573438  65.8962644  31.5181154
 138.8344126  65.9950331  30.5663037 139.1674075  66.7427795  31.8398320
 141.5160816  67.9538799  35.6327768 142.4704069  67.9222741  35.5657700
 141.3173339  67.4929423  36.4477994 142.1060198  66.5239915  38.1998566
 142.9253087  67.0183994  38.2233403 142.3797006  65.6071883  38.1716134
 139.8711045  73.4958419  32.6497966 139.7365513  72.7358820  32.0835964
 139.4543107  74.2199319  32.1826755 143.0280171  74.3927736  32.8616409
 142.9112555  75.3373168  32.7595099 142.2072617  74.0901297  33.2502208
 137.3595112  60.8578049  38.8990763 138.0053976  60.3477003  39.3877988
 137.1512263  61.5946731  39.4734188 141.6992603  58.0045666  42.9965777
 142.5624065  57.6482471  43.2069102 141.1258014  57.6659561  43.6841182
   0.8440243  54.6832611 118.7148907   1.7558099  54.9159998 118.5396605
   0.3349890  55.2669655 118.1523986   3.3299058  60.6012867 123.4606852
   2.6450096  60.9811769 122.9103886   3.4142907  61.2108194 124.1938800
   9.7901810  57.4683530 124.5809525   9.0365519  56.8990928 124.4253529
   9.9249351  57.4346195 125.5280159   3.4677459  58.6068460 119.2288746
   2.6906901  58.2679620 118.7843908   4.1468940  58.6121083 118.5543711
   1.2836021  61.4152816 122.0638439   0.8298348  60.5743726 122.1203629
   0.6529987  62.0514214 122.4013219   3.8665956  57.6212167 121.6911668
   3.7283854  57.8113763 120.7632857   3.5102175  58.3831550 122.1479719
   0.7578167  64.6749858 120.8662892   0.9315044  64.1096280 120.1136744
   1.2507058  65.4750752 120.6842382   6.6117558  57.4386281 122.4853192
   7.0548704  56.6893606 122.0872315   5.7344068  57.4296417 122.1026924
   1.7453339  63.9916622 117.9659790   2.4404244  64.6123315 118.1847105
   2.0876489  63.1411973 118.2412168   3.6444762  61.4416328 119.4947121
   4.1696087  61.7803600 118.7696441   3.5567115  60.5063343 119.3110256
   6.1550423  58.9091519 124.8775639   6.9897314  59.3481323 125.0413200
   6.2909552  58.4330172 124.0583885   1.6853484  63.6981394 114.9647414
   1.6067116  63.3641258 115.8583172   2.5063151  64.1903162 114.9638886
   1.1644133  61.4531919 116.6355852   1.9989737  61.0213117 116.4533327
   1.0028476  61.2813932 117.5632746   9.7928409  71.9701570 126.7311029
  10.4306818  71.8508317 126.0274369   9.6749251  72.9182414 126.7898981
   6.6018115  71.9228998 126.6672553   6.2636626  71.8070063 125.7793088
   7.4707883  71.5220163 126.6473560   2.4604930  73.7764474 122.6569444
   1.8969796  73.6854411 121.8885732   2.3457326  72.9564379 123.1371937
   7.0837898  73.0763850 132.6258759   7.0726539  72.6816648 131.7539263
   7.2458537  72.3429922 133.2192530   8.0404489  77.4435442 117.9683909
   7.3892469  78.0289523 117.5817923   8.8348852  77.9741637 118.0278947
   1.9660116  74.5324579 118.3671044   2.7390992  73.9853566 118.2283919
   2.3185515  75.3968829 118.5785505   4.7301366  73.2377810 128.1639303
   5.3264938  73.0133832 127.4496266   4.7876337  72.4962556 128.7664750
   4.3026394  70.6917245 115.9989494   4.5551915  70.1698767 115.2372957
   3.3650953  70.5283391 116.1016177   9.3469677  69.6953024 123.8064237
  10.1332766  69.2772447 123.4554654   9.6108381  70.5999116 123.9745885
   9.5179754  75.1325874 118.5052894   8.8825587  75.2060501 119.2173798
   9.1877161  75.7219473 117.8271973  14.7478104  69.6328257 124.7097215
  15.4803276  69.0627474 124.9435045  13.9917460  69.2449857 125.1503721
   4.0222683  72.5945351 118.2013869   3.9058941  71.9190255 118.8694953
   4.1324943  72.1077725 117.3846022   6.3654224  72.0555498 121.9060558
   6.0012431  71.5286119 122.6173479   7.2221340  71.6653967 121.7327043
  12.2703524  63.3449831 129.1691824  11.9386849  64.2145242 128.9453039
  11.6749138  63.0286115 129.8485854   6.0059711  67.0845398 116.9021906
   6.1734113  67.9525635 117.2692377   5.8156880  67.2472680 115.9783196
   8.7635044  75.5462377 128.5687737   8.4635767  76.4487416 128.4603544
   8.4186104  75.2794560 129.4208890   2.2147525  71.9976174 124.6024441
   1.2898022  71.8652388 124.8102133   2.4631939  72.7770393 125.0994383
  12.1632188  68.0644917 126.2485174  11.2549065  67.9960326 125.9543935
  12.1119784  68.5416862 127.0766999   5.9848932  69.5403056 117.8868573
   5.8648557  69.9860106 118.7254053   5.2901520  69.8888373 117.3282111
   3.7455824  82.3106697 121.5358704   3.6679854  83.2614522 121.6147185
   3.1417467  81.9652570 122.1933631  14.0293834  66.2661356 128.0263048
  13.3868214  66.5593889 127.3802842  13.5248763  66.1514276 128.8316245
  11.6833998  70.0124529 118.7148907  12.5951854  70.2451916 118.5396605
  11.1743645  70.5961573 118.1523986   9.9674766  74.4349157 132.3510200
  10.3758122  73.9931567 131.6064832   9.2452027  73.8601784 132.6044393
   6.3205836  69.3721763 129.7243757   7.1667031  69.7961177 129.8678406
   6.2604473  68.7155388 130.4182320  10.2903580  74.9950347 126.1062489
   9.6612443  75.1596061 125.4038556   9.9029242  75.4091957 126.8773453
  14.1692812  75.9304785 123.4606852  13.4843850  76.3103686 122.9103886
  14.2536661  76.5400112 124.1938800  11.4243744  73.5764744 130.0602196
  11.6360639  74.2196504 129.3836577  11.3773492  72.7427061 129.5924126
   9.0269973  66.1882565 126.9638768   8.1654452  66.4863818 127.2555506
   9.0532407  66.4052964 126.0319801   5.8431542  74.7324755 123.3712574
   6.3069888  75.0112458 122.5817196   5.5788340  73.8308200 123.1885664
   2.7355623  74.2796237 126.3092337   3.3056980  74.7083505 125.6709821
   3.3263735  73.9978822 127.0076523   4.7800428  70.8547908 120.1802139
   5.4824471  71.3068951 120.6476065   4.4481057  70.2131727 120.8082032
  12.5389572  76.4536700 128.2324553  13.3607015  76.0516887 127.9507235
  12.5351974  76.3504934 129.1840669   6.3046175  76.0020743 130.3885264
   6.3690608  76.4641150 131.2243436   5.5957099  75.3718108 130.5167574
  20.6295565  72.7975448 124.5809525  19.8759273  72.2282846 124.4253529
  20.7643106  72.7638113 125.5280159   6.0194193  77.6688850 120.2564244
   5.8839868  78.5140386 120.6849092   6.5604005  77.8708128 119.4930178
   1.2818475  78.3030045 122.9114922   1.4585103  79.2248009 122.7235906
   2.0775308  77.9888464 123.3409302   9.7443907  78.5715217 132.4145987
   9.7262383  79.3924098 131.9226257  10.6663827  78.4469292 132.6396129
   9.3336939  71.1828023 117.2935573   8.8183562  71.9532628 117.5323960
   9.0614247  70.5093159 117.9168634   6.9184050  66.0277724 122.3520811
   6.0625646  65.6384574 122.1726450   7.3311002  66.1069685 121.4920597
   8.4483197  63.5624067 126.7512371   7.9447992  63.5254203 125.9380176
   8.7413804  64.4716810 126.8109027   4.6926083  63.6462797 125.7578553
   5.5579079  63.4505606 125.3984442   4.7603591  63.4173149 126.6847909
  14.3071213  73.9360378 119.2288746  13.5300656  73.5971537 118.7843908
  14.9862694  73.9413001 118.5543711   9.1223242  69.0555115 119.1195354
   8.8173378  69.3701265 119.9705497  10.0753684  69.1336535 119.1622687
   7.5669674  75.2145339 120.7688308   7.0391036  74.4798098 120.4561545
   7.0657177  75.9920015 120.5228276  12.5462520  73.4094359 125.8855354
  11.8886194  74.0993621 125.9735483  13.3502919  73.7990791 126.2289340
   2.2988402  65.8765005 123.1294919   2.8732154  65.6540187 122.3968112
   2.8859384  65.9453700 123.8823521  11.3567979  71.7638732 123.9359296
  11.8699861  72.3968724 124.4381006  12.0069203  71.1639927 123.5702656
   2.6257989  67.9069466 117.1490805   1.7895301  68.2444153 117.4700079
   2.4862758  67.7718446 116.2117942   4.6011069  62.7506254 121.8569989
   3.9475482  62.4355271 121.2326604   4.5591544  62.1281994 122.5829812
   5.7122274  73.0325549 113.7723281   4.8049336  72.8014802 113.9714430
   6.2093306  72.2363168 113.9597262   8.6190353  81.7423056 116.6919967
   7.9452052  82.0454753 117.3004925   9.0056175  82.5452137 116.3425424
   7.8348810  69.2388187 126.1817636   6.9171371  69.4603134 126.0239324
   8.2508953  69.3134498 125.3229344   8.6183857  70.6379603 121.3120317
   9.3655676  71.1501000 121.0027439   8.8875447  70.3163656 122.1724710
   6.8910508  73.1338144 118.2947271   5.9821727  72.8497177 118.3919741
   6.9205591  73.5537222 117.4350578  12.1229775  76.7444733 122.0638439
  11.6692102  75.9035643 122.1203629  11.4923742  77.3806132 122.4013219
  11.0662695  67.6736719 123.2939106  10.3285451  67.1614106 123.6249349
  11.3189468  67.2337101 122.4822383  10.5662714  78.5821230 122.9988257
  10.8585689  79.1426287 122.2800622  11.0761335  78.8749791 123.7541416
  11.1674322  60.4512971 123.8880875  11.4733199  59.5910335 123.6006790
  11.8926927  61.0430592 123.6879869   5.4395402  70.7466764 124.3957066
   5.4944011  69.7940601 124.3199543   4.6286604  70.9026204 124.8798365
   6.5886595  74.6746888 115.6335350   6.1506025  73.9582746 115.1740987
   7.3297036  74.9023002 115.0720441   3.3787762  69.3643824 122.1547445
   2.5655627  69.6637995 122.5612637   3.8746756  68.9699513 122.8721927
   5.5296340  79.3601581 124.0881710   5.4872518  79.5862427 123.1590242
   6.4459038  79.1264956 124.2367511   8.9761973  69.8285649 130.9862339
   9.3311361  70.0557122 131.8456805   9.6234105  70.1604025 130.3639594
  14.7059710  72.9504085 121.6911668  14.5677609  73.1405681 120.7632857
  14.3495929  73.7123467 122.1479719   2.8701836  66.9362180 127.7708680
   3.5101216  66.7950939 127.0731643   2.0379367  66.6496693 127.3947282
  14.7329090  75.0180612 126.7022940  15.1665597  74.9255901 127.5505994
  15.4460671  74.9938112 126.0642956   3.6462140  76.2364610 123.8843673
   4.4402739  75.7414930 123.6826248   2.9353833  75.7082473 123.5211378
   8.4656985  78.6182706 128.2356040   8.5194007  79.1873642 129.0033756
   7.5971766  78.7884591 127.8710077  15.5944639  75.0604312 129.2355825
  15.7880529  75.9650123 129.4815100  15.4945258  74.6011731 130.0694410
  10.6559748  75.2111055 134.8096706  10.5045254  74.9821607 133.8926789
  10.6464428  76.1681656 134.8228051   7.4245084  72.7842968 129.7942972
   8.3537144  72.9354127 129.6211939   7.0036115  72.8726989 128.9391619
   6.2233416  76.8093632 127.5641510   6.0844502  76.4412417 128.4367448
   5.4348013  77.3241272 127.3925467   6.8181568  81.9102729 118.9067046
   6.9933324  81.4390772 119.7212669   6.1314356  82.5368495 119.1348307
   7.7738631  76.1875235 124.9530347   7.4388464  76.1476005 125.8487997
   7.2742577  75.5219951 124.4800758  10.7097823  73.5331269 115.2267407
  10.0926994  72.8078097 115.1300460  10.2414312  74.2940629 114.8834481
   4.3765176  71.3062824 129.9666608   5.0864795  70.6656016 129.9253227
   4.3334484  71.5575719 130.8892789  12.3651955  78.2430178 132.8873187
  12.3064501  77.5589398 132.2203770  12.7671473  78.9849168 132.4353813
   2.4996369  67.7516693 114.3488711   1.6225835  67.6305494 113.9850958
   2.9754122  66.9602772 114.0967600  12.3669362  76.2069761 131.1187167
  11.4796141  75.8695683 131.2413566  12.9367913  75.4752793 131.3555933
   5.8970515  80.8671214 128.0848410   5.8240687  81.6726185 128.5967715
   5.4547909  81.0663180 127.2596432   5.6860295  80.1042984 121.5951232
   4.9027817  80.6464664 121.6889456   6.3853040  80.6216963 121.9945473
   8.9956945  65.9137613 124.2385437   9.4925645  65.1607576 123.9186508
   8.2243927  65.9501930 123.6728647  16.8486703  71.6177979 125.8803729
  16.8376579  72.5002694 125.5097662  15.9804082  71.2649530 125.6858266
   8.3569199  80.7658048 130.2406569   9.0697171  81.4005513 130.1682470
   7.8659228  80.8621914 129.4246571  10.0786726  74.6709301 121.8123861
   9.1443005  74.7910763 121.6428565  10.2563394  73.7681767 121.5483871
   5.5791914  68.0554996 123.9657122   5.2089701  67.5026037 124.6538027
   6.0751006  67.4513130 123.4132122  13.4659277  70.5126620 122.3473895
  13.9319729  71.3454611 122.2734197  13.9166778  70.0471601 123.0519153
  11.5335508  76.8570441 119.3460047  11.8095352  76.7427036 120.2553921
  10.6640007  76.4587926 119.3072220  11.4375940  62.8807207 126.3864796
  10.5239020  63.1111434 126.5547003  11.8669041  62.9645651 127.2378829
  11.2082398  71.0697099 128.8864690  10.5553849  71.3173006 128.2317143
  11.5862778  70.2561237 128.5527167   8.1689572  81.1056792 122.9892860
   8.3511967  80.2878448 123.4520613   8.9922558  81.3224484 122.5517750
   8.5031738  80.0324977 120.2507909   9.0319504  79.5217432 119.6378071
   8.7659957  79.7167507 121.1153442   1.8587486  81.0840094 123.0105685
   1.1897861  81.5686221 122.5269725   1.7200355  81.3309314 123.9249063
   9.1361142  81.0665813 126.5952025   9.0112281  80.2655553 126.0862971
   9.7940233  81.5612006 126.1065995  11.1996050  78.8674833 128.2231575
  10.2526386  78.7480184 128.1509902  11.5478823  77.9797331 128.3057837
   8.2042483  78.6627549 124.4235928   8.0567446  77.7344257 124.6043498
   9.0295977  78.6847640 123.9393003   2.0704728  67.3145616 120.2816420
   2.4100800  67.8431537 119.5595028   2.5176848  67.6526022 121.0574986
  11.8076605  79.4856108 125.5100800  12.7323153  79.2798969 125.3725252
  11.6391908  79.2372509 126.4190142   4.0572875  65.8120238 118.4809713
   4.7781237  66.1901491 117.9773429   3.4338179  66.5309115 118.5844691
   8.2003998  66.5165387 119.4168045   8.4167612  67.3990025 119.1156873
   7.7198065  66.1251600 118.6873687   2.9403219  69.4751100 125.9938790
   2.7947800  69.7891403 126.8863071   2.4628423  70.0936000 125.4409688
   4.7999602  66.4653648 126.0419679   4.7861171  65.5694741 125.7051977
   5.5172030  66.4724312 126.6757965   6.6525733  66.8990988 128.0872807
   6.3943510  67.8208059 128.0857137   6.1210773  66.5021423 128.7773271
  11.5971921  80.0041775 120.8662892  11.7708799  79.4388198 120.1136744
  12.0900813  80.8042670 120.6842382   4.2036498  65.3468028 121.3107249
   4.3252409  64.4184674 121.5098137   3.9138540  65.3606714 120.3985565
   7.0727688  63.0322939 124.4473969   7.0949385  63.0962272 123.4925949
   7.4895747  62.1927447 124.6414475  17.4511313  72.7678198 122.4853192
  17.8942459  72.0185523 122.0872315  16.5737823  72.7588335 122.1026924
  12.5847094  79.3208540 117.9659790  13.2797998  79.9415232 118.1847105
  12.9270244  78.4703891 118.2412168  14.4838517  76.7708245 119.4947121
  15.0089841  77.1095518 118.7696441  14.3960870  75.8355261 119.3110256
   6.1679178  82.8380228 123.8542374   5.7284168  82.3456607 124.5475231
   6.9187295  82.2953196 123.6134449   3.6153050  78.3818238 125.9264676
   2.9933059  77.7188943 125.6266904   4.2857917  78.4079369 125.2438324
  14.1732423  77.4041149 134.7998319  13.3827967  77.3865288 134.2602818
  13.9365778  77.9429443 135.5547356  14.2930298  74.2533615 132.1131047
  14.3428303  74.0883623 133.0546570  14.1844221  73.3860874 131.7228928
   3.1766557  76.9322161 119.4023136   3.3254677  77.6157625 118.7489809
   3.9833000  76.9127251 119.9172592  15.7948495  76.6730557 132.3573069
  15.5033303  77.0360537 133.1936530  15.1820626  75.9597565 132.1786401
  16.9944177  74.2383437 124.8775639  17.8291069  74.6773241 125.0413200
  17.1303306  73.7622090 124.0583885  14.0435683  71.7963171 130.8253127
  14.5189805  71.9890818 130.0171978  13.1201249  71.8522357 130.5796511
   0.9319190  72.9587339 120.4084205   0.6865232  72.0549669 120.6064415
   1.1015104  72.9604489 119.4663683   8.8728494  60.2511297 125.3109857
   9.1530248  59.5834487 125.9370284   9.6579101  60.4440393 124.7984521
   6.6761962  79.4270291 116.8734884   6.1035929  80.0460479 116.4205356
   7.2494756  79.9769653 117.4074806  12.7437352  68.6728931 129.0581433
  13.6954775  68.7727029 129.0793657  12.5740803  67.8807200 129.5679517
  10.7651732  65.7584515 129.2440834  10.1701664  66.0389527 128.5487322
  10.4801428  66.2478416 130.0157575   9.8959222  79.7107442 118.0043466
  10.8289895  79.6453003 118.2076342   9.8082435  80.5463708 117.5457999
  12.5247239  79.0273312 114.9647414  12.4460870  78.6933175 115.8583172
  13.3456906  79.5195080 114.9638886  15.2225430  71.8935051 128.1723732
  15.1901750  70.9551052 128.3583416  15.8326054  71.9719088 127.4389557
   7.0608761  70.7631104 114.2150936   8.0067866  70.6337312 114.2839354
   6.6823006  70.0245766 114.6920364  15.3719918  68.6846095 128.2182015
  14.8558967  67.9004551 128.0311944  16.2559867  68.3564811 128.3828535
  13.0330645  62.4287110 124.1777828  12.8355466  62.1202198 125.0621160
  13.6430351  63.1548749 124.3075758  21.0401980  72.9551058 127.3129769
  21.7705368  72.6936346 127.8737472  20.4308925  72.2179780 127.3531837
  19.1217277  71.0958921 127.9104220  18.3950440  70.9614886 127.3020712
  18.7064564  71.4035749 128.7160938   5.2451678  68.6881081 114.1505822
   4.3383133  68.3914193 114.2268535   5.5227659  68.3910899 113.2840108
   6.8613744  63.2317970 120.3050063   6.0514472  62.8865055 120.6805309
   7.5498161  62.9225514 120.8937674   8.7904292  62.3096017 121.9274359
   9.3435331  62.7291470 122.5864383   9.0274378  61.3831765 121.9697315
   4.0150463  65.5468016 114.2917801   4.8769627  65.8722914 114.5513618
   4.2000807  64.7599512 113.7790867  12.1683099  64.4196542 121.4353024
  11.5881768  65.0781346 121.0531076  11.9019032  63.5973887 121.0240441
  10.6186665  63.8201600 123.6374344  11.1186444  63.9318134 122.8288663
  11.2622273  63.5162653 124.2775152  10.9507977  66.5796633 120.4909372
  10.0633832  66.8646283 120.2729567  11.3661966  66.4190396 119.6436649
  14.3022513  66.6043154 124.2063711  15.0782903  67.0939606 124.4788328
  13.5770647  67.0301208 124.6635581  16.7395072  67.3170773 125.2637652
  17.3339563  67.0766509 124.5530960  16.8121656  66.5977903 125.8911188
  10.0951191  76.3441307 114.5857392  10.7987041  76.5491310 115.2015048
   9.3713839  76.9118069 114.8506475  10.9249001  72.0951169 120.7059662
  10.8684202  72.5519720 119.8667295  11.4777343  71.3341853 120.5282505
  14.7353807  67.8840900 121.5309782  14.4790741  67.4837536 122.3617989
  14.1106675  68.5984694 121.4059921  19.0466145  70.6236974 124.0381073
  18.4865703  70.6930163 124.8112635  18.4409648  70.4477958 123.3180569
  12.0037888  76.7823836 116.6355852  12.8383492  76.3505035 116.4533327
  11.8422231  76.6105850 117.5632746  11.6583780  73.2855950 118.0012191
  11.6032584  73.1200221 117.0600635  11.0329835  73.9931983 118.1574381
   4.9679906  62.7864059 117.5797510   4.9558575  63.7305899 117.7365781
   5.8603327  62.6034204 117.2856971   4.8969470  81.4632949 125.6665266
   3.9465101  81.4634811 125.5529639   5.2001956  80.7165684 125.1501301
   8.7832025  59.3806835 121.8343447   8.0164421  58.8265322 121.9800129
   9.1942730  59.4528704 122.6957598  20.6322163  87.2993488 126.7311029
  21.2700573  87.1800235 126.0274369  20.5143006  88.2474332 126.7898981
  17.4411869  87.2520916 126.6672553  17.1030381  87.1361980 125.7793088
  18.3101637  86.8512081 126.6473560  13.2998685  89.1056392 122.6569444
  12.7363550  89.0146329 121.8885732  13.1851080  88.2856297 123.1371937
  17.9231652  88.4055767 132.6258759  17.9120293  88.0108566 131.7539263
  18.0852292  87.6721840 133.2192530  10.8463117  90.6007584 125.4953665
  11.6384409  90.2598408 125.0799964  11.0859767  90.7102559 126.4155818
  18.8798244  92.7727360 117.9683909  18.2286223  93.3581440 117.5817923
  19.6742607  93.3033555 118.0278947  12.8053871  89.8616497 118.3671044
  13.5784747  89.3145484 118.2283919  13.1579270  90.7260746 118.5785505
  15.5695120  88.5669728 128.1639303  16.1658693  88.3425750 127.4496266
  15.6270092  87.8254473 128.7664750  15.1420149  86.0209163 115.9989494
  15.3945669  85.4990684 115.2372957  14.2044708  85.8575308 116.1016177
  20.1863431  85.0244941 123.8064237  20.9726521  84.6064365 123.4554654
  20.4502136  85.9291034 123.9745885  20.3573509  90.4617792 118.5052894
  19.7219342  90.5352418 119.2173798  20.0270915  91.0511391 117.8271973
  25.5871859  84.9620175 124.7097215  26.3197031  84.3919391 124.9435045
  24.8311214  84.5741775 125.1503721  14.8616437  87.9237269 118.2013869
  14.7452696  87.2482172 118.8694953  14.9718697  87.4369643 117.3846022
  17.2047978  87.3847416 121.9060558  16.8406186  86.8578037 122.6173479
  18.0615094  86.9945885 121.7327043  23.1097279  78.6741749 129.1691824
  22.7780604  79.5437160 128.9453039  22.5142892  78.3578033 129.8485854
  16.8453465  82.4137316 116.9021906  17.0127868  83.2817552 117.2692377
  16.6550634  82.5764598 115.9783196  19.6028799  90.8754295 128.5687737
  19.3029522  91.7779334 128.4603544  19.2579858  90.6086478 129.4208890
  13.0541280  87.3268092 124.6024441  12.1291776  87.1944306 124.8102133
  13.3025693  88.1062311 125.0994383  23.0025942  83.3936835 126.2485174
  22.0942820  83.3252243 125.9543935  22.9513538  83.8708780 127.0766999
  16.8242686  84.8694973 117.8868573  16.7042311  85.3152024 118.7254053
  16.1295275  85.2180291 117.3282111  10.4150091  86.9701365 125.4368230
  10.5442472  87.2235844 126.3507642   9.7347542  87.5629073 125.1172885
  14.5849578  97.6398615 121.5358704  14.5073608  98.5906440 121.6147185
  13.9811222  97.2944488 122.1933631  17.0766808  84.8126480 134.1920071
  16.3000142  85.3720401 134.1822936  17.7157371  85.2983263 134.7134941
  24.8687589  81.5953273 128.0263048  24.2261969  81.8885806 127.3802842
  24.3642517  81.4806194 128.8316245  22.5227752  85.3416446 118.7148907
  23.4345608  85.5743833 118.5396605  22.0137399  85.9253491 118.1523986
  20.8068520  89.7641074 132.3510200  21.2151876  89.3223485 131.6064832
  20.0845782  89.1893702 132.6044393  17.1599590  84.7013681 129.7243757
  18.0060785  85.1253095 129.8678406  17.0998228  84.0447305 130.4182320
  21.1297335  90.3242265 126.1062489  20.5006197  90.4887979 125.4038556
  20.7422997  90.7383874 126.8773453  25.0086567  91.2596703 123.4606852
  24.3237605  91.6395604 122.9103886  25.0930416  91.8692029 124.1938800
  20.3099035  82.3618049 131.3824930  20.0659967  83.1160110 130.8459206
  20.5858966  82.7403397 132.2172177  22.2637498  88.9056662 130.0602196
  22.4754393  89.5488422 129.3836577  22.2167246  88.0718978 129.5924126
  19.8663727  81.5174482 126.9638768  19.0048206  81.8155736 127.2555506
  19.8926162  81.7344881 126.0319801  16.6825297  90.0616673 123.3712574
  17.1463642  90.3404376 122.5817196  16.4182095  89.1600118 123.1885664
  13.5749378  89.6088155 126.3092337  14.1450735  90.0375423 125.6709821
  14.1657489  89.3270739 127.0076523  15.6194183  86.1839825 120.1802139
  16.3218226  86.6360869 120.6476065  15.2874811  85.5423644 120.8082032
   9.3619517  84.4423378 125.4819272   8.5718571  84.6980907 125.0059383
   9.8530764  85.2571716 125.5871313  23.3783326  91.7828617 128.2324553
  24.2000770  91.3808805 127.9507235  23.3745729  91.6796851 129.1840669
  11.3134262  84.8067957 122.4402749  10.5165425  84.9186652 122.9586245
  11.0859854  85.1454610 121.5743640  17.1439930  91.3312661 130.3885264
  17.2084362  91.7933068 131.2243436  16.4350853  90.7010025 130.5167574
   7.6457220  84.6953868 127.9134263   7.8965258  85.5800878 128.1791839
   8.1816768  84.5158470 127.1409355  31.4689319  88.1267366 124.5809525
  30.7153028  87.5574764 124.4253529  31.6036860  88.0930030 125.5280159
  16.8587947  92.9980768 120.2564244  16.7233622  93.8432304 120.6849092
  17.3997760  93.2000046 119.4930178  10.3117345  90.5156206 120.8292169
  10.8241865  91.3099456 120.9797734  10.9640057  89.8182496 120.7625771
  12.1212229  93.6321962 122.9114922  12.2978858  94.5539927 122.7235906
  12.9169063  93.3180382 123.3409302  16.2623248  80.4930227 134.5098856
  17.0032961  81.0937380 134.4303318  16.4941171  79.7507865 133.9516898
  20.5837662  93.9007134 132.4145987  20.5656137  94.7216015 131.9226257
  21.5057582  93.7761210 132.6396129  20.2080411  76.5211330 128.7863138
  19.8644680  77.4112972 128.7102248  20.5759373  76.3312988 127.9232723
   8.2766261  88.8444860 121.6051740   9.1141483  89.2541869 121.3885447
   8.4544529  87.9044303 121.5751934  20.1730694  86.5119941 117.2935573
  19.6577317  87.2824546 117.5323960  19.9008002  85.8385077 117.9168634
  17.7577805  81.3569642 122.3520811  16.9019401  80.9676492 122.1726450
  18.1704756  81.4361603 121.4920597  19.2876951  78.8915985 126.7512371
  18.7841747  78.8546120 125.9380176  19.5807558  79.8008728 126.8109027
  15.5319837  78.9754715 125.7578553  16.3972834  78.7797523 125.3984442
  15.5997346  78.7465067 126.6847909  25.1464968  89.2652296 119.2288746
  24.3694410  88.9263455 118.7843908  25.8256449  89.2704919 118.5543711
  19.9616997  84.3847033 119.1195354  19.6567132  84.6993182 119.9705497
  20.9147439  84.4628453 119.1622687  18.4063429  90.5437256 120.7688308
  17.8784790  89.8090016 120.4561545  17.9050931  91.3211933 120.5228276
  23.3856275  88.7386277 125.8855354  22.7279949  89.4285538 125.9735483
  24.1896674  89.1282709 126.2289340  13.1382156  81.2056923 123.1294919
  13.7125908  80.9832104 122.3968112  13.7253139  81.2745617 123.8823521
  22.1961733  87.0930650 123.9359296  22.7093615  87.7260641 124.4381006
  22.8462957  86.4931845 123.5702656  13.4651743  83.2361384 117.1490805
  12.6289056  83.5736070 117.4700079  13.3256513  83.1010364 116.2117942
  15.4404824  78.0798172 121.8569989  14.7869236  77.7647189 121.2326604
  15.3985298  77.4573912 122.5829812  16.5516029  88.3617467 113.7723281
  15.6443090  88.1306720 113.9714430  17.0487061  87.5655086 113.9597262
  19.4584108  97.0714974 116.6919967  18.7845806  97.3746671 117.3004925
  19.8449930  97.8744054 116.3425424  18.6742564  84.5680105 126.1817636
  17.7565126  84.7895052 126.0239324  19.0902708  84.6426416 125.3229344
  19.4577612  85.9671521 121.3120317  20.2049431  86.4792918 121.0027439
  19.7269202  85.6455574 122.1724710  17.7304262  88.4630062 118.2947271
  16.8215481  88.1789094 118.3919741  17.7599346  88.8829140 117.4350578
  22.9623530  92.0736651 122.0638439  22.5085857  91.2327561 122.1203629
  22.3317496  92.7098049 122.4013219  21.9056449  83.0028637 123.2939106
  21.1679206  82.4906023 123.6249349  22.1583223  82.5629019 122.4822383
  21.4056469  93.9113148 122.9988257  21.6979443  94.4718205 122.2800622
  21.9155089  94.2041709 123.7541416  22.0068076  75.7804889 123.8880875
  22.3126953  74.9202253 123.6006790  22.7320681  76.3722509 123.6879869
   8.2992433  86.1835576 122.2762473   8.1016832  85.5904936 121.5513540
   7.7439097  85.8787786 122.9938412  16.2789156  86.0758682 124.3957066
  16.3337766  85.1232519 124.3199543  15.4680358  86.2318121 124.8798365
  17.4280350  90.0038805 115.6335350  16.9899780  89.2874664 115.1740987
  18.1690791  90.2314920 115.0720441  14.2181516  84.6935742 122.1547445
  13.4049382  84.9929912 122.5612637  14.7140510  84.2991431 122.8721927
  16.3690094  94.6893499 124.0881710  16.3266273  94.9154345 123.1590242
  17.2852793  94.4556873 124.2367511  19.8155728  85.1577566 130.9862339
  20.1705116  85.3849039 131.8456805  20.4627859  85.4895943 130.3639594
  25.5453465  88.2796002 121.6911668  25.4071363  88.4697598 120.7632857
  25.1889684  89.0415385 122.1479719  13.7095591  82.2654097 127.7708680
  14.3494970  82.1242857 127.0731643  12.8773121  81.9788611 127.3947282
  25.5722844  90.3472529 126.7022940  26.0059351  90.2547818 127.5505994
  26.2854425  90.3230030 126.0642956  14.4855895  91.5656528 123.8843673
  15.2796493  91.0706848 123.6826248  13.7747587  91.0374391 123.5211378
  19.3050739  93.9474623 128.2356040  19.3587762  94.5165560 129.0033756
  18.4365521  94.1176508 127.8710077  10.7938658  85.7099610 119.9603425
   9.8636246  85.6484065 120.1773387  10.8896130  85.1875562 119.1640067
  10.7124207  82.2354422 122.5481667  10.9731025  83.1499756 122.4390827
  11.5341380  81.7678865 122.6978280  12.1849133  83.6492180 129.7180491
  12.8572186  83.4409542 129.0693140  11.3578919  83.4514266 129.2785724
  26.4338394  90.3896230 129.2355825  26.6274284  91.2942040 129.4815100
  26.3339012  89.9303649 130.0694410  18.0874705  80.2754120 131.7346152
  17.4402620  80.9744070 131.6410629  18.8575720  80.7090264 132.1022401
  21.4953503  90.5402973 134.8096706  21.3439009  90.3113524 133.8926789
  21.4858182  91.4973574 134.8228051  18.2638839  88.1134885 129.7942972
  19.1930899  88.2646045 129.6211939  17.8429869  88.2018906 128.9391619
  17.0627171  92.1385550 127.5641510  16.9238256  91.7704334 128.4367448
  16.2741767  92.6533189 127.3925467  17.6575323  97.2394646 118.9067046
  17.8327078  96.7682689 119.7212669  16.9708111  97.8660412 119.1348307
  18.6132386  91.5167153 124.9530347  18.2782219  91.4767922 125.8487997
  18.1136332  90.8511868 124.4800758  12.5876630  86.9234783 130.4782929
  12.4496428  86.1915021 131.0794468  13.4981553  86.8343683 130.1967116
  21.5491578  88.8623187 115.2267407  20.9320748  88.1370015 115.1300460
  21.0808066  89.6232547 114.8834481  15.2158931  86.6354742 129.9666608
  15.9258549  85.9947934 129.9253227  15.1728239  86.8867637 130.8892789
  23.2045709  93.5722095 132.8873187  23.1458255  92.8881315 132.2203770
  23.6065228  94.3141085 132.4353813  13.9287865  83.6219960 131.7862248
  13.3925222  83.1710698 132.4383844  13.3404573  83.7565869 131.0432712
  13.3390123  83.0808611 114.3488711  12.4619590  82.9597412 113.9850958
  13.8147877  82.2894689 114.0967600  23.2063116  91.5361679 131.1187167
  22.3189895  91.1987601 131.2413566  23.7761668  90.8044710 131.3555933
   4.8592264  87.8685771 124.4430219   5.5463303  87.5547501 123.8551234
   4.7040392  88.7727136 124.1697470   9.6626986  82.7575967 128.8715242
   9.5785174  82.1501637 128.1365652   8.8409692  83.2484986 128.8724739
  16.7364270  96.1963131 128.0848410  16.6634441  97.0018103 128.5967715
  16.2941663  96.3955097 127.2596432  16.5254050  95.4334902 121.5951232
  15.7421571  95.9756582 121.6889456  17.2246795  95.9508881 121.9945473
  19.8350700  81.2429531 124.2385437  20.3319399  80.4899493 123.9186508
  19.0637681  81.2793848 123.6728647  27.6880457  86.9469897 125.8803729
  27.6770333  87.8294612 125.5097662  26.8197836  86.5941447 125.6858266
  19.1962953  96.0949966 130.2406569  19.9090926  96.7297430 130.1682470
  18.7052982  96.1913832 129.4246571  20.9180480  90.0001218 121.8123861
  19.9836759  90.1202681 121.6428565  21.0957149  89.0973685 121.5483871
  16.4185668  83.3846914 123.9657122  16.0483456  82.8317954 124.6538027
  16.9144761  82.7805047 123.4132122  24.3053032  85.8418537 122.3473895
  24.7713484  86.6746529 122.2734197  24.7560532  85.3763519 123.0519153
  22.3729263  92.1862359 119.3460047  22.6489107  92.0718953 120.2553921
  21.5033762  91.7879844 119.3072220  22.2769694  78.2099124 126.3864796
  21.3632774  78.4403351 126.5547003  22.7062796  78.2937569 127.2378829
  22.0476153  86.3989016 128.8864690  21.3947603  86.6464924 128.2317143
  22.4256533  85.5853155 128.5527167  19.0083327  96.4348710 122.9892860
  19.1905721  95.6170366 123.4520613  19.8316313  96.6516402 122.5517750
  19.3425492  95.3616895 120.2507909  19.8713259  94.8509349 119.6378071
  19.6053712  95.0459425 121.1153442  18.0963726  87.1408827 135.3730727
  17.4204363  87.0402957 136.0433102  18.9191360  86.9848041 135.8366724
  12.6981240  96.4132011 123.0105685  12.0291615  96.8978139 122.5269725
  12.5594110  96.6601232 123.9249063  11.8151002  80.7950905 130.2110228
  11.8792329  81.6565736 129.7987626  11.7518122  80.1824906 129.4782586
   8.0668817  84.6750466 119.7901617   8.3622258  83.7661145 119.7368671
   7.1656853  84.6538206 119.4682619  19.9754896  96.3957730 126.5952025
  19.8506036  95.5947470 126.0862971  20.6333987  96.8903924 126.1065995
  11.5963064  82.7506463 125.7729166  10.8749650  83.3642431 125.6336639
  12.3856320  83.2864228 125.6945812  22.0389804  94.1966751 128.2231575
  21.0920140  94.0772102 128.1509902  22.3872578  93.3089249 128.3057837
  14.3989378  80.0860889 132.0469817  14.9223780  80.3323186 132.8096127
  14.1801711  80.9180924 131.6272955   9.7956659  82.3564564 119.9140942
   9.4669365  81.4761943 119.7316048  10.1496030  82.3012233 120.8017331
  19.0436238  93.9919467 124.4235928  18.8961200  93.0636174 124.6043498
  19.8689731  94.0139557 123.9393003  12.9098482  82.6437534 120.2816420
  13.2494555  83.1723455 119.5595028  13.3570603  82.9817940 121.0574986
  22.6470360  94.8148025 125.5100800  23.5716907  94.6090887 125.3725252
  22.4785663  94.5664427 126.4190142  15.6041923  81.0274585 129.7319488
  15.2638743  80.2282398 130.1340168  14.8980929  81.3276295 129.1596321
  16.2558395  78.1123897 128.1846811  17.0784464  77.6384375 128.0625701
  16.4996458  78.8914381 128.6845497  14.8966629  81.1412155 118.4809713
  15.6174992  81.5193408 117.9773429  14.2731933  81.8601032 118.5844691
  19.0397752  81.8457304 119.4168045  19.2561366  82.7281942 119.1156873
  18.5591819  81.4543518 118.6873687  13.7796973  84.8043018 125.9938790
  13.6341554  85.1183321 126.8863071  13.3022177  85.4227918 125.4409688
  15.6393356  81.7945566 126.0419679  15.6254925  80.8986659 125.7051977
  16.3565784  81.8016229 126.6757965  17.4919487  82.2282906 128.0872807
  17.2337265  83.1499976 128.0857137  16.9604527  81.8313340 128.7773271
  22.4365676  95.3333693 120.8662892  22.6102553  94.7680115 120.1136744
  22.9294567  96.1334588 120.6842382  15.0430252  80.6759946 121.3107249
  15.1646163  79.7476592 121.5098137  14.7532295  80.6898632 120.3985565
  17.9121443  78.3614856 124.4473969  17.9343139  78.4254189 123.4925949
  18.3289502  77.5219365 124.6414475  28.2905067  88.0970116 122.4853192
  28.7336213  87.3477441 122.0872315  27.4131577  88.0880252 122.1026924
  23.4240848  94.6500457 117.9659790  24.1191753  95.2707150 118.1847105
  23.7663998  93.7995809 118.2412168  25.3232271  92.1000163 119.4947121
  25.8483596  92.4387436 118.7696441  25.2354624  91.1647178 119.3110256
  17.0072932  98.1672146 123.8542374  16.5677922  97.6748525 124.5475231
  17.7581049  97.6245114 123.6134449   9.4865271  94.3583687 123.8567002
  10.3123291  94.0587459 123.4765646   9.1359323  93.5891309 124.3056791
  14.4546804  93.7110155 125.9264676  13.8326814  93.0480860 125.6266904
  15.1251671  93.7371287 125.2438324  14.5271332  82.1891943 135.5197182
  14.5759487  83.0654066 135.1374951  15.0693846  81.6469336 134.9468825
  25.0126178  92.7333067 134.7998319  24.2221721  92.7157205 134.2602818
  24.7759532  93.2721360 135.5547356  25.1324053  89.5825533 132.1131047
  25.1822057  89.4175540 133.0546570  25.0237976  88.7152792 131.7228928
  14.0160311  92.2614079 119.4023136  14.1648432  92.9449543 118.7489809
  14.8226755  92.2419169 119.9172592  22.4227815  85.5656461 133.4290354
  23.3237678  85.4262926 133.1374352  22.4975789  85.7310916 134.3688532
  16.7570620  82.9423316 132.2743541  15.8873930  83.2356882 132.0026129
  16.9930101  83.5263761 132.9950804  26.6342249  92.0022474 132.3573069
  26.3427058  92.3652455 133.1936530  26.0214381  91.2889483 132.1786401
  27.8337932  89.5675354 124.8775639  28.6684823  90.0065158 125.0413200
  27.9697060  89.0914007 124.0583885  24.8829438  87.1255089 130.8253127
  25.3583559  87.3182735 130.0171978  23.9595003  87.1814275 130.5796511
  11.7712944  88.2879256 120.4084205  11.5258986  87.3841586 120.6064415
  11.9408859  88.2896407 119.4663683  19.4609654  79.1602933 129.7908961
  19.9791598  79.8963960 129.4655449  19.1064787  79.4666926 130.6255720
  11.0408592  84.0207614 117.9070367  10.3477837  84.0951969 117.2510403
  10.7960344  83.2567957 118.4291884  19.7122248  75.5803215 125.3109857
  19.9924002  74.9126404 125.9370284  20.4972855  75.7732311 124.7984521
  17.5155717  94.7562209 116.8734884  16.9429684  95.3752396 116.4205356
  18.0888510  95.3061571 117.4074806  23.5831107  84.0020849 129.0581433
  24.5348530  84.1018947 129.0793657  23.4134557  83.2099118 129.5679517
  21.6045486  81.0876432 129.2440834  21.0095418  81.3681445 128.5487322
  21.3195183  81.5770333 130.0157575  20.7352977  95.0399359 118.0043466
  21.6683650  94.9744921 118.2076342  20.6476189  95.8755626 117.5457999
  23.3640993  94.3565230 114.9647414  23.2854625  94.0225093 115.8583172
  24.1850660  94.8486997 114.9638886  26.0619184  87.2226969 128.1723732
  26.0295505  86.2842970 128.3583416  26.6719808  87.3011006 127.4389557
  17.9002515  86.0923022 114.2150936  18.8461620  85.9629230 114.2839354
  17.5216760  85.3537684 114.6920364  26.2113673  84.0138012 128.2182015
  25.6952722  83.2296469 128.0311944  27.0953621  83.6856729 128.3828535
  23.8724400  77.7579028 124.1777828  23.6749221  77.4494116 125.0621160
  24.4824105  78.4840667 124.3075758  31.8795734  88.2842976 127.3129769
  32.6099123  88.0228264 127.8737472  31.2702680  87.5471698 127.3531837
  29.9611031  86.4250838 127.9104220  29.2344195  86.2906803 127.3020712
  29.5458318  86.7327667 128.7160938  16.0845432  84.0172998 114.1505822
  15.1776888  83.7206111 114.2268535  16.3621413  83.7202816 113.2840108
   7.0023373  85.3379362 124.6004868   6.6826157  84.4844670 124.3079242
   6.4556801  85.5527940 125.3562835  10.7803280  88.0541803 128.3174374
  10.9989290  88.9858910 128.3362408  11.1929054  87.6949777 129.1029178
  17.7007498  78.5609888 120.3050063  16.8908226  78.2156973 120.6805309
  18.3891915  78.2517432 120.8937674  19.6298046  77.6387935 121.9274359
  20.1829085  78.0583388 122.5864383  19.8668133  76.7123683 121.9697315
  14.8544217  80.8759933 114.2917801  15.7163381  81.2014832 114.5513618
  15.0394561  80.0891429 113.7790867  23.0076854  79.7488460 121.4353024
  22.4275523  80.4073264 121.0531076  22.7412786  78.9265804 121.0240441
  21.4580420  79.1493518 123.6374344  21.9580198  79.2610052 122.8288663
  22.1016028  78.8454570 124.2775152   8.7848375  88.8900527 124.4464004
   8.7619063  88.9888214 123.4945887   9.0949012  89.7365678 124.7681171
  21.7901732  81.9088550 120.4909372  20.9027587  82.1938201 120.2729567
  22.2055721  81.7482314 119.6436649  25.1416268  81.9335071 124.2063711
  25.9176658  82.4231524 124.4788328  24.4164402  82.3593125 124.6635581
  27.5788826  82.6462690 125.2637652  28.1733317  82.4058426 124.5530960
  27.6515410  81.9269821 125.8911188  20.9344945  91.6733225 114.5857392
  21.6380795  91.8783227 115.2015048  20.2107594  92.2409987 114.8506475
  21.7642755  87.4243086 120.7059662  21.7077957  87.8811638 119.8667295
  22.3171098  86.6633771 120.5282505  25.5747561  83.2132818 121.5309782
  25.3184495  82.8129454 122.3617989  24.9500429  83.9276612 121.4059921
  29.8859899  85.9528891 124.0381073  29.3259457  86.0222081 124.8112635
  29.2803402  85.7769876 123.3180569  22.8431642  92.1115754 116.6355852
  23.6777246  91.6796953 116.4533327  22.6815985  91.9397768 117.5632746
  22.4977535  88.6147867 118.0012191  22.4426338  88.4492139 117.0600635
  21.8723590  89.3223900 118.1574381  15.8073660  78.1155976 117.5797510
  15.7952330  79.0597816 117.7365781  16.6997082  77.9326122 117.2856971
  15.7363224  96.7924867 125.6665266  14.7858855  96.7926728 125.5529639
  16.0395710  96.0457601 125.1501301  19.6225780  74.7098753 121.8343447
  18.8558175  74.1557240 121.9800129  20.0336484  74.7820622 122.6957598
  31.4715917 102.6285405 126.7311029  32.1094327 102.5092153 126.0274369
  31.3536760 103.5766249 126.7898981  28.2805624 102.5812833 126.6672553
  27.9424135 102.4653898 125.7793088  29.1495392 102.1803998 126.6473560
  24.1392439 104.4348310 122.6569444  23.5757305 104.3438247 121.8885732
  24.0244835 103.6148214 123.1371937  28.7625407 103.7347685 132.6258759
  28.7514048 103.3400483 131.7539263  28.9246046 103.0013758 133.2192530
  21.6856871 105.9299501 125.4953665  22.4778163 105.5890326 125.0799964
  21.9253522 106.0394476 126.4155818  29.7191998 108.1019277 117.9683909
  29.0679978 108.6873358 117.5817923  30.5136361 108.6325472 118.0278947
  23.6447625 105.1908415 118.3671044  24.4178501 104.6437402 118.2283919
  23.9973024 106.0552664 118.5785505  26.4088875 103.8961645 128.1639303
  27.0052447 103.6717668 127.4496266  26.4663846 103.1546391 128.7664750
  25.9813903 101.3501081 115.9989494  26.2339424 100.8282602 115.2372957
  25.0438462 101.1867226 116.1016177  31.0257186 100.3536859 123.8064237
  31.8120275  99.9356282 123.4554654  31.2895890 101.2582951 123.9745885
  31.1967263 105.7909709 118.5052894  30.5613096 105.8644336 119.2173798
  30.8664670 106.3803308 117.8271973  36.4265613 100.2912092 124.7097215
  37.1590785  99.7211309 124.9435045  35.6704969  99.9033693 125.1503721
  25.7010192 103.2529187 118.2013869  25.5846450 102.5774090 118.8694953
  25.8112452 102.7661561 117.3846022  28.0441733 102.7139334 121.9060558
  27.6799940 102.1869955 122.6173479  28.9008849 102.3237803 121.7327043
  33.9491033  94.0033666 129.1691824  33.6174358  94.8729077 128.9453039
  33.3536647  93.6869950 129.8485854  27.6847220  97.7429233 116.9021906
  27.8521622  98.6109470 117.2692377  27.4944389  97.9056515 115.9783196
  30.4422553 106.2046212 128.5687737  30.1423276 107.1071251 128.4603544
  30.0973613 105.9378396 129.4208890  23.8935034 102.6560009 124.6024441
  22.9685531 102.5236223 124.8102133  24.1419448 103.4354228 125.0994383
  33.8419697  98.7228753 126.2485174  32.9336574  98.6544161 125.9543935
  33.7907293  99.2000697 127.0766999  27.6636441 100.1986891 117.8868573
  27.5436066 100.6443942 118.7254053  26.9689029 100.5472209 117.3282111
  21.2543846 102.2993283 125.4368230  21.3836227 102.5527762 126.3507642
  20.5741297 102.8920991 125.1172885  25.4243333 112.9690533 121.5358704
  25.3467362 113.9198358 121.6147185  24.8204976 112.6236405 122.1933631
  27.9160563 100.1418398 134.1920071  27.1393897 100.7012318 134.1822936
  28.5551126 100.6275181 134.7134941  35.7081343  96.9245191 128.0263048
  35.0655723  97.2177724 127.3802842  35.2036272  96.8098111 128.8316245
  33.3621507 100.6708364 118.7148907  34.2739363 100.9035751 118.5396605
  32.8531154 101.2545408 118.1523986  31.6462275 105.0932992 132.3510200
  32.0545631 104.6515403 131.6064832  30.9239536 104.5185619 132.6044393
  27.9993345 100.0305599 129.7243757  28.8454540 100.4545012 129.8678406
  27.9391982  99.3739223 130.4182320  31.9691089 105.6534183 126.1062489
  31.3399952 105.8179897 125.4038556  31.5816751 106.0675792 126.8773453
  35.8480321 106.5888620 123.4606852  35.1631359 106.9687522 122.9103886
  35.9324170 107.1983947 124.1938800  31.1492790  97.6909967 131.3824930
  30.9053722  98.4452028 130.8459206  31.4252720  98.0695315 132.2172177
  33.1031253 104.2348579 130.0602196  33.3148148 104.8780339 129.3836577
  33.0561001 103.4010896 129.5924126  30.7057482  96.8466400 126.9638768
  29.8441961  97.1447654 127.2555506  30.7319916  97.0636799 126.0319801
  27.5219051 105.3908591 123.3712574  27.9857397 105.6696294 122.5817196
  27.2575849 104.4892035 123.1885664  24.4143132 104.9380072 126.3092337
  24.9844489 105.3667341 125.6709821  25.0051244 104.6562657 127.0076523
  26.4587937 101.5131743 120.1802139  27.1611980 101.9652787 120.6476065
  26.1268566 100.8715562 120.8082032  20.2013271  99.7715296 125.4819272
  19.4112325 100.0272824 125.0059383  20.6924518 100.5863634 125.5871313
  34.2177081 107.1120535 128.2324553  35.0394524 106.7100722 127.9507235
  34.2139483 107.0088769 129.1840669  22.1528016 100.1359875 122.4402749
  21.3559180 100.2478569 122.9586245  21.9253609 100.4746527 121.5743640
  27.9833684 106.6604578 130.3885264  28.0478117 107.1224985 131.2243436
  27.2744608 106.0301943 130.5167574  18.4850974 100.0245786 127.9134263
  18.7359012 100.9092796 128.1791839  19.0210522  99.8450388 127.1409355
  42.3083074 103.4559283 124.5809525  41.5546782 102.8866681 124.4253529
  42.4430615 103.4221948 125.5280159  27.6981702 108.3272686 120.2564244
  27.5627376 109.1724221 120.6849092  28.2391514 108.5291963 119.4930178
  21.1511099 105.8448124 120.8292169  21.6635620 106.6391374 120.9797734
  21.8033812 105.1474414 120.7625771  22.9605984 108.9613880 122.9114922
  23.1372612 109.8831845 122.7235906  23.7562817 108.6472299 123.3409302
  27.1017002  95.8222145 134.5098856  27.8426716  96.4229298 134.4303318
  27.3334925  95.0799782 133.9516898  31.4231416 109.2299052 132.4145987
  31.4049892 110.0507933 131.9226257  32.3451336 109.1053127 132.6396129
  31.0474165  91.8503248 128.7863138  30.7038435  92.7404889 128.7102248
  31.4153128  91.6604905 127.9232723  19.1160016 104.1736778 121.6051740
  19.9535238 104.5833786 121.3885447  19.2938284 103.2336220 121.5751934
  31.0124448 101.8411859 117.2935573  30.4971071 102.6116463 117.5323960
  30.7401756 101.1676995 117.9168634  28.5971559  96.6861559 122.3520811
  27.7413155  96.2968410 122.1726450  29.0098511  96.7653520 121.4920597
  30.1270706  94.2207903 126.7512371  29.6235501  94.1838038 125.9380176
  30.4201313  95.1300645 126.8109027  26.3713592  94.3046632 125.7578553
  27.2366588  94.1089441 125.3984442  26.4391100  94.0756984 126.6847909
  35.9858722 104.5944213 119.2288746  35.2088165 104.2555373 118.7843908
  36.6650203 104.5996836 118.5543711  30.8010751  99.7138951 119.1195354
  30.4960887 100.0285100 119.9705497  31.7541193  99.7920371 119.1622687
  29.2457183 105.8729174 120.7688308  28.7178545 105.1381934 120.4561545
  28.7444686 106.6503850 120.5228276  34.2250029 104.0678195 125.8855354
  33.5673703 104.7577456 125.9735483  35.0290428 104.4574627 126.2289340
  23.9775911  96.5348840 123.1294919  24.5519663  96.3124022 122.3968112
  24.5646893  96.6037535 123.8823521  33.0355488 102.4222567 123.9359296
  33.5487370 103.0552559 124.4381006  33.6856712 101.8223763 123.5702656
  24.3045498  98.5653301 117.1490805  23.4682810  98.9027988 117.4700079
  24.1650267  98.4302281 116.2117942  26.2798578  93.4090089 121.8569989
  25.6262991  93.0939106 121.2326604  26.2379052  92.7865830 122.5829812
  27.3909783 103.6909384 113.7723281  26.4836845 103.4598638 113.9714430
  27.8880815 102.8947004 113.9597262  30.2977862 112.4006892 116.6919967
  29.6239561 112.7038588 117.3004925  30.6843684 113.2035972 116.3425424
  29.5136319  99.8972023 126.1817636  28.5958880 100.1186970 126.0239324
  29.9296462  99.9718333 125.3229344  30.2971366 101.2963438 121.3120317
  31.0443185 101.8084836 121.0027439  30.5662956 100.9747491 122.1724710
  28.5698017 103.7921979 118.2947271  27.6609236 103.5081012 118.3919741
  28.5993100 104.2121058 117.4350578  33.8017284 107.4028569 122.0638439
  33.3479611 106.5619479 122.1203629  33.1711251 108.0389967 122.4013219
  32.7450204  98.3320555 123.2939106  32.0072960  97.8197941 123.6249349
  32.9976977  97.8920936 122.4822383  32.2450223 109.2405065 122.9988257
  32.5373198 109.8010123 122.2800622  32.7548844 109.5333626 123.7541416
  32.8461831  91.1096807 123.8880875  33.1520708  90.2494170 123.6006790
  33.5714436  91.7014427 123.6879869  19.1386187 101.5127493 122.2762473
  18.9410587 100.9196854 121.5513540  18.5832851 101.2079704 122.9938412
  27.1182911 101.4050600 124.3957066  27.1731520 100.4524436 124.3199543
  26.3074113 101.5610039 124.8798365  28.2674104 105.3330723 115.6335350
  27.8293534 104.6166582 115.1740987  29.0084545 105.5606838 115.0720441
  25.0575271 100.0227660 122.1547445  24.2443136 100.3221830 122.5612637
  25.5534265  99.6283348 122.8721927  27.2083848 110.0185416 124.0881710
  27.1660027 110.2446263 123.1590242  28.1246547 109.7848791 124.2367511
  30.6549482 100.4869484 130.9862339  31.0098870 100.7140957 131.8456805
  31.3021614 100.8187861 130.3639594  36.3847219 103.6087920 121.6911668
  36.2465118 103.7989516 120.7632857  36.0283438 104.3707303 122.1479719
  24.5489345  97.5946015 127.7708680  25.1888725  97.4534774 127.0731643
  23.7166876  97.3080528 127.3947282  36.4116599 105.6764447 126.7022940
  36.8453105 105.5839736 127.5505994  37.1248180 105.6521947 126.0642956
  25.3249649 106.8948446 123.8843673  26.1190248 106.3998766 123.6826248
  24.6141342 106.3666309 123.5211378  30.1444494 109.2766541 128.2356040
  30.1981516 109.8457477 129.0033756  29.2759275 109.4468426 127.8710077
  21.6332413 101.0391527 119.9603425  20.7030001 100.9775983 120.1773387
  21.7289885 100.5167480 119.1640067  21.5517962  97.5646340 122.5481667
  21.8124779  98.4791673 122.4390827  22.3735134  97.0970783 122.6978280
  23.0242887  98.9784097 129.7180491  23.6965941  98.7701459 129.0693140
  22.1972674  98.7806183 129.2785724  37.2732148 105.7188148 129.2355825
  37.4668038 106.6233958 129.4815100  37.1732767 105.2595567 130.0694410
  28.9268459  95.6046038 131.7346152  28.2796374  96.3035988 131.6410629
  29.6969475  96.0382182 132.1022401  32.3347257 105.8694890 134.8096706
  32.1832763 105.6405442 133.8926789  32.3251937 106.8265492 134.8228051
  29.1032593 103.4426803 129.7942972  30.0324653 103.5937963 129.6211939
  28.6823623 103.5310824 128.9391619  27.9020925 107.4677467 127.5641510
  27.7632011 107.0996252 128.4367448  27.1135521 107.9825107 127.3925467
  28.4969077 112.5686564 118.9067046  28.6720833 112.0974607 119.7212669
  27.8101865 113.1952330 119.1348307  29.4526140 106.8459070 124.9530347
  29.1175973 106.8059840 125.8487997  28.9530086 106.1803786 124.4800758
  23.4270384 102.2526700 130.4782929  23.2890182 101.5206939 131.0794468
  24.3375308 102.1635600 130.1967116  32.3885332 104.1915105 115.2267407
  31.7714503 103.4661933 115.1300460  31.9201821 104.9524465 114.8834481
  26.0552685 101.9646660 129.9666608  26.7652304 101.3239852 129.9253227
  26.0121993 102.2159554 130.8892789  34.0439464 108.9014013 132.8873187
  33.9852010 108.2173233 132.2203770  34.4458982 109.6433003 132.4353813
  24.7681619  98.9511877 131.7862248  24.2318976  98.5002616 132.4383844
  24.1798327  99.0857786 131.0432712  24.1783878  98.4100529 114.3488711
  23.3013344  98.2889330 113.9850958  24.6541631  97.6186607 114.0967600
  34.0456871 106.8653597 131.1187167  33.1583650 106.5279519 131.2413566
  34.6155422 106.1336628 131.3555933  15.6986018 103.1977689 124.4430219
  16.3857058 102.8839419 123.8551234  15.5434147 104.1019053 124.1697470
  20.5020740  98.0867885 128.8715242  20.4178929  97.4793555 128.1365652
  19.6803447  98.5776903 128.8724739  27.5758024 111.5255049 128.0848410
  27.5028196 112.3310021 128.5967715  27.1335417 111.7247015 127.2596432
  27.3647804 110.7626819 121.5951232  26.5815326 111.3048499 121.6889456
  28.0640549 111.2800799 121.9945473  30.6744454  96.5721449 124.2385437
  31.1713154  95.8191411 123.9186508  29.9031436  96.6085765 123.6728647
  38.5274212 102.2761814 125.8803729  38.5164088 103.1586530 125.5097662
  37.6591591 101.9233365 125.6858266  30.0356708 111.4241883 130.2406569
  30.7484680 112.0589348 130.1682470  29.5446737 111.5205749 129.4246571
  31.7574235 105.3293136 121.8123861  30.8230514 105.4494598 121.6428565
  31.9350903 104.4265603 121.5483871  27.2579423  98.7138832 123.9657122
  26.8877210  98.1609872 124.6538027  27.7538515  98.1096965 123.4132122
  35.1446786 101.1710455 122.3473895  35.6107238 102.0038447 122.2734197
  35.5954287 100.7055437 123.0519153  33.2123017 107.5154276 119.3460047
  33.4882861 107.4010871 120.2553921  32.3427516 107.1171761 119.3072220
  33.1163449  93.5391042 126.3864796  32.2026529  93.7695269 126.5547003
  33.5456550  93.6229486 127.2378829  32.8869907 101.7280934 128.8864690
  32.2341358 101.9756842 128.2317143  33.2650287 100.9145072 128.5527167
  29.8477081 111.7640627 122.9892860  30.0299476 110.9462283 123.4520613
  30.6710067 111.9808320 122.5517750  30.1819247 110.6908812 120.2507909
  30.7107013 110.1801267 119.6378071  30.4447466 110.3751343 121.1153442
  28.9357480 102.4700745 135.3730727  28.2598117 102.3694874 136.0433102
  29.7585114 102.3139959 135.8366724  23.5374995 111.7423929 123.0105685
  22.8685370 112.2270057 122.5269725  23.3987864 111.9893150 123.9249063
  22.6544757  96.1242822 130.2110228  22.7186083  96.9857653 129.7987626
  22.5911877  95.5116824 129.4782586  18.9062572 100.0042384 119.7901617
  19.2016013  99.0953062 119.7368671  18.0050608  99.9830124 119.4682619
  30.8148651 111.7249648 126.5952025  30.6899790 110.9239388 126.0862971
  31.4727742 112.2195842 126.1065995  22.4356819  98.0798381 125.7729166
  21.7143405  98.6934348 125.6336639  23.2250075  98.6156145 125.6945812
  32.8783559 109.5258668 128.2231575  31.9313894 109.4064019 128.1509902
  33.2266332 108.6381166 128.3057837  25.2383132  95.4152807 132.0469817
  25.7617534  95.6615104 132.8096127  25.0195466  96.2472842 131.6272955
  20.6350413  97.6856482 119.9140942  20.3063120  96.8053861 119.7316048
  20.9889784  97.6304150 120.8017331  29.8829992 109.3211384 124.4235928
  29.7354955 108.3928092 124.6043498  30.7083486 109.3431475 123.9393003
  23.7492237  97.9729452 120.2816420  24.0888309  98.5015373 119.5595028
  24.1964357  98.3109858 121.0574986  33.4864114 110.1439943 125.5100800
  34.4110662 109.9382805 125.3725252  33.3179417 109.8956344 126.4190142
  26.4435677  96.3566502 129.7319488  26.1032498  95.5574315 130.1340168
  25.7374684  96.6568213 129.1596321  27.0952149  93.4415815 128.1846811
  27.9178219  92.9676293 128.0625701  27.3390213  94.2206298 128.6845497
  25.7360384  96.4704073 118.4809713  26.4568746  96.8485326 117.9773429
  25.1125688  97.1892950 118.5844691  29.8791507  97.1749222 119.4168045
  30.0955121  98.0573860 119.1156873  29.3985574  96.7835436 118.6873687
  24.6190728 100.1334935 125.9938790  24.4735309 100.4475238 126.8863071
  24.1415932 100.7519836 125.4409688  26.4787111  97.1237483 126.0419679
  26.4648680  96.2278577 125.7051977  27.1959539  97.1308147 126.6757965
  28.3313242  97.5574824 128.0872807  28.0731019  98.4791894 128.0857137
  27.7998282  97.1605258 128.7773271  33.2759430 110.6625611 120.8662892
  33.4496308 110.0972033 120.1136744  33.7688322 111.4626506 120.6842382
  25.8824007  96.0051864 121.3107249  26.0039918  95.0768510 121.5098137
  25.5926049  96.0190550 120.3985565  28.7515197  93.6906774 124.4473969
  28.7736894  93.7546107 123.4925949  29.1683256  92.8511283 124.6414475
  39.1298821 103.4262034 122.4853192  39.5729968 102.6769359 122.0872315
  38.2525332 103.4172170 122.1026924  34.2634603 109.9792375 117.9659790
  34.9585507 110.5999068 118.1847105  34.6057753 109.1287726 118.2412168
  36.1626026 107.4292081 119.4947121  36.6877350 107.7679353 118.7696441
  36.0748378 106.4939096 119.3110256  27.8466687 113.4964064 123.8542374
  27.4071677 113.0040443 124.5475231  28.5974804 112.9537032 123.6134449
  20.3259026 109.6875605 123.8567002  21.1517046 109.3879377 123.4765646
  19.9753078 108.9183227 124.3056791  25.2940559 109.0402073 125.9264676
  24.6720568 108.3772778 125.6266904  25.9645426 109.0663205 125.2438324
  25.3665086  97.5183861 135.5197182  25.4153242  98.3945984 135.1374951
  25.9087601  96.9761254 134.9468825  35.8519932 108.0624984 134.7998319
  35.0615476 108.0449123 134.2602818  35.6153287 108.6013278 135.5547356
  35.9717807 104.9117451 132.1131047  36.0215812 104.7467458 133.0546570
  35.8631730 104.0444710 131.7228928  24.8554066 107.5905996 119.4023136
  25.0042186 108.2741461 118.7489809  25.6620509 107.5711086 119.9172592
  33.2621569 100.8948379 133.4290354  34.1631432 100.7554843 133.1374352
  33.3369544 101.0602833 134.3688532  27.5964375  98.2715233 132.2743541
  26.7267684  98.5648799 132.0026129  27.8323855  98.8555678 132.9950804
  37.4736004 107.3314392 132.3573069  37.1820812 107.6944373 133.1936530
  36.8608135 106.6181400 132.1786401  38.6731686 104.8967272 124.8775639
  39.5078578 105.3357076 125.0413200  38.8090815 104.4205925 124.0583885
  35.7223192 102.4547007 130.8253127  36.1977314 102.6474653 130.0171978
  34.7988757 102.5106193 130.5796511  22.6106699 103.6171174 120.4084205
  22.3652741 102.7133504 120.6064415  22.7802613 103.6188324 119.4663683
  30.3003409  94.4894850 129.7908961  30.8185352  95.2255877 129.4655449
  29.9458541  94.7958844 130.6255720  21.8802346  99.3499531 117.9070367
  21.1871591  99.4243886 117.2510403  21.6354098  98.5859875 118.4291884
  30.5516003  90.9095133 125.3109857  30.8317757  90.2418322 125.9370284
  31.3366610  91.1024228 124.7984521  28.3549471 110.0854127 116.8734884
  27.7823438 110.7044314 116.4205356  28.9282265 110.6353488 117.4074806
  34.4224861  99.3312767 129.0581433  35.3742284  99.4310864 129.0793657
  34.2528312  98.5391035 129.5679517  32.4439241  96.4168350 129.2440834
  31.8489173  96.6973363 128.5487322  32.1588937  96.9062251 130.0157575
  31.5746731 110.3691277 118.0043466  32.5077404 110.3036839 118.2076342
  31.4869944 111.2047544 117.5457999  34.2034748 109.6857147 114.9647414
  34.1248379 109.3517011 115.8583172  35.0244415 110.1778915 114.9638886
  36.9012939 102.5518887 128.1723732  36.8689259 101.6134887 128.3583416
  37.5113563 102.6302923 127.4389557  28.7396270 101.4214939 114.2150936
  29.6855374 101.2921148 114.2839354  28.3610515 100.6829601 114.6920364
  37.0507427  99.3429930 128.2182015  36.5346476  98.5588387 128.0311944
  37.9347376  99.0148647 128.3828535  34.7118154  93.0870946 124.1777828
  34.5142975  92.7786034 125.0621160  35.3217860  93.8132584 124.3075758
  42.7189489 103.6134893 127.3129769  43.4492877 103.3520181 127.8737472
  42.1096434 102.8763615 127.3531837  40.8004786 101.7542756 127.9104220
  40.0737949 101.6198721 127.3020712  40.3852073 102.0619585 128.7160938
  26.9239187  99.3464916 114.1505822  26.0170642  99.0498029 114.2268535
  27.2015168  99.0494734 113.2840108  17.8417127 100.6671279 124.6004868
  17.5219912  99.8136587 124.3079242  17.2950555 100.8819857 125.3562835
  21.6197035 103.3833720 128.3174374  21.8383045 104.3150828 128.3362408
  22.0322809 103.0241695 129.1029178  28.5401253  93.8901806 120.3050063
  27.7301981  93.5448891 120.6805309  29.2285670  93.5809349 120.8937674
  30.4691801  92.9679852 121.9274359  31.0222840  93.3875306 122.5864383
  30.7061887  92.0415600 121.9697315  25.6937972  96.2051851 114.2917801
  26.5557136  96.5306749 114.5513618  25.8788316  95.4183347 113.7790867
  33.8470608  95.0780378 121.4353024  33.2669277  95.7365182 121.0531076
  33.5806541  94.2557722 121.0240441  32.2974174  94.4785435 123.6374344
  32.7973953  94.5901970 122.8288663  32.9409782  94.1746488 124.2775152
  19.6242130 104.2192445 124.4464004  19.6012818 104.3180132 123.4945887
  19.9342766 105.0657595 124.7681171  32.6295486  97.2380468 120.4909372
  31.7421341  97.5230119 120.2729567  33.0449475  97.0774231 119.6436649
  35.9810022  97.2626989 124.2063711  36.7570412  97.7523441 124.4788328
  35.2558156  97.6885043 124.6635581  38.4182581  97.9754608 125.2637652
  39.0127072  97.7350344 124.5530960  38.4909164  97.2561739 125.8911188
  31.7738699 107.0025143 114.5857392  32.4774550 107.2075145 115.2015048
  31.0501348 107.5701904 114.8506475  32.6036510 102.7535004 120.7059662
  32.5471711 103.2103555 119.8667295  33.1564852 101.9925688 120.5282505
  36.4141316  98.5424736 121.5309782  36.1578250  98.1421371 122.3617989
  35.7894184  99.2568530 121.4059921  40.7253654 101.2820809 124.0381073
  40.1653212 101.3513998 124.8112635  40.1197157 101.1061794 123.3180569
  33.6825397 107.4407672 116.6355852  34.5171001 107.0088870 116.4533327
  33.5209740 107.2689685 117.5632746  33.3371289 103.9439785 118.0012191
  33.2820093 103.7784057 117.0600635  32.7117344 104.6515818 118.1574381
  26.6467415  93.4447894 117.5797510  26.6346084  94.3889734 117.7365781
  27.5390836  93.2618040 117.2856971  26.5756979 112.1216785 125.6665266
  25.6252610 112.1218646 125.5529639  26.8789465 111.3749519 125.1501301
  30.4619534  90.0390671 121.8343447  29.6951930  89.4849157 121.9800129
  30.8730239  90.1112540 122.6957598  42.3109672 117.9577323 126.7311029
  42.9488082 117.8384070 126.0274369  42.1930515 118.9058167 126.7898981
  39.1199378 117.9104751 126.6672553  38.7817890 117.7945816 125.7793088
  39.9889146 117.5095916 126.6473560  34.9786194 119.7640227 122.6569444
  34.4151059 119.6730164 121.8885732  34.8638589 118.9440132 123.1371937
  39.6019161 119.0639603 132.6258759  39.5907802 118.6692401 131.7539263
  39.7639801 118.3305675 133.2192530  32.5250626 121.2591419 125.4953665
  33.3171918 120.9182244 125.0799964  32.7647276 121.3686394 126.4155818
  40.5585753 123.4311195 117.9683909  39.9073732 124.0165276 117.5817923
  41.3530115 123.9617390 118.0278947  34.4841380 120.5200332 118.3671044
  35.2572256 119.9729319 118.2283919  34.8366779 121.3844582 118.5785505
  37.2482629 119.2253563 128.1639303  37.8446202 119.0009585 127.4496266
  37.3057601 118.4838309 128.7664750  36.8207658 116.6792998 115.9989494
  37.0733178 116.1574520 115.2372957  35.8832217 116.5159144 116.1016177
  41.8650940 115.6828777 123.8064237  42.6514030 115.2648200 123.4554654
  42.1289645 116.5874869 123.9745885  42.0361018 121.1201627 118.5052894
  41.4006851 121.1936254 119.2173798  41.7058424 121.7095226 117.8271973
  47.2659368 115.6204010 124.7097215  47.9984540 115.0503227 124.9435045
  46.5098723 115.2325610 125.1503721  36.5403946 118.5821104 118.2013869
  36.4240204 117.9066008 118.8694953  36.6506206 118.0953478 117.3846022
  38.8835487 118.0431251 121.9060558  38.5193695 117.5161872 122.6173479
  39.7402603 117.6529721 121.7327043  44.7884788 109.3325584 129.1691824
  44.4568113 110.2020995 128.9453039  44.1930401 109.0161868 129.8485854
  38.5240974 113.0721151 116.9021906  38.6915377 113.9401388 117.2692377
  38.3338143 113.2348433 115.9783196  41.2816307 121.5338130 128.5687737
  40.9817031 122.4363169 128.4603544  40.9367367 121.2670313 129.4208890
  34.7328789 117.9851927 124.6024441  33.8079285 117.8528141 124.8102133
  34.9813202 118.7646146 125.0994383  44.6813451 114.0520670 126.2485174
  43.7730329 113.9836079 125.9543935  44.6301047 114.5292615 127.0766999
  38.5030195 115.5278809 117.8868573  38.3829820 115.9735859 118.7254053
  37.8082784 115.8764126 117.3282111  32.0937600 117.6285200 125.4368230
  32.2229981 117.8819679 126.3507642  31.4135051 118.2212908 125.1172885
  36.2637087 128.2982450 121.5358704  36.1861117 129.2490275 121.6147185
  35.6598731 127.9528323 122.1933631  38.7554317 115.4710316 134.1920071
  37.9787651 116.0304236 134.1822936  39.3944880 115.9567099 134.7134941
  46.5475098 112.2537109 128.0263048  45.9049478 112.5469642 127.3802842
  46.0430026 112.1390029 128.8316245  44.2015261 116.0000282 118.7148907
  45.1133117 116.2327669 118.5396605  43.6924908 116.5837326 118.1523986
  42.4856029 120.4224910 132.3510200  42.8939385 119.9807320 131.6064832
  41.7633291 119.8477537 132.6044393  38.8387099 115.3597516 129.7243757
  39.6848294 115.7836930 129.8678406  38.7785737 114.7031141 130.4182320
  42.8084844 120.9826100 126.1062489  42.1793706 121.1471814 125.4038556
  42.4210506 121.3967710 126.8773453  46.6874076 121.9180538 123.4606852
  46.0025114 122.2979439 122.9103886  46.7717925 122.5275865 124.1938800
  41.9886544 113.0201885 131.3824930  41.7447476 113.7743945 130.8459206
  42.2646475 113.3987232 132.2172177  43.9425007 119.5640497 130.0602196
  44.1541902 120.2072257 129.3836577  43.8954755 118.7302814 129.5924126
  41.5451236 112.1758318 126.9638768  40.6835715 112.4739571 127.2555506
  41.5713671 112.3928717 126.0319801  38.3612806 120.7200508 123.3712574
  38.8251151 120.9988211 122.5817196  38.0969604 119.8183953 123.1885664
  35.2536887 120.2671990 126.3092337  35.8238244 120.6959258 125.6709821
  35.8444998 119.9854575 127.0076523  37.2981692 116.8423661 120.1802139
  38.0005735 117.2944704 120.6476065  36.9662320 116.2007480 120.8082032
  31.0407026 115.1007213 125.4819272  30.2506080 115.3564742 125.0059383
  31.5318273 115.9155551 125.5871313  45.0570835 122.4412453 128.2324553
  45.8788279 122.0392640 127.9507235  45.0533238 122.3380687 129.1840669
  32.9921771 115.4651793 122.4402749  32.1952934 115.5770487 122.9586245
  32.7647363 115.8038445 121.5743640  38.8227439 121.9896496 130.3885264
  38.8871871 122.4516903 131.2243436  38.1138362 121.3593861 130.5167574
  29.3244729 115.3537704 127.9134263  29.5752767 116.2384714 128.1791839
  29.8604277 115.1742305 127.1409355  53.1476828 118.7851201 124.5809525
  52.3940537 118.2158599 124.4253529  53.2824369 118.7513866 125.5280159
  38.5375456 123.6564603 120.2564244  38.4021131 124.5016139 120.6849092
  39.0785269 123.8583881 119.4930178  31.9904854 121.1740041 120.8292169
  32.5029374 121.9683292 120.9797734  32.6427566 120.4766332 120.7625771
  33.7999738 124.2905798 122.9114922  33.9766367 125.2123762 122.7235906
  34.5956572 123.9764217 123.3409302  37.9410757 111.1514062 134.5098856
  38.6820470 111.7521215 134.4303318  38.1728680 110.4091700 133.9516898
  42.2625171 124.5590970 132.4145987  42.2443646 125.3799851 131.9226257
  43.1845091 124.4345045 132.6396129  41.8867920 107.1795165 128.7863138
  41.5432189 108.0696807 128.7102248  42.2546882 106.9896823 127.9232723
  29.9553770 119.5028696 121.6051740  30.7928992 119.9125704 121.3885447
  30.1332038 118.5628138 121.5751934  41.8518202 117.1703776 117.2935573
  41.3364826 117.9408381 117.5323960  41.5795511 116.4968913 117.9168634
  39.4365314 112.0153477 122.3520811  38.5806910 111.6260328 122.1726450
  39.8492265 112.0945438 121.4920597  40.9664460 109.5499820 126.7512371
  40.4629256 109.5129956 125.9380176  41.2595067 110.4592563 126.8109027
  37.2107346 109.6338550 125.7578553  38.0760343 109.4381359 125.3984442
  37.2784855 109.4048902 126.6847909  46.8252477 119.9236131 119.2288746
  46.0481919 119.5847290 118.7843908  47.5043958 119.9288754 118.5543711
  41.6404506 115.0430868 119.1195354  41.3354641 115.3577018 119.9705497
  42.5934948 115.1212288 119.1622687  40.0850938 121.2021092 120.7688308
  39.5572299 120.4673851 120.4561545  39.5838440 121.9795768 120.5228276
  45.0643784 119.3970112 125.8855354  44.4067458 120.0869374 125.9735483
  45.8684183 119.7866544 126.2289340  34.8169665 111.8640758 123.1294919
  35.3913417 111.6415940 122.3968112  35.4040648 111.9329453 123.8823521
  43.8749242 117.7514485 123.9359296  44.3881124 118.3844477 124.4381006
  44.5250466 117.1515680 123.5702656  35.1439252 113.8945219 117.1490805
  34.3076564 114.2319906 117.4700079  35.0044022 113.7594199 116.2117942
  37.1192333 108.7382007 121.8569989  36.4656745 108.4231024 121.2326604
  37.0772807 108.1157747 122.5829812  38.2303538 119.0201302 113.7723281
  37.3230599 118.7890555 113.9714430  38.7274570 118.2238921 113.9597262
  41.1371617 127.7298809 116.6919967  40.4633315 128.0330506 117.3004925
  41.5237439 128.5327890 116.3425424  40.3530073 115.2263940 126.1817636
  39.4352635 115.4478887 126.0239324  40.7690217 115.3010251 125.3229344
  41.1365121 116.6255356 121.3120317  41.8836940 117.1376753 121.0027439
  41.4056711 116.3039409 122.1724710  39.4091771 119.1213897 118.2947271
  38.5002990 118.8372930 118.3919741  39.4386855 119.5412975 117.4350578
  44.6411039 122.7320486 122.0638439  44.1873366 121.8911396 122.1203629
  44.0105005 123.3681885 122.4013219  43.5843958 113.6612472 123.2939106
  42.8466715 113.1489859 123.6249349  43.8370732 113.2212854 122.4822383
  43.0843978 124.5696983 122.9988257  43.3766952 125.1302040 122.2800622
  43.5942598 124.8625544 123.7541416  43.6855585 106.4388724 123.8880875
  43.9914462 105.5786088 123.6006790  44.4108190 107.0306345 123.6879869
  29.9779942 116.8419411 122.2762473  29.7804341 116.2488772 121.5513540
  29.4226606 116.5371621 122.9938412  37.9576665 116.7342517 124.3957066
  38.0125275 115.7816354 124.3199543  37.1467867 116.8901957 124.8798365
  39.1067859 120.6622641 115.6335350  38.6687289 119.9458499 115.1740987
  39.8478300 120.8898755 115.0720441  35.8969025 115.3519577 122.1547445
  35.0836891 115.6513748 122.5612637  36.3928019 114.9575266 122.8721927
  38.0477603 125.3477334 124.0881710  38.0053782 125.5738180 123.1590242
  38.9640302 125.1140709 124.2367511  41.4943237 115.8161402 130.9862339
  41.8492624 116.0432875 131.8456805  42.1415368 116.1479779 130.3639594
  47.2240974 118.9379838 121.6911668  47.0858872 119.1281434 120.7632857
  46.8677193 119.6999220 122.1479719  35.3883100 112.9237933 127.7708680
  36.0282479 112.7826692 127.0731643  34.5560630 112.6372446 127.3947282
  47.2510353 121.0056365 126.7022940  47.6846860 120.9131654 127.5505994
  47.9641934 120.9813865 126.0642956  36.1643404 122.2240363 123.8843673
  36.9584002 121.7290683 123.6826248  35.4535096 121.6958226 123.5211378
  40.9838248 124.6058459 128.2356040  41.0375271 125.1749395 129.0033756
  40.1153030 124.7760344 127.8710077  32.4726167 116.3683445 119.9603425
  31.5423755 116.3067900 120.1773387  32.5683639 115.8459398 119.1640067
  32.3911716 112.8938258 122.5481667  32.6518534 113.8083591 122.4390827
  33.2128889 112.4262700 122.6978280  33.8636642 114.3076015 129.7180491
  34.5359695 114.0993377 129.0693140  33.0366428 114.1098101 129.2785724
  48.1125903 121.0480065 129.2355825  48.3061793 121.9525876 129.4815100
  48.0126521 120.5887484 130.0694410  39.7662214 110.9337956 131.7346152
  39.1190129 111.6327906 131.6410629  40.5363229 111.3674100 132.1022401
  43.1741012 121.1986808 134.8096706  43.0226518 120.9697360 133.8926789
  43.1645691 122.1557409 134.8228051  39.9426348 118.7718721 129.7942972
  40.8718408 118.9229880 129.6211939  39.5217378 118.8602742 128.9391619
  38.7414680 122.7969385 127.5641510  38.6025765 122.4288170 128.4367448
  37.9529276 123.3117025 127.3925467  39.3362832 127.8978482 118.9067046
  39.5114587 127.4266525 119.7212669  38.6495620 128.5244248 119.1348307
  40.2919895 122.1750988 124.9530347  39.9569728 122.1351758 125.8487997
  39.7923841 121.5095704 124.4800758  34.2664139 117.5818618 130.4782929
  34.1283937 116.8498857 131.0794468  35.1769062 117.4927518 130.1967116
  43.2279087 119.5207022 115.2267407  42.6108257 118.7953850 115.1300460
  42.7595575 120.2816382 114.8834481  36.8946440 117.2938577 129.9666608
  37.6046058 116.6531769 129.9253227  36.8515748 117.5451472 130.8892789
  44.8833218 124.2305931 132.8873187  44.8245764 123.5465151 132.2203770
  45.2852737 124.9724921 132.4353813  35.6075374 114.2803795 131.7862248
  35.0712731 113.8294534 132.4383844  35.0192082 114.4149704 131.0432712
  35.0177632 113.7392447 114.3488711  34.1407099 113.6181247 113.9850958
  35.4935386 112.9478525 114.0967600  44.8850625 122.1945515 131.1187167
  43.9977404 121.8571436 131.2413566  45.4549177 121.4628546 131.3555933
  26.5379773 118.5269606 124.4430219  27.2250812 118.2131336 123.8551234
  26.3827901 119.4310971 124.1697470  31.3414495 113.4159803 128.8715242
  31.2572683 112.8085472 128.1365652  30.5197201 113.9068821 128.8724739
  38.4151779 126.8546967 128.0848410  38.3421950 127.6601938 128.5967715
  37.9729172 127.0538933 127.2596432  38.2041558 126.0918737 121.5951232
  37.4209080 126.6340417 121.6889456  38.9034304 126.6092717 121.9945473
  41.5138209 111.9013366 124.2385437  42.0106908 111.1483329 123.9186508
  40.7425190 111.9377683 123.6728647  49.3667966 117.6053732 125.8803729
  49.3557842 118.4878447 125.5097662  48.4985345 117.2525283 125.6858266
  40.8750462 126.7533801 130.2406569  41.5878435 127.3881266 130.1682470
  40.3840491 126.8497667 129.4246571  42.5967989 120.6585054 121.8123861
  41.6624268 120.7786516 121.6428565  42.7744658 119.7557520 121.5483871
  38.0973177 114.0430749 123.9657122  37.7270965 113.4901790 124.6538027
  38.5932270 113.4388883 123.4132122  45.9840541 116.5002373 122.3473895
  46.4500993 117.3330364 122.2734197  46.4348041 116.0347354 123.0519153
  44.0516772 122.8446194 119.3460047  44.3276616 122.7302789 120.2553921
  43.1821270 122.4463679 119.3072220  43.9557203 108.8682960 126.3864796
  43.0420283 109.0987187 126.5547003  44.3850305 108.9521404 127.2378829
  43.7263662 117.0572852 128.8864690  43.0735112 117.3048759 128.2317143
  44.1044042 116.2436990 128.5527167  40.6870836 127.0932545 122.9892860
  40.8693230 126.2754201 123.4520613  41.5103822 127.3100237 122.5517750
  41.0213001 126.0200730 120.2507909  41.5500768 125.5093185 119.6378071
  41.2841221 125.7043260 121.1153442  39.7751235 117.7992663 135.3730727
  39.0991872 117.6986792 136.0433102  40.5978869 117.6431877 135.8366724
  34.3768749 127.0715847 123.0105685  33.7079124 127.5561974 122.5269725
  34.2381619 127.3185067 123.9249063  33.4938511 111.4534740 130.2110228
  33.5579838 112.3149571 129.7987626  33.4305631 110.8408742 129.4782586
  29.7456326 115.3334302 119.7901617  30.0409767 114.4244980 119.7368671
  28.8444362 115.3122041 119.4682619  41.6542405 127.0541566 126.5952025
  41.5293545 126.2531306 126.0862971  42.3121496 127.5487759 126.1065995
  33.2750573 113.4090298 125.7729166  32.5537159 114.0226266 125.6336639
  34.0643829 113.9448063 125.6945812  43.7177313 124.8550586 128.2231575
  42.7707649 124.7355937 128.1509902  44.0660087 123.9673084 128.3057837
  36.0776887 110.7444725 132.0469817  36.6011289 110.9907021 132.8096127
  35.8589220 111.5764760 131.6272955  31.4744168 113.0148399 119.9140942
  31.1456874 112.1345778 119.7316048  31.8283539 112.9596068 120.8017331
  40.7223747 124.6503302 124.4235928  40.5748709 123.7220010 124.6043498
  41.5477240 124.6723393 123.9393003  34.5885991 113.3021369 120.2816420
  34.9282064 113.8307290 119.5595028  35.0358112 113.6401775 121.0574986
  44.3257869 125.4731861 125.5100800  45.2504416 125.2674722 125.3725252
  44.1573172 125.2248262 126.4190142  37.2829432 111.6858420 129.7319488
  36.9426252 110.8866233 130.1340168  36.5768438 111.9860131 129.1596321
  37.9345904 108.7707732 128.1846811  38.7571973 108.2968211 128.0625701
  38.1783967 109.5498216 128.6845497  36.5754138 111.7995991 118.4809713
  37.2962501 112.1777244 117.9773429  35.9519442 112.5184868 118.5844691
  40.7185261 112.5041140 119.4168045  40.9348875 113.3865778 119.1156873
  40.2379328 112.1127353 118.6873687  35.4584482 115.4626853 125.9938790
  35.3129063 115.7767156 126.8863071  34.9809686 116.0811753 125.4409688
  37.3180865 112.4529401 126.0419679  37.3042434 111.5570494 125.7051977
  38.0353293 112.4600065 126.6757965  39.1706996 112.8866741 128.0872807
  38.9124774 113.8083812 128.0857137  38.6392036 112.4897176 128.7773271
  44.1153185 125.9917528 120.8662892  44.2890062 125.4263951 120.1136744
  44.6082076 126.7918423 120.6842382  36.7217761 111.3343781 121.3107249
  36.8433672 110.4060427 121.5098137  36.4319804 111.3482467 120.3985565
  39.5908952 109.0198692 124.4473969  39.6130648 109.0838025 123.4925949
  40.0077011 108.1803200 124.6414475  49.9692576 118.7553951 122.4853192
  50.4123722 118.0061276 122.0872315  49.0919086 118.7464088 122.1026924
  45.1028357 125.3084293 117.9659790  45.7979262 125.9290985 118.1847105
  45.4451507 124.4579644 118.2412168  47.0019780 122.7583998 119.4947121
  47.5271105 123.0971271 118.7696441  46.9142133 121.8231014 119.3110256
  38.6860441 128.8255982 123.8542374  38.2465431 128.3332360 124.5475231
  39.4368558 128.2828949 123.6134449  31.1652780 125.0167522 123.8567002
  31.9910800 124.7171294 123.4765646  30.8146832 124.2475145 124.3056791
  36.1334313 124.3693991 125.9264676  35.5114323 123.7064696 125.6266904
  36.8039180 124.3955123 125.2438324  36.2058841 112.8475779 135.5197182
  36.2546996 113.7237901 135.1374951  36.7481355 112.3053172 134.9468825
  46.6913686 123.3916902 134.7998319  45.9009230 123.3741041 134.2602818
  46.4547041 123.9305196 135.5547356  46.8111562 120.2409368 132.1131047
  46.8609566 120.0759376 133.0546570  46.7025485 119.3736627 131.7228928
  35.6947820 122.9197914 119.4023136  35.8435941 123.6033378 118.7489809
  36.5014264 122.9003004 119.9172592  44.1015324 116.2240296 133.4290354
  45.0025187 116.0846761 133.1374352  44.1763298 116.3894751 134.3688532
  38.4358129 113.6007151 132.2743541  37.5661439 113.8940717 132.0026129
  38.6717610 114.1847596 132.9950804  48.3129758 122.6606310 132.3573069
  48.0214567 123.0236290 133.1936530  47.7001890 121.9473318 132.1786401
  49.5125441 120.2259190 124.8775639  50.3472332 120.6648994 125.0413200
  49.6484569 119.7497843 124.0583885  46.5616947 117.7838924 130.8253127
  47.0371068 117.9766571 130.0171978  45.6382512 117.8398110 130.5796511
  33.4500453 118.9463092 120.4084205  33.2046495 118.0425422 120.6064415
  33.6196368 118.9480242 119.4663683  41.1397163 109.8186768 129.7908961
  41.6579107 110.5547795 129.4655449  40.7852296 110.1250761 130.6255720
  32.7196101 114.6791449 117.9070367  32.0265346 114.7535804 117.2510403
  32.4747853 113.9151793 118.4291884  41.3909757 106.2387051 125.3109857
  41.6711511 105.5710240 125.9370284  42.1760364 106.4316146 124.7984521
  39.1943226 125.4146044 116.8734884  38.6217193 126.0336232 116.4205356
  39.7676019 125.9645406 117.4074806  45.2618616 114.6604684 129.0581433
  46.2136038 114.7602782 129.0793657  45.0922066 113.8682953 129.5679517
  43.2832995 111.7460268 129.2440834  42.6882927 112.0265280 128.5487322
  42.9982692 112.2354169 130.0157575  42.4140486 125.6983195 118.0043466
  43.3471159 125.6328756 118.2076342  42.3263698 126.5339461 117.5457999
  45.0428502 125.0149065 114.9647414  44.9642134 124.6808928 115.8583172
  45.8638169 125.5070833 114.9638886  47.7406693 117.8810804 128.1723732
  47.7083013 116.9426805 128.3583416  48.3507317 117.9594841 127.4389557
  39.5790024 116.7506857 114.2150936  40.5249129 116.6213065 114.2839354
  39.2004269 116.0121519 114.6920364  47.8901182 114.6721848 128.2182015
  47.3740231 113.8880304 128.0311944  48.7741130 114.3440564 128.3828535
  45.5511909 108.4162863 124.1777828  45.3536730 108.1077951 125.0621160
  46.1611614 109.1424502 124.3075758  53.5583243 118.9426811 127.3129769
  54.2886632 118.6812099 127.8737472  52.9490189 118.2055533 127.3531837
  51.6398540 117.0834674 127.9104220  50.9131704 116.9490639 127.3020712
  51.2245827 117.3911502 128.7160938  37.7632941 114.6756834 114.1505822
  36.8564397 114.3789946 114.2268535  38.0408922 114.3786652 113.2840108
  28.6810882 115.9963197 124.6004868  28.3613666 115.1428505 124.3079242
  28.1344310 116.2111775 125.3562835  32.4590789 118.7125638 128.3174374
  32.6776799 119.6442746 128.3362408  32.8716563 118.3533612 129.1029178
  39.3795007 109.2193723 120.3050063  38.5695735 108.8740808 120.6805309
  40.0679424 108.9101267 120.8937674  41.3085555 108.2971770 121.9274359
  41.8616594 108.7167223 122.5864383  41.5455642 107.3707518 121.9697315
  36.5331726 111.5343769 114.2917801  37.3950890 111.8598667 114.5513618
  36.7182070 110.7475265 113.7790867  44.6864362 110.4072295 121.4353024
  44.1063032 111.0657099 121.0531076  44.4200295 109.5849640 121.0240441
  43.1367929 109.8077353 123.6374344  43.6367707 109.9193887 122.8288663
  43.7803537 109.5038406 124.2775152  30.4635884 119.5484362 124.4464004
  30.4406572 119.6472049 123.4945887  30.7736521 120.3949513 124.7681171
  43.4689241 112.5672386 120.4909372  42.5815096 112.8522036 120.2729567
  43.8843230 112.4066149 119.6436649  46.8203777 112.5918907 124.2063711
  47.5964167 113.0815359 124.4788328  46.0951911 113.0176961 124.6635581
  49.2576335 113.3046526 125.2637652  49.8520826 113.0642262 124.5530960
  49.3302919 112.5853656 125.8911188  42.6132454 122.3317060 114.5857392
  43.3168304 122.5367063 115.2015048  41.8895103 122.8993822 114.8506475
  43.4430264 118.0826922 120.7059662  43.3865466 118.5395473 119.8667295
  43.9958607 117.3217606 120.5282505  47.2535070 113.8716653 121.5309782
  46.9972004 113.4713289 122.3617989  46.6287938 114.5860447 121.4059921
  51.5647408 116.6112727 124.0381073  51.0046966 116.6805916 124.8112635
  50.9590911 116.4353711 123.3180569  44.5219151 122.7699589 116.6355852
  45.3564755 122.3380788 116.4533327  44.3603494 122.5981603 117.5632746
  44.1765044 119.2731703 118.0012191  44.1213847 119.1075974 117.0600635
  43.5511099 119.9807736 118.1574381  37.4861169 108.7739812 117.5797510
  37.4739839 109.7181652 117.7365781  38.3784591 108.5909957 117.2856971
  37.4150733 127.4508702 125.6665266  36.4646364 127.4510564 125.5529639
  37.7183219 126.7041437 125.1501301  41.3013288 105.3682588 121.8343447
  40.5345684 104.8141075 121.9800129  41.7123993 105.4404457 122.6957598
  53.1503426 133.2869241 126.7311029  53.7881836 133.1675988 126.0274369
  53.0324269 134.2350085 126.7898981  49.9593133 133.2396669 126.6672553
  49.6211644 133.1237733 125.7793088  50.8282901 132.8387834 126.6473560
  45.8179948 135.0932145 122.6569444  45.2544814 135.0022082 121.8885732
  45.7032344 134.2732050 123.1371937  43.3644380 136.5883337 125.4953665
  44.1565672 136.2474161 125.0799964  43.6041031 136.6978312 126.4155818
  51.3979507 138.7603113 117.9683909  50.7467487 139.3457193 117.5817923
  52.1923870 139.2909308 118.0278947  45.3235134 135.8492250 118.3671044
  46.0966010 135.3021237 118.2283919  45.6760533 136.7136499 118.5785505
  48.0876384 134.5545481 128.1639303  48.6839956 134.3301503 127.4496266
  48.1451355 133.8130226 128.7664750  47.6601412 132.0084916 115.9989494
  47.9126933 131.4866437 115.2372957  46.7225971 131.8451062 116.1016177
  52.7044695 131.0120694 123.8064237  53.4907784 130.5940118 123.4554654
  52.9683399 131.9166787 123.9745885  52.8754772 136.4493545 118.5052894
  52.2400605 136.5228171 119.2173798  52.5452179 137.0387144 117.8271973
  58.1053122 130.9495928 124.7097215  58.8378294 130.3795144 124.9435045
  57.3492478 130.5617528 125.1503721  47.3797701 133.9113022 118.2013869
  47.2633959 133.2357925 118.8694953  47.4899961 133.4245396 117.3846022
  49.7229242 133.3723169 121.9060558  49.3587449 132.8453790 122.6173479
  50.5796358 132.9821638 121.7327043  55.6278542 124.6617502 129.1691824
  55.2961867 125.5312913 128.9453039  55.0324156 124.3453786 129.8485854
  49.3634729 128.4013069 116.9021906  49.5309131 129.2693305 117.2692377
  49.1731898 128.5640351 115.9783196  52.1210062 136.8630048 128.5687737
  51.8210785 137.7655087 128.4603544  51.7761121 136.5962231 129.4208890
  45.5722543 133.3143845 124.6024441  44.6473040 133.1820059 124.8102133
  45.8206957 134.0938064 125.0994383  55.5207206 129.3812588 126.2485174
  54.6124083 129.3127996 125.9543935  55.4694802 129.8584533 127.0766999
  49.3423950 130.8570726 117.8868573  49.2223575 131.3027777 118.7254053
  48.6476538 131.2056044 117.3282111  42.9331354 132.9577118 125.4368230
  43.0623736 133.2111597 126.3507642  42.2528806 133.5504826 125.1172885
  57.3868852 127.5829026 128.0263048  56.7443232 127.8761559 127.3802842
  56.8823781 127.4681947 128.8316245  55.0409016 131.3292200 118.7148907
  55.9526872 131.5619586 118.5396605  54.5318663 131.9129244 118.1523986
  49.6780854 130.6889434 129.7243757  50.5242049 131.1128848 129.8678406
  49.6179491 130.0323058 130.4182320  53.6478598 136.3118018 126.1062489
  53.0187461 136.4763732 125.4038556  53.2604260 136.7259628 126.8773453
  57.5267830 137.2472456 123.4606852  56.8418868 137.6271357 122.9103886
  57.6111679 137.8567782 124.1938800  52.8280299 128.3493802 131.3824930
  52.5841231 129.1035863 130.8459206  53.1040229 128.7279150 132.2172177
  54.7818762 134.8932415 130.0602196  54.9935657 135.5364175 129.3836577
  54.7348510 134.0594731 129.5924126  52.3844991 127.5050235 126.9638768
  51.5229470 127.8031489 127.2555506  52.4107425 127.7220634 126.0319801
  49.2006560 136.0492426 123.3712574  49.6644906 136.3280129 122.5817196
  48.9363358 135.1475871 123.1885664  46.0930641 135.5963908 126.3092337
  46.6631998 136.0251176 125.6709821  46.6838753 135.3146492 127.0076523
  48.1375446 132.1715578 120.1802139  48.8399489 132.6236622 120.6476065
  47.8056075 131.5299397 120.8082032  41.8800780 130.4299131 125.4819272
  41.0899834 130.6856660 125.0059383  42.3712027 131.2447469 125.5871313
  43.8315525 130.7943710 122.4402749  43.0346689 130.9062405 122.9586245
  43.6041118 131.1330363 121.5743640  40.1638483 130.6829622 127.9134263
  40.4146521 131.5676631 128.1791839  40.6998031 130.5034223 127.1409355
  63.9870583 134.1143119 124.5809525  63.2334291 133.5450517 124.4253529
  64.1218124 134.0805783 125.5280159  49.3769211 138.9856521 120.2564244
  49.2414885 139.8308057 120.6849092  49.9179023 139.1875799 119.4930178
  42.8298608 136.5031959 120.8292169  43.3423129 137.2975209 120.9797734
  43.4821321 135.8058250 120.7625771  48.7804511 126.4805980 134.5098856
  49.5214225 127.0813133 134.4303318  49.0122434 125.7383618 133.9516898
  52.7261674 122.5087083 128.7863138  52.3825944 123.3988725 128.7102248
  53.0940637 122.3188741 127.9232723  40.7947525 134.8320613 121.6051740
  41.6322747 135.2417622 121.3885447  40.9725793 133.8920056 121.5751934
  52.6911957 132.4995694 117.2935573  52.1758580 133.2700299 117.5323960
  52.4189265 131.8260830 117.9168634  50.2759068 127.3445395 122.3520811
  49.4200664 126.9552245 122.1726450  50.6886020 127.4237356 121.4920597
  51.8058215 124.8791738 126.7512371  51.3023010 124.8421873 125.9380176
  52.0988822 125.7884481 126.8109027  48.0501101 124.9630468 125.7578553
  48.9154097 124.7673276 125.3984442  48.1178609 124.7340820 126.6847909
  57.6646231 135.2528049 119.2288746  56.8875674 134.9139208 118.7843908
  58.3437712 135.2580672 118.5543711  52.4798260 130.3722786 119.1195354
  52.1748396 130.6868935 119.9705497  53.4328702 130.4504206 119.1622687
  50.9244692 136.5313009 120.7688308  50.3966054 135.7965769 120.4561545
  50.4232195 137.3087686 120.5228276  55.9037538 134.7262030 125.8855354
  55.2461212 135.4161291 125.9735483  56.7077937 135.1158462 126.2289340
  45.6563420 127.1932676 123.1294919  46.2307172 126.9707857 122.3968112
  46.2434402 127.2621370 123.8823521  54.7142997 133.0806403 123.9359296
  55.2274879 133.7136394 124.4381006  55.3644221 132.4807598 123.5702656
  45.9833007 129.2237137 117.1490805  45.1470319 129.5611823 117.4700079
  45.8437776 129.0886117 116.2117942  47.9586087 124.0673925 121.8569989
  47.3050500 123.7522942 121.2326604  47.9166561 123.4449665 122.5829812
  49.0697292 134.3493220 113.7723281  48.1624354 134.1182473 113.9714430
  49.5668324 133.5530839 113.9597262  51.1923828 130.5555858 126.1817636
  50.2746389 130.7770805 126.0239324  51.6083971 130.6302169 125.3229344
  51.9758875 131.9547274 121.3120317  52.7230694 132.4668671 121.0027439
  52.2450465 131.6331327 122.1724710  50.2485526 134.4505815 118.2947271
  49.3396745 134.1664847 118.3919741  50.2780609 134.8704893 117.4350578
  55.4804793 138.0612404 122.0638439  55.0267120 137.2203314 122.1203629
  54.8498760 138.6973802 122.4013219  54.4237713 128.9904390 123.2939106
  53.6860469 128.4781776 123.6249349  54.6764486 128.5504772 122.4822383
  53.9237732 139.8988901 122.9988257  54.2160707 140.4593958 122.2800622
  54.4336353 140.1917462 123.7541416  54.5249340 121.7680642 123.8880875
  54.8308217 120.9078006 123.6006790  55.2501945 122.3598262 123.6879869
  40.8173696 132.1711329 122.2762473  40.6198096 131.5780689 121.5513540
  40.2620360 131.8663539 122.9938412  48.7970420 132.0634435 124.3957066
  48.8519029 131.1108272 124.3199543  47.9861622 132.2193874 124.8798365
  49.9461613 135.9914558 115.6335350  49.5081043 135.2750417 115.1740987
  50.6872054 136.2190673 115.0720441  46.7362780 130.6811495 122.1547445
  45.9230645 130.9805665 122.5612637  47.2321774 130.2867184 122.8721927
  52.3336991 131.1453319 130.9862339  52.6886379 131.3724793 131.8456805
  52.9809122 131.4771696 130.3639594  58.0634728 134.2671755 121.6911668
  57.9252627 134.4573351 120.7632857  57.7070947 135.0291138 122.1479719
  46.2276854 128.2529850 127.7708680  46.8676234 128.1118610 127.0731643
  45.3954385 127.9664364 127.3947282  58.0904108 136.3348282 126.7022940
  58.5240614 136.2423571 127.5505994  58.8035689 136.3105783 126.0642956
  47.0037158 137.5532281 123.8843673  47.7977757 137.0582601 123.6826248
  46.2928851 137.0250144 123.5211378  43.3119922 131.6975363 119.9603425
  42.3817510 131.6359818 120.1773387  43.4077394 131.1751315 119.1640067
  43.2305471 128.2230175 122.5481667  43.4912288 129.1375509 122.4390827
  44.0522643 127.7554618 122.6978280  44.7030396 129.6367933 129.7180491
  45.3753450 129.4285295 129.0693140  43.8760183 129.4390019 129.2785724
  50.6055968 126.2629874 131.7346152  49.9583883 126.9619823 131.6410629
  51.3756984 126.6966017 132.1022401  50.7820102 134.1010638 129.7942972
  51.7112162 134.2521798 129.6211939  50.3611132 134.1894659 128.9391619
  49.5808434 138.1261303 127.5641510  49.4419520 137.7580087 128.4367448
  48.7923030 138.6408942 127.3925467  51.1313649 137.5042906 124.9530347
  50.7963482 137.4643676 125.8487997  50.6317595 136.8387621 124.4800758
  45.1057893 132.9110536 130.4782929  44.9677691 132.1790774 131.0794468
  46.0162817 132.8219436 130.1967116  54.0672841 134.8498940 115.2267407
  53.4502012 134.1245768 115.1300460  53.5989329 135.6108300 114.8834481
  47.7340194 132.6230495 129.9666608  48.4439813 131.9823687 129.9253227
  47.6909502 132.8743390 130.8892789  46.4469128 129.6095713 131.7862248
  45.9106485 129.1586451 132.4383844  45.8585836 129.7441622 131.0432712
  45.8571387 129.0684364 114.3488711  44.9800853 128.9473165 113.9850958
  46.3329140 128.2770442 114.0967600  37.3773527 133.8561524 124.4430219
  38.0644567 133.5423254 123.8551234  37.2221656 134.7602889 124.1697470
  42.1808249 128.7451720 128.8715242  42.0966438 128.1377390 128.1365652
  41.3590956 129.2360739 128.8724739  52.3531963 127.2305284 124.2385437
  52.8500663 126.4775246 123.9186508  51.5818945 127.2669601 123.6728647
  60.2061720 132.9345650 125.8803729  60.1951597 133.8170365 125.5097662
  59.3379100 132.5817200 125.6858266  53.4361744 135.9876971 121.8123861
  52.5018023 136.1078434 121.6428565  53.6138412 135.0849438 121.5483871
  48.9366932 129.3722667 123.9657122  48.5664719 128.8193707 124.6538027
  49.4326024 128.7680800 123.4132122  56.8234295 131.8294291 122.3473895
  57.2894747 132.6622282 122.2734197  57.2741796 131.3639272 123.0519153
  54.8910526 138.1738112 119.3460047  55.1670370 138.0594706 120.2553921
  54.0215025 137.7755597 119.3072220  54.7950958 124.1974878 126.3864796
  53.8814038 124.4279104 126.5547003  55.2244059 124.2813322 127.2378829
  54.5657416 132.3864769 128.8864690  53.9128867 132.6340677 128.2317143
  54.9437796 131.5728908 128.5527167  44.3332266 126.7826658 130.2110228
  44.3973592 127.6441489 129.7987626  44.2699386 126.1700659 129.4782586
  40.5850081 130.6626219 119.7901617  40.8803522 129.7536898 119.7368671
  39.6838117 130.6413959 119.4682619  44.1144328 128.7382216 125.7729166
  43.3930914 129.3518184 125.6336639  44.9037584 129.2739981 125.6945812
  46.9170641 126.0736643 132.0469817  47.4405043 126.3198939 132.8096127
  46.6982975 126.9056677 131.6272955  42.3137922 128.3440317 119.9140942
  41.9850629 127.4637696 119.7316048  42.6677293 128.2887986 120.8017331
  51.5617501 139.9795220 124.4235928  51.4142464 139.0511927 124.6043498
  52.3870995 140.0015311 123.9393003  45.4279746 128.6313287 120.2816420
  45.7675818 129.1599208 119.5595028  45.8751866 128.9693693 121.0574986
  55.1651623 140.8023779 125.5100800  56.0898171 140.5966640 125.3725252
  54.9966926 140.5540180 126.4190142  48.1223186 127.0150338 129.7319488
  47.7820007 126.2158151 130.1340168  47.4162193 127.3152048 129.1596321
  48.7739658 124.0999650 128.1846811  49.5965727 123.6260128 128.0625701
  49.0177722 124.8790134 128.6845497  47.4147893 127.1287908 118.4809713
  48.1356255 127.5069161 117.9773429  46.7913197 127.8476785 118.5844691
  51.5579016 127.8333057 119.4168045  51.7742630 128.7157695 119.1156873
  51.0773083 127.4419271 118.6873687  46.2978237 130.7918771 125.9938790
  46.1522818 131.1059074 126.8863071  45.8203441 131.4103671 125.4409688
  48.1574620 127.7821319 126.0419679  48.1436189 126.8862412 125.7051977
  48.8747048 127.7891982 126.6757965  50.0100751 128.2158659 128.0872807
  49.7518528 129.1375730 128.0857137  49.4785791 127.8189093 128.7773271
  54.9546939 141.3209446 120.8662892  55.1283817 140.7555868 120.1136744
  55.4475831 142.1210341 120.6842382  47.5611516 126.6635699 121.3107249
  47.6827427 125.7352345 121.5098137  47.2713558 126.6774385 120.3985565
  50.4302706 124.3490609 124.4473969  50.4524403 124.4129942 123.4925949
  50.8470765 123.5095118 124.6414475  60.8086330 134.0845869 122.4853192
  61.2517476 133.3353194 122.0872315  59.9312841 134.0756005 122.1026924
  55.9422112 140.6376210 117.9659790  56.6373016 141.2582903 118.1847105
  56.2845262 139.7871562 118.2412168  57.8413535 138.0875916 119.4947121
  58.3664859 138.4263189 118.7696441  57.7535887 137.1522931 119.3110256
  47.0452595 128.1767696 135.5197182  47.0940751 129.0529819 135.1374951
  47.5875109 127.6345089 134.9468825  46.5341575 138.2489832 119.4023136
  46.6829695 138.9325296 118.7489809  47.3408018 138.2294922 119.9172592
  49.2751884 128.9299069 132.2743541  48.4055193 129.2232635 132.0026129
  49.5111364 129.5139514 132.9950804  60.3519195 135.5551107 124.8775639
  61.1866087 135.9940911 125.0413200  60.4878324 135.0789760 124.0583885
  44.2894208 134.2755009 120.4084205  44.0440250 133.3717339 120.6064415
  44.4590122 134.2772160 119.4663683  51.9790918 125.1478686 129.7908961
  52.4972861 125.8839713 129.4655449  51.6246050 125.4542679 130.6255720
  43.5589855 130.0083367 117.9070367  42.8659100 130.0827722 117.2510403
  43.3141607 129.2443710 118.4291884  52.2303512 121.5678968 125.3109857
  52.5105266 120.9002157 125.9370284  53.0154119 121.7608064 124.7984521
  56.1012370 129.9896602 129.0581433  57.0529793 130.0894700 129.0793657
  55.9315821 129.1974871 129.5679517  54.1226750 127.0752185 129.2440834
  53.5276682 127.3557198 128.5487322  53.8376446 127.5646086 130.0157575
  55.8822257 140.3440983 114.9647414  55.8035888 140.0100846 115.8583172
  56.7031923 140.8362750 114.9638886  58.5800448 133.2102722 128.1723732
  58.5476768 132.2718723 128.3583416  59.1901072 133.2886759 127.4389557
  50.4183779 132.0798775 114.2150936  51.3642883 131.9504983 114.2839354
  50.0398024 131.3413437 114.6920364  58.7294936 130.0013765 128.2182015
  58.2133985 129.2172222 128.0311944  59.6134885 129.6732482 128.3828535
  56.3905663 123.7454781 124.1777828  56.1930484 123.4369869 125.0621160
  57.0005369 124.4716420 124.3075758  62.4792295 132.4126591 127.9104220
  61.7525458 132.2782556 127.3020712  62.0639582 132.7203420 128.7160938
  48.6026696 130.0048751 114.1505822  47.6958151 129.7081864 114.2268535
  48.8802677 129.7078569 113.2840108  39.5204636 131.3255115 124.6004868
  39.2007421 130.4720423 124.3079242  38.9738064 131.5403693 125.3562835
  43.2984544 134.0417556 128.3174374  43.5170554 134.9734663 128.3362408
  43.7110318 133.6825530 129.1029178  50.2188762 124.5485641 120.3050063
  49.4089490 124.2032726 120.6805309  50.9073179 124.2393185 120.8937674
  52.1479310 123.6263688 121.9274359  52.7010349 124.0459141 122.5864383
  52.3849396 122.6999436 121.9697315  47.3725481 126.8635686 114.2917801
  48.2344645 127.1890585 114.5513618  47.5575825 126.0767182 113.7790867
  55.5258117 125.7364213 121.4353024  54.9456786 126.3949017 121.0531076
  55.2594050 124.9141557 121.0240441  53.9761683 125.1369271 123.6374344
  54.4761462 125.2485805 122.8288663  54.6197291 124.8330323 124.2775152
  41.3029639 134.8776280 124.4464004  41.2800327 134.9763967 123.4945887
  41.6130275 135.7241431 124.7681171  54.3082995 127.8964303 120.4909372
  53.4208850 128.1813954 120.2729567  54.7236984 127.7358067 119.6436649
  57.6597531 127.9210824 124.2063711  58.4357921 128.4107277 124.4788328
  56.9345665 128.3468878 124.6635581  60.0970090 128.6338443 125.2637652
  60.6914581 128.3934179 124.5530960  60.1696673 127.9145574 125.8911188
  53.4526208 137.6608978 114.5857392  54.1562059 137.8658980 115.2015048
  52.7288857 138.2285740 114.8506475  54.2824019 133.4118839 120.7059662
  54.2259220 133.8687391 119.8667295  54.8352361 132.6509524 120.5282505
  58.0928825 129.2008571 121.5309782  57.8365759 128.8005207 122.3617989
  57.4681693 129.9152365 121.4059921  62.4041163 131.9404644 124.0381073
  61.8440720 132.0097834 124.8112635  61.7984666 131.7645629 123.3180569
  55.3612906 138.0991507 116.6355852  56.1958510 137.6672706 116.4533327
  55.1997249 137.9273521 117.5632746  55.0158798 134.6023620 118.0012191
  54.9607602 134.4367892 117.0600635  54.3904853 135.3099653 118.1574381
  48.3254924 124.1031729 117.5797510  48.3133593 125.0473569 117.7365781
  49.2178345 123.9201875 117.2856971  52.1407043 120.6974506 121.8343447
  51.3739439 120.1432993 121.9800129  52.5517748 120.7696375 122.6957598
  61.1152823 142.6737312 122.3520811  60.2594419 142.2844163 122.1726450
  61.5279774 142.7529273 121.4920597  56.4957174 142.5224593 123.1294919
  57.0700926 142.2999775 122.3968112  57.0828157 142.5913288 123.8823521
  58.7979842 139.3965842 121.8569989  58.1444254 139.0814859 121.2326604
  58.7560316 138.7741583 122.5829812  65.3643094 137.0972560 123.8880875
  65.6701971 136.2369923 123.6006790  66.0895699 137.6890180 123.6879869
  62.3972770 143.1624975 119.4168045  62.6136384 144.0449613 119.1156873
  61.9166837 142.7711189 118.6873687  58.4005270 141.9927617 121.3107249
  58.5221181 141.0644263 121.5098137  58.1107313 142.0066303 120.3985565
  61.2696461 139.6782527 124.4473969  61.2918157 139.7421860 123.4925949
  61.6864520 138.8387036 124.6414475  63.0697266 136.8970886 125.3109857
  63.3499020 136.2294075 125.9370284  63.8547873 137.0899981 124.7984521
  61.0582516 139.8777559 120.3050063  60.2483244 139.5324644 120.6805309
  61.7466933 139.5685102 120.8937674  62.9873064 138.9555605 121.9274359
  63.5404103 139.3751059 122.5864383  63.2243151 138.0291354 121.9697315
  58.2119235 142.1927604 114.2917801  59.0738399 142.5182502 114.5513618
  58.3969579 141.4059100 113.7790867  66.3651871 141.0656131 121.4353024
  65.7850541 141.7240935 121.0531076  66.0987804 140.2433475 121.0240441
  65.1476749 143.2256221 120.4909372  64.2602605 143.5105872 120.2729567
  65.5630739 143.0649984 119.6436649  59.1648678 139.4323647 117.5797510
  59.1527348 140.3765487 117.7365781  60.0572100 139.2493793 117.2856971
  62.9800797 136.0266424 121.8343447  62.2133193 135.4724910 121.9800129
  63.3911502 136.0988293 122.6957598   0.8440245  31.6894734 105.4394214
   1.7558101  31.9222120 105.2641911   0.3349892  32.2731778 104.8769292
   3.3299059  37.6074990 110.1852159   2.6450097  37.9873891 109.6349192
   3.4142908  38.2170317 110.9184107   9.7901811  34.4745653 111.3054831
   9.0365520  33.9053051 111.1498836   9.9249353  34.4408317 112.2525466
   3.4677460  35.6130583 105.9534053   2.6906903  35.2741742 105.5089215
   4.1468941  35.6183206 105.2789018   1.2836022  38.4214938 108.7883745
   0.8298349  37.5805848 108.8448936   0.6529989  39.0576337 109.1258525
   3.8665957  34.6274289 108.4156975   3.7283856  34.8175885 107.4878164
   3.5102176  35.3893672 108.8725026   0.7578168  41.6811980 107.5908199
   0.9315046  41.1158403 106.8382051   1.2507059  42.4812875 107.4087689
   6.6117559  34.4448403 109.2098498   7.0548705  33.6955728 108.8117622
   5.7344070  34.4358540 108.8272230   1.7453341  40.9978745 104.6905097
   2.4404245  41.6185437 104.9092411   2.0876491  40.1474096 104.9657475
   3.6444764  38.4478450 106.2192428   4.1696088  38.7865723 105.4941748
   3.5567116  37.5125465 106.0355562   6.1550424  35.9153641 111.6020946
   6.9897315  36.3543446 111.7658506   6.2909553  35.4392295 110.7829192
   1.6853485  40.7043517 101.6892720   1.6067117  40.3703380 102.5828478
   2.5063152  41.1965285 101.6884193   1.1644135  38.4594041 103.3601159
   1.9989739  38.0275240 103.1778633   1.0028478  38.2876055 104.2878053
   9.7928410  48.9763692 113.4556335  10.4306820  48.8570440 112.7519675
   9.6749253  49.9244536 113.5144288   6.6018116  48.9291121 113.3917860
   6.2636628  48.8132185 112.5038395   7.4707884  48.5282286 113.3718866
   2.4604932  50.7826597 109.3814751   1.8969797  50.6916534 108.6131039
   2.3457327  49.9626501 109.8617244   7.0837899  50.0825972 119.3504066
   7.0726540  49.6878771 118.4784569   7.2458539  49.3492045 119.9437837
   8.0404490  54.4497565 104.6929216   7.3892470  55.0351645 104.3063230
   8.8348853  54.9803760 104.7524253   1.9660118  51.5386702 105.0916350
   2.7390994  50.9915689 104.9529226   2.3185516  52.4030951 105.3030812
   3.8045160  52.8663084 118.2983250   3.5135026  53.7708715 118.1829916
   4.4402145  52.9079612 119.0127319   4.7301367  50.2439933 114.8884609
   5.3264939  50.0195955 114.1741572   4.7876339  49.5024678 115.4910057
   4.3026395  47.6979368 102.7234800   4.5551916  47.1760889 101.9618263
   3.3650955  47.5345513 102.8261484   9.3469678  46.7015146 110.5309543
  10.1332767  46.2834569 110.1799960   9.6108383  47.6061239 110.6991192
   9.5179756  52.1387997 105.2298200   8.8825589  52.2122623 105.9419105
   9.1877162  52.7281595 104.5517280  14.7478105  46.6390380 111.4342522
  15.4803277  46.0689596 111.6680351  13.9917461  46.2511980 111.8749028
   4.0222684  49.6007474 104.9259175   3.9058942  48.9252377 105.5940259
   4.1324944  49.1139848 104.1091328   6.3654225  49.0617621 108.6305864
   6.0012432  48.5348242 109.3418786   7.2221341  48.6716090 108.4572350
  12.2703526  40.3511954 115.8937131  11.9386851  41.2207365 115.6698346
  11.6749139  40.0348238 116.5731161   6.0059712  44.0907521 103.6267213
   6.1734114  44.9587757 103.9937684   5.8156881  44.2534802 102.7028502
   8.7635045  52.5524500 115.2933043   8.4635768  53.4549538 115.1848851
   8.4186105  52.2856683 116.1454196   2.2147527  49.0038296 111.3269748
   1.2898023  48.8714511 111.5347439   2.4631940  49.7832516 111.8239690
  12.1632189  45.0707040 112.9730481  11.2549066  45.0022448 112.6789242
  12.1119785  45.5478985 113.8012306   5.9848933  46.5465178 104.6113880
   5.8648558  46.9922229 105.4499360   5.2901521  46.8950496 104.0527418
   3.7455825  59.3168820 108.2604011   3.6679855  60.2676645 108.3392492
   3.1417469  58.9714692 108.9178937  14.0293835  43.2723478 114.7508355
  13.3868216  43.5656011 114.1048149  13.5248764  43.1576399 115.5561551
  11.6833999  47.0186651 105.4394214  12.5951855  47.2514038 105.2641911
  11.1743646  47.6023696 104.8769292   9.9674767  51.4411279 119.0755506
  10.3758123  50.9993690 118.3310139   9.2452028  50.8663907 119.3289699
   6.3205837  46.3783886 116.4489063   7.1667032  46.8023300 116.5923712
   6.2604475  45.7217510 117.1427626  10.2903581  52.0012470 112.8307795
   9.6612444  52.1658184 112.1283863   9.9029244  52.4154079 113.6018759
  14.1692813  52.9366908 110.1852159  13.4843851  53.3165809 109.6349192
  14.2536663  53.5462234 110.9184107  11.4243745  50.5826867 116.7847503
  11.6360640  51.2258627 116.1081884  11.3773493  49.7489183 116.3169433
   9.0269974  43.1944687 113.6884075   8.1654453  43.4925941 113.9800812
   9.0532409  43.4115086 112.7565107   5.8431543  51.7386878 110.0957880
   6.3069889  52.0174581 109.3062503   5.5788341  50.8370323 109.9130971
   2.7355624  51.2858359 113.0337644   3.3056981  51.7145628 112.3955128
   3.3263736  51.0040944 113.7321829   4.7800429  47.8610030 106.9047445
   5.4824473  48.3131074 107.3721372   4.4481058  47.2193849 107.5327339
  12.5389573  53.4598822 114.9569860  13.3607017  53.0579009 114.6752542
  12.5351976  53.3567056 115.9085976   6.3046176  53.0082865 117.1130570
   6.3690609  53.4703273 117.9488742   5.5957100  52.3780230 117.2412880
  20.6295566  49.8037571 111.3054831  19.8759274  49.2344969 111.1498836
  20.7643107  49.7700235 112.2525466   6.0194194  54.6750973 106.9809551
   5.8839869  55.5202509 107.4094399   6.5604006  54.8770251 106.2175485
   1.2818476  55.3092167 109.6360229   1.4585104  56.2310132 109.4481213
   2.0775310  54.9950586 110.0654609   7.6462670  55.2974539 121.1109893
   7.2026525  54.5110918 120.7930797   8.3079884  55.4853690 120.4453784
   2.4049792  56.8270341 115.6370571   2.9557217  56.6987404 114.8647565
   1.5661267  57.1265230 115.2865464   9.7443908  55.5777339 119.1391294
   9.7262384  56.3986220 118.6471563  10.6663828  55.4531415 119.3641435
   6.2016963  53.0921469 119.9814802   6.7345299  52.3309757 119.7514110
   5.6731044  52.7995121 120.7238957   9.3336940  48.1890146 104.0180879
   8.8183564  48.9594751 104.2569267   9.0614249  47.5155282 104.6413941
   6.9184051  43.0339847 109.0766118   6.0625648  42.6446697 108.8971756
   7.3311003  43.1131808 108.2165903   8.4483198  40.5686190 113.4757677
   7.9447994  40.5316325 112.6625483   8.7413805  41.4778933 113.5354334
   4.6926084  40.6524920 112.4823859   5.5579081  40.4567728 112.1229749
   4.7603593  40.4235271 113.4093216  14.3071214  50.9422501 105.9534053
  13.5300657  50.6033660 105.5089215  14.9862695  50.9475124 105.2789018
   9.1223243  46.0617238 105.8440660   8.8173379  46.3763387 106.6950804
  10.0753686  46.1398658 105.8867993   7.5669675  52.2207461 107.4933614
   7.0391037  51.4860221 107.1806852   7.0657178  52.9982138 107.2473583
  12.5462521  50.4156482 112.6100661  11.8886196  51.1055743 112.6980789
  13.3502921  50.8052914 112.9534647   2.2988403  42.8827128 109.8540226
   2.8732155  42.6602309 109.1213419   2.8859385  42.9515822 110.6068827
  11.3567980  48.7700855 110.6604602  11.8699862  49.4030846 111.1626312
  12.0069204  48.1702050 110.2947963   2.6257990  44.9131589 103.8736111
   1.7895302  45.2506275 104.1945386   2.4862760  44.7780568 102.9363248
   4.6011071  39.7568377 108.5815295   3.9475483  39.4417394 107.9571910
   4.5591545  39.1344117 109.3075118   5.7122275  50.0387672 100.4968587
   4.8049337  49.8076925 100.6959736   6.2093307  49.2425291 100.6842569
   8.6190354  58.7485179 103.4165274   7.9452053  59.0516876 104.0250231
   9.0056176  59.5514259 103.0670731   7.8348811  46.2450310 112.9062943
   6.9171372  46.4665257 112.7484631   8.2508955  46.3196621 112.0474650
   8.6183859  47.6441726 108.0365623   9.3655678  48.1563123 107.7272745
   8.8875448  47.3225778 108.8970017   6.8910509  50.1400266 105.0192578
   5.9821728  49.8559299 105.1165047   6.9205593  50.5599345 104.1595884
  12.1229776  53.7506856 108.7883745  11.6692103  52.9097766 108.8448936
  11.4923743  54.3868254 109.1258525  11.0662696  44.6798842 110.0184413
  10.3285453  44.1676228 110.3494655  11.3189469  44.2399224 109.2067689
  10.5662716  55.5883353 109.7233563  10.8585690  56.1488410 109.0045929
  11.0761336  55.8811914 110.4786722  11.1674323  37.4575094 110.6126182
  11.4733200  36.5972457 110.3252097  11.8926928  38.0492714 110.4125176
   5.4395403  47.7528887 111.1202373   5.4944013  46.8002723 111.0444850
   4.6286605  47.9088326 111.6043671   6.5886597  51.6809010 102.3580656
   6.1506027  50.9644869 101.8986293   7.3297038  51.9085125 101.7965748
   3.3787763  46.3705947 108.8792752   2.5655628  46.6700117 109.2857944
   3.8746757  45.9761636 109.5967234   5.5296341  56.3663704 110.8127016
   5.4872520  56.5924550 109.8835549   6.4459040  56.1327078 110.9612818
   8.9761975  46.8347771 117.7107646   9.3311362  47.0619244 118.5702111
   9.6234106  47.1666148 117.0884901  14.7059711  49.9566207 108.4156975
  14.5677610  50.1467803 107.4878164  14.3495930  50.7185590 108.8725026
   2.8701838  43.9424302 114.4953987   3.5101217  43.8013061 113.7976950
   2.0379368  43.6558816 114.1192589  14.7329091  52.0242734 113.4268246
  15.1665598  51.9318023 114.2751300  15.4460672  52.0000235 112.7888262
   3.6462142  53.2426733 110.6088979   4.4402740  52.7477053 110.4071554
   2.9353834  52.7144596 110.2456685   8.4656986  55.6244828 114.9601347
   8.5194008  56.1935765 115.7279063   7.5971767  55.7946713 114.5955384
  15.5944641  52.0666435 115.9601132  15.7880531  52.9712245 116.2060407
  15.4945259  51.6073854 116.7939717  10.6559749  52.2173178 121.5342012
  10.5045256  51.9883729 120.6172096  10.6464429  53.1743779 121.5473357
   7.4245086  49.7905090 116.5188279   8.3537146  49.9416250 116.3457246
   7.0036116  49.8789111 115.6636925   6.2233418  53.8155755 114.2886816
   6.0844503  53.4474539 115.1612754   5.4348014  54.3303394 114.1170774
   6.8181570  58.9164851 105.6312353   6.9933325  58.4452894 106.4457976
   6.1314358  59.5430617 105.8593614   7.7738633  53.1937357 111.6775654
   7.4388465  53.1538127 112.5733304   7.2742578  52.5282073 111.2046064
  10.7097824  50.5393392 101.9512714  10.0926995  49.8140220 101.8545766
  10.2414313  51.3002752 101.6079788   4.3765177  48.3124947 116.6911915
   5.0864796  47.6718139 116.6498533   4.3334485  48.5637842 117.6138096
  12.3651956  55.2492300 119.6118494  12.3064502  54.5651520 118.9449077
  12.7671474  55.9911290 119.1599120   1.3842655  62.0654214 112.4052213
   1.6239253  62.6972738 113.0831232   0.5411851  61.7142254 112.6917572
   2.4996370  44.7578816 101.0734018   1.6225837  44.6367617 100.7096265
   2.9754123  43.9664894 100.8212907  12.3669363  53.2131884 117.8432474
  11.4796142  52.8757806 117.9658873  12.9367914  52.4814915 118.0801239
   5.8970517  57.8733336 114.8093717   5.8240688  58.6788308 115.3213022
   5.4547910  58.0725302 113.9841738   5.6860296  57.1105106 108.3196539
   4.9027818  57.6526787 108.4134763   6.3853041  57.6279086 108.7190780
   8.9956946  42.9199736 110.9630744   9.4925646  42.1669698 110.6431814
   8.2243928  42.9564053 110.3973953  16.8486704  48.6240101 112.6049035
  16.8376580  49.5064817 112.2342969  15.9804083  48.2711652 112.4103572
   8.3569200  57.7720170 116.9651876   9.0697172  58.4067635 116.8927777
   7.8659229  57.8684036 116.1491877  10.0786727  51.6771423 108.5369167
   9.1443006  51.7972886 108.3673872  10.2563396  50.7743890 108.2729177
   5.5791915  45.0617119 110.6902429   5.2089703  44.5088159 111.3783334
   6.0751008  44.4575252 110.1377429  13.4659278  47.5188742 109.0719201
  13.9319731  48.3516734 108.9979504  13.9166779  47.0533724 109.7764460
   3.4081114  55.5214614 117.7857446   4.1090573  56.1551097 117.9386841
   2.9376229  55.8629345 117.0253086  11.5335510  53.8632564 106.0705353
  11.8095353  53.7489158 106.9799228  10.6640008  53.4650049 106.0317527
  11.4375941  39.8869329 113.1110103  10.5239021  40.1173556 113.2792310
  11.8669043  39.9707773 113.9624135  11.2082400  48.0759221 115.6109997
  10.5553850  48.3235129 114.9562450  11.5862780  47.2623360 115.2772474
   8.1689574  58.1118915 109.7138167   8.3511968  57.2940570 110.1765919
   8.9922560  58.3286607 109.2763057   8.5031739  57.0387100 106.9753216
   9.0319505  56.5279554 106.3623378   8.7659959  56.7229630 107.8398749
   1.8587487  58.0902216 109.7350992   1.1897862  58.5748344 109.2515032
   1.7200357  58.3371437 110.6494370   5.9992756  60.1245960 116.3333650
   6.5511064  60.2877581 117.0982735   6.3398949  60.7150398 115.6613675
  10.8503630  54.9507217 122.1882304  11.3943534  55.5637176 121.6937259
  10.2690475  55.5086796 122.7049317   9.1361143  58.0727935 113.3197332
   9.0112282  57.2717675 112.8108278   9.7940234  58.5674129 112.8311302
  11.1996051  55.8736955 114.9476882  10.2526387  55.7542307 114.8755209
  11.5478824  54.9859454 115.0303144   8.2042485  55.6689672 111.1481234
   8.0567447  54.7406379 111.3288804   9.0295978  55.6909762 110.6638310
   2.0704729  44.3207739 107.0061727   2.4100801  44.8493660 106.2840335
   2.5176849  44.6588145 107.7820293  11.8076606  56.4918230 112.2346107
  12.7323154  56.2861092 112.0970558  11.6391910  56.2434632 113.1435449
   4.0572876  42.8182360 105.2055019   4.7781238  43.1963613 104.7018736
   3.4338180  43.5371237 105.3089997   8.2003999  43.5227509 106.1413352
   8.4167613  44.4052147 105.8402180   7.7198066  43.1313723 105.4118994
   2.9403220  46.4813223 112.7184096   2.7947801  46.7953526 113.6108378
   2.4628424  47.0998123 112.1654995   4.7999603  43.4715771 112.7664986
   4.7861172  42.5756864 112.4297284   5.5172031  43.4786434 113.4003272
   6.6525734  43.9053111 114.8118113   6.3943512  44.8270181 114.8102444
   6.1210774  43.5083545 115.5018577  11.5971923  57.0103898 107.5908199
  11.7708800  56.4450320 106.8382051  12.0900814  57.8104793 107.4087689
   4.2036499  42.3530151 108.0352556   4.3252410  41.4246797 108.2343443
   3.9138541  42.3668837 107.1230871   7.0727689  40.0385061 111.1719276
   7.0949386  40.1024394 110.2171255   7.4895748  39.1989570 111.3659782
  17.4511314  49.7740321 109.2098498  17.8942460  49.0247646 108.8117622
  16.5737824  49.7650457 108.8272230  12.5847095  56.3270662 104.6905097
  13.2798000  56.9477355 104.9092411  12.9270245  55.4766014 104.9657475
  14.4838518  53.7770368 106.2192428  15.0089842  54.1157641 105.4941748
  14.3960871  52.8417383 106.0355562   6.1458567  57.6904441 118.3482304
   6.4545693  57.4453588 119.2205004   6.9434049  57.8951080 117.8601174
   6.1679179  59.8442351 110.5787681   5.7284169  59.3518730 111.2720538
   6.9187296  59.3015319 110.3379756   3.6153051  55.3880360 112.6509982
   2.9933060  54.7251065 112.3512210   4.2857918  55.4141492 111.9683630
  14.1732424  54.4103271 121.5243626  13.3827968  54.3927410 120.9848125
  13.9365779  54.9491565 122.2792662  14.2930299  51.2595738 118.8376354
  14.3428304  51.0945745 119.7791877  14.1844223  50.3922997 118.4474235
   3.1766558  53.9384284 106.1268443   3.3254678  54.6219748 105.4735116
   3.9833001  53.9189374 106.6417899  15.7948496  53.6792679 119.0818376
  15.5033304  54.0422660 119.9181837  15.1820627  52.9659688 118.9031708
  16.9944178  51.2445559 111.6020946  17.8291070  51.6835363 111.7658506
  17.1303307  50.7684212 110.7829192  14.0435684  48.8025294 117.5498434
  14.5189806  48.9952940 116.7417285  13.1201250  48.8584480 117.3041817
   0.9319191  49.9649461 107.1329512   0.6865233  49.0611791 107.3309722
   1.1015106  49.9666612 106.1908990   8.8728495  37.2573420 112.0355164
   9.1530249  36.5896609 112.6615591   9.6579102  37.4502516 111.5229828
   6.6761964  56.4332414 103.5980190   6.1035931  57.0522601 103.1450662
   7.2494757  56.9831776 104.1320112  12.7437353  45.6791054 115.7826739
  13.6954776  45.7789152 115.8038963  12.5740804  44.8869323 116.2924824
  10.7651733  42.7646637 115.9686140  10.1701665  43.0451650 115.2732629
  10.4801430  43.2540538 116.7402881   9.8959223  56.7169564 104.7288773
  10.8289896  56.6515126 104.9321648   9.8082436  57.5525831 104.2703305
  12.5247240  56.0335434 101.6892720  12.4460872  55.6995298 102.5828478
  13.3456907  56.5257202 101.6884193  15.2225431  48.8997174 114.8969039
  15.1901751  47.9613174 115.0828723  15.8326055  48.9781210 114.1634864
   7.0608762  47.7693227 100.9396243   8.0067867  47.6399435 101.0084661
   6.6823007  47.0307889 101.4165671  15.3719920  45.6908217 114.9427322
  14.8558968  44.9066674 114.7557251  16.2559868  45.3626934 115.1073842
  13.0330647  39.4349233 110.9023135  12.8355468  39.1264321 111.7866467
  13.6430352  40.1610872 111.0321065  21.0401981  49.9613181 114.0375076
  21.7705369  49.6998469 114.5982779  20.4308926  49.2241903 114.0777144
  19.1217278  48.1021043 114.6349527  18.3950442  47.9677008 114.0266018
  18.7064565  48.4097872 115.4406245   5.2451679  45.6943203 100.8751128
   4.3383135  45.3976316 100.9513842   5.5227660  45.3973021 100.0085414
   6.8613745  40.2380093 107.0295369   6.0514473  39.8927178 107.4050616
   7.5498162  39.9287637 107.6182981   8.7904293  39.3158140 108.6519666
   9.3435332  39.7353593 109.3109689   9.0274380  38.3893888 108.6942622
   4.0150464  42.5530138 101.0163107   4.8769628  42.8785037 101.2758925
   4.2000808  41.7661634 100.5036173  12.1683100  41.4258665 108.1598330
  11.5881769  42.0843469 107.7776383  11.9019033  40.6036009 107.7485748
  10.6186667  40.8263722 110.3619651  11.1186445  40.9380257 109.5533970
  11.2622275  40.5224775 111.0020459   0.6042000  52.6246887 115.2855925
   1.5585254  52.5930829 115.2185857   0.4054524  52.1637511 116.1006151
   1.1941382  51.1948003 117.8526723   2.0134271  51.6892082 117.8761560
   1.4678190  50.2779971 117.8244291  10.9507978  43.5858755 107.2154679
  10.0633833  43.8708406 106.9974873  11.3661967  43.4252519 106.3681956
  14.3022514  43.6105276 110.9309018  15.0782905  44.1001729 111.2033635
  13.5770649  44.0363330 111.3880887  16.7395073  44.3232895 111.9882959
  17.3339564  44.0828631 111.2776267  16.8121657  43.6040026 112.6156495
  10.0951192  53.3503430 101.3102699  10.7987042  53.5553432 101.9260354
   9.3713841  53.9180192 101.5751782  10.9249002  49.1013291 107.4304969
  10.8684203  49.5581843 106.5912601  11.4777345  48.3403976 107.2527812
  14.7353808  44.8903023 108.2555088  14.4790742  44.4899659 109.0863296
  14.1106676  45.6046817 108.1305227  19.0466146  47.6299096 110.7626380
  18.4865704  47.6992286 111.5357942  18.4409649  47.4540081 110.0425876
   2.1161355  59.0635823 112.5144566   1.9993739  60.0081256 112.4123256
   1.2953801  58.7609385 112.9030365  12.0037889  53.7885959 103.3601159
  12.8383493  53.3567158 103.1778633  11.8422232  53.6167973 104.2878053
  11.6583781  50.2918072 104.7257498  11.6032585  50.1262344 103.7845942
  11.0329837  50.9994105 104.8819688   4.9679907  39.7926181 104.3042816
   4.9558577  40.7368021 104.4611087   5.8603329  39.6096327 104.0102278
   3.1415869  59.7164085 115.7300494   4.0443115  59.7487695 116.0466989
   2.9153239  58.7864536 115.7446830   4.8969471  58.4695072 112.3910573
   3.9465102  58.4696933 112.2774945   5.2001957  57.7227806 111.8746608
   8.7832026  36.3868958 108.5588753   8.0164422  35.8327445 108.7045436
   9.1942731  36.4590827 109.4202905  20.6322164  64.3055610 113.4556335
  21.2700574  64.1862358 112.7519675  20.5143007  65.2536454 113.5144288
  17.4411871  64.2583038 113.3917860  17.1030382  64.1424103 112.5038395
  18.3101639  63.8574203 113.3718866  13.2998686  66.1118515 109.3814751
  12.7363551  66.0208452 108.6131039  13.1851081  65.2918419 109.8617244
  17.9231654  65.4117890 119.3504066  17.9120294  65.0170688 118.4784569
  18.0852293  64.6783963 119.9437837  10.8463118  67.6069706 112.2198972
  11.6384410  67.2660531 111.8045271  11.0859768  67.7164681 113.1401125
  18.8798245  69.7789482 104.6929216  18.2286225  70.3643563 104.3063230
  19.6742608  70.3095677 104.7524253  12.8053872  66.8678620 105.0916350
  13.5784748  66.3207607 104.9529226  13.1579271  67.7322869 105.3030812
  14.6438915  68.1955002 118.2983250  14.3528781  69.1000633 118.1829916
  15.2795899  68.2371529 119.0127319  15.5695122  65.5731850 114.8884609
  16.1658694  65.3487873 114.1741572  15.6270093  64.8316596 115.4910057
  15.1420150  63.0271286 102.7234800  15.3945671  62.5052807 101.9618263
  14.2044709  62.8637431 102.8261484  20.1863433  62.0307064 110.5309543
  20.9726522  61.6126487 110.1799960  20.4502137  62.9353156 110.6991192
  20.3573510  67.4679914 105.2298200  19.7219343  67.5414541 105.9419105
  20.0270917  68.0573513 104.5517280  25.5871860  61.9682297 111.4342522
  26.3197032  61.3981514 111.6680351  24.8311216  61.5803898 111.8749028
  14.8616439  64.9299392 104.9259175  14.7452697  64.2544295 105.5940259
  14.9718699  64.4431766 104.1091328  17.2047980  64.3909539 108.6305864
  16.8406187  63.8640160 109.3418786  18.0615096  64.0008008 108.4572350
  23.1097280  55.6803871 115.8937131  22.7780605  56.5499282 115.6698346
  22.5142894  55.3640155 116.5731161  16.8453467  59.4199438 103.6267213
  17.0127869  60.2879675 103.9937684  16.6550636  59.5826720 102.7028502
  19.6028800  67.8816417 115.2933043  19.3029523  68.7841456 115.1848851
  19.2579859  67.6148601 116.1454196  13.0541281  64.3330214 111.3269748
  12.1291778  64.2006428 111.5347439  13.3025694  65.1124433 111.8239690
  23.0025944  60.3998957 112.9730481  22.0942821  60.3314366 112.6789242
  22.9513539  60.8770902 113.8012306  16.8242687  61.8757096 104.6113880
  16.7042313  62.3214147 105.4499360  16.1295276  62.2242414 104.0527418
  10.4150092  63.9763488 112.1613537  10.5442473  64.2297967 113.0752949
   9.7347544  64.5691196 111.8418192  14.5849580  74.6460738 108.2604011
  14.5073609  75.5968563 108.3392492  13.9811223  74.3006610 108.9178937
  17.0766809  61.8188603 120.9165378  16.3000143  62.3782523 120.9068243
  17.7157372  62.3045386 121.4380248  24.8687590  58.6015396 114.7508355
  24.2261970  58.8947929 114.1048149  24.3642518  58.4868316 115.5561551
  22.5227754  62.3478569 105.4394214  23.4345610  62.5805956 105.2641911
  22.0137401  62.9315613 104.8769292  15.3313182  64.6274056 120.4783345
  16.0727866  65.1659100 120.2018169  14.6250167  65.2540345 120.6354897
  20.8068521  66.7703197 119.0755506  21.2151877  66.3285607 118.3310139
  20.0845783  66.1955824 119.3289699  17.1599591  61.7075804 116.4489063
  18.0060787  62.1315217 116.5923712  17.0998229  61.0509428 117.1427626
  21.1297336  67.3304388 112.8307795  20.5006198  67.4950102 112.1283863
  20.7422998  67.7445997 113.6018759  25.0086568  68.2658825 110.1852159
  24.3237606  68.6457727 109.6349192  25.0930417  68.8754152 110.9184107
  20.3099037  59.3680172 118.1070237  20.0659969  60.1222233 117.5704513
  20.5858967  59.7465520 118.9417484  22.2637499  65.9118784 116.7847503
  22.4754395  66.5550544 116.1081884  22.2167248  65.0781101 116.3169433
  19.8663728  58.5236605 113.6884075  19.0048207  58.8217859 113.9800812
  19.8926163  58.7407004 112.7565107  16.6825298  67.0678796 110.0957880
  17.1463643  67.3466499 109.3062503  16.4182096  66.1662240 109.9130971
  13.5749379  66.6150277 113.0337644  14.1450736  67.0437546 112.3955128
  14.1657491  66.3332862 113.7321829  15.6194184  63.1901948 106.9047445
  16.3218227  63.6422992 107.3721372  15.2874812  62.5485767 107.5327339
  14.0674545  61.7813705 121.2798655  13.4373206  62.4629985 121.5134052
  13.9610633  61.6696786 120.3351793   9.3619518  61.4485501 112.2064579
   8.5718572  61.7043029 111.7304690   9.8530765  62.2633839 112.3116620
  23.3783327  68.7890740 114.9569860  24.2000771  68.3870927 114.6752542
  23.3745730  68.6858974 115.9085976  11.3134263  61.8130080 109.1648056
  10.5165426  61.9248774 109.6831551  11.0859855  62.1516732 108.2988946
  17.1439931  68.3374783 117.1130570  17.2084363  68.7995190 117.9488742
  16.4350855  67.7072148 117.2412880   7.6457221  61.7015991 114.6379570
   7.8965259  62.5863001 114.9037146   8.1816769  61.5220593 113.8654662
  31.4689320  65.1329488 111.3054831  30.7153029  64.5636886 111.1498836
  31.6036862  65.0992153 112.2525466  16.8587948  70.0042891 106.9809551
  16.7233623  70.8494426 107.4094399  17.3997761  70.2062168 106.2175485
  13.3455288  56.0834470 123.6423906  12.9522234  55.5300669 124.3171550
  14.1621428  56.3945049 124.0330423  10.3117346  67.5218329 107.5537476
  10.8241866  68.3161579 107.7043040  10.9640059  66.8244619 107.4871077
  12.1212231  70.6384085 109.6360229  12.2978859  71.5602050 109.4481213
  12.9169064  70.3242504 110.0654609  16.2623249  57.4992350 121.2344162
  17.0032962  58.0999503 121.1548625  16.4941172  56.7569987 120.6762205
  11.4064587  62.6848717 119.5122392  11.2918102  61.7833974 119.8129491
  10.5509105  62.9312414 119.1607209  18.4856425  70.6266457 121.1109893
  18.0420279  69.8402836 120.7930797  19.1473638  70.8145608 120.4453784
  13.2443546  72.1562259 115.6370571  13.7950971  72.0279322 114.8647565
  12.4055022  72.4557148 115.2865464  20.5837663  70.9069257 119.1391294
  20.5656138  71.7278138 118.6471563  21.5057583  70.7823332 119.3641435
  17.0410717  68.4213387 119.9814802  17.5739054  67.6601675 119.7514110
  16.5124798  68.1287038 120.7238957  20.2080412  53.5273452 115.5108444
  19.8644681  54.4175094 115.4347555  20.5759375  53.3375110 114.6478029
   8.2766263  65.8506983 108.3297046   9.1141485  66.2603991 108.1130754
   8.4544530  64.9106425 108.2997240  20.1730695  63.5182064 104.0180879
  19.6577318  64.2886668 104.2569267  19.9008003  62.8447200 104.6413941
  17.7577806  58.3631764 109.0766118  16.9019402  57.9738615 108.8971756
  18.1704758  58.4423725 108.2165903  19.2876952  55.8978108 113.4757677
  18.7841748  55.8608243 112.6625483  19.5807559  56.8070850 113.5354334
  15.5319838  55.9816837 112.4823859  16.3972835  55.7859646 112.1229749
  15.5997347  55.7527189 113.4093216  25.1464969  66.2714418 105.9534053
  24.3694412  65.9325578 105.5089215  25.8256450  66.2767041 105.2789018
  19.9616998  61.3909156 105.8440660  19.6567134  61.7055305 106.6950804
  20.9147440  61.4690576 105.8867993  18.4063430  67.5499379 107.4933614
  17.8784791  66.8152139 107.1806852  17.9050933  68.3274055 107.2473583
  23.3856276  65.7448399 112.6100661  22.7279950  66.4347661 112.6980789
  24.1896675  66.1344831 112.9534647  13.1382157  58.2119045 109.8540226
  13.7125909  57.9894227 109.1213419  13.7253140  58.2807740 110.6068827
  22.1961735  64.0992772 110.6604602  22.7093616  64.7322764 111.1626312
  22.8462958  63.4993968 110.2947963  13.4651745  60.2423506 103.8736111
  12.6289057  60.5798193 104.1945386  13.3256514  60.1072486 102.9363248
  15.4404825  55.0860294 108.5815295  14.7869237  54.7709311 107.9571910
  15.3985299  54.4636035 109.3075118  16.5516030  65.3679589 100.4968587
  15.6443092  65.1368843 100.6959736  17.0487062  64.5717209 100.6842569
  19.4584109  74.0777096 103.4165274  18.7845808  74.3808793 104.0250231
  19.8449931  74.8806177 103.0670731  18.6742565  61.5742228 112.9062943
  17.7565127  61.7957175 112.7484631  19.0902709  61.6488538 112.0474650
  19.4577613  62.9733643 108.0365623  20.2049432  63.4855041 107.7272745
  19.7269203  62.6517696 108.8970017  17.7304263  65.4692184 105.0192578
  16.8215483  65.1851217 105.1165047  17.7599347  65.8891263 104.1595884
  22.9623531  69.0798774 108.7883745  22.5085858  68.2389684 108.8448936
  22.3317498  69.7160172 109.1258525  21.9056450  60.0090760 110.0184413
  21.1679207  59.4968146 110.3494655  22.1583224  59.5691141 109.2067689
  21.4056470  70.9175270 109.7233563  21.6979444  71.4780327 109.0045929
  21.9155091  71.2103831 110.4786722  22.0068078  52.7867012 110.6126182
  22.3126955  51.9264375 110.3252097  22.7320683  53.3784632 110.4125176
   8.2992434  63.1897698 109.0007780   8.1016834  62.5967059 108.2758846
   7.7439098  62.8849908 109.7183719  16.2789157  63.0820805 111.1202373
  16.3337767  62.1294641 111.0444850  15.4680359  63.2380244 111.6043671
  17.4280351  67.0100928 102.3580656  16.9899781  66.2936787 101.8986293
  18.1690792  67.2377043 101.7965748  14.2181517  61.6997864 108.8792752
  13.4049383  61.9992035 109.2857944  14.7140512  61.3053553 109.5967234
  16.3690095  71.6955621 110.8127016  16.3266274  71.9216468 109.8835549
  17.2852794  71.4618996 110.9612818  19.8155729  62.1639689 117.7107646
  20.1705117  62.3911162 118.5702111  20.4627860  62.4958066 117.0884901
  25.5453466  65.2858125 108.4156975  25.4071365  65.4759721 107.4878164
  25.1889685  66.0477508 108.8725026  13.7095592  59.2716220 114.4953987
  14.3494971  59.1304979 113.7976950  12.8773123  58.9850733 114.1192589
  25.5722846  67.3534652 113.4268246  26.0059352  67.2609941 114.2751300
  26.2854426  67.3292152 112.7888262  14.4855896  68.5718650 110.6088979
  15.2796495  68.0768971 110.4071554  13.7747588  68.0436514 110.2456685
  19.3050741  70.9536746 114.9601347  19.3587763  71.5227682 115.7279063
  18.4365522  71.1238631 114.5955384  10.7938659  62.7161732 106.6848732
   9.8636248  62.6546188 106.9018694  10.8896131  62.1937685 105.8885373
  10.7124209  59.2416545 109.2726974  10.9731026  60.1561878 109.1636134
  11.5341381  58.7740988 109.4223586  12.1849134  60.6554302 116.4425798
  12.8572187  60.4471664 115.7938447  11.3578920  60.4576388 116.0031030
  26.4338395  67.3958353 115.9601132  26.6274285  68.3004163 116.2060407
  26.3339013  66.9365772 116.7939717  18.0874706  57.2816243 118.4591459
  17.4402621  57.9806193 118.3655935  18.8575721  57.7152387 118.8267707
  21.4953504  67.5465095 121.5342012  21.3439010  67.3175647 120.6172096
  21.4858183  68.5035697 121.5473357  18.2638840  65.1197008 116.5188279
  19.1930900  65.2708168 116.3457246  17.8429870  65.2081029 115.6636925
  17.0627172  69.1447672 114.2886816  16.9238258  68.7766457 115.1612754
  16.2741768  69.6595312 114.1170774  17.6575324  74.2456769 105.6312353
  17.8327080  73.7744812 106.4457976  16.9708112  74.8722535 105.8593614
  18.6132387  68.5229275 111.6775654  18.2782220  68.4830045 112.5733304
  18.1136333  67.8573991 111.2046064  12.5876631  63.9296905 117.2028235
  12.4496429  63.1977144 117.8039774  13.4981555  63.8405805 116.9212423
  21.5491579  65.8685309 101.9512714  20.9320749  65.1432138 101.8545766
  21.0808067  66.6294670 101.6079788  15.2158932  63.6416864 116.6911915
  15.9258550  63.0010057 116.6498533  15.1728240  63.8929759 117.6138096
  23.2045710  70.5784218 119.6118494  23.1458257  69.8943438 118.9449077
  23.6065229  71.3203208 119.1599120  13.9287866  60.6282082 118.5107554
  13.3925223  60.1772821 119.1629151  13.3404574  60.7627991 117.7678019
  12.2236409  77.3946132 112.4052213  12.4633008  78.0264656 113.0831232
  11.3805606  77.0434172 112.6917572  13.3390125  60.0870734 101.0734018
  12.4619591  59.9659535 100.7096265  13.8147878  59.2956812 100.8212907
  23.2063118  68.5423802 117.8432474  22.3189897  68.2049724 117.9658873
  23.7761669  67.8106833 118.0801239   4.8592265  64.8747893 111.1675525
   5.5463305  64.5609624 110.5796540   4.7040394  65.7789258 110.8942777
   9.6626987  59.7638090 115.5960549   9.5785176  59.1563760 114.8610959
   8.8409693  60.2547108 115.5970045  16.7364271  73.2025254 114.8093717
  16.6634443  74.0080226 115.3213022  16.2941664  73.4017220 113.9841738
  16.5254051  72.4397024 108.3196539  15.7421573  72.9818704 108.4134763
  17.2246796  72.9571004 108.7190780  19.8350701  58.2491654 110.9630744
  20.3319400  57.4961616 110.6431814  19.0637682  58.2855970 110.3973953
  27.6880458  63.9532019 112.6049035  27.6770335  64.8356735 112.2342969
  26.8197838  63.6003570 112.4103572  19.1962955  73.1012088 116.9651876
  19.9090927  73.7359553 116.8927777  18.7052983  73.1975954 116.1491877
  20.9180482  67.0063341 108.5369167  19.9836760  67.1264803 108.3673872
  21.0957150  66.1035808 108.2729177  16.4185670  60.3909037 110.6902429
  16.0483457  59.8380077 111.3783334  16.9144762  59.7867170 110.1377429
  24.3053033  62.8480660 109.0719201  24.7713485  63.6808652 108.9979504
  24.7560533  62.3825642 109.7764460  14.2474868  70.8506532 117.7857446
  14.9484328  71.4843015 117.9386841  13.7769983  71.1921263 117.0253086
  22.3729264  69.1924481 106.0705353  22.6489108  69.0781076 106.9799228
  21.5033763  68.7941966 106.0317527  22.2769696  55.2161247 113.1110103
  21.3632775  55.4465474 113.2792310  22.7062797  55.2999691 113.9624135
  22.0476154  63.4051139 115.6109997  21.3947604  63.6527046 114.9562450
  22.4256534  62.5915277 115.2772474  19.0083328  73.4410832 109.7138167
  19.1905723  72.6232488 110.1765919  19.8316314  73.6578524 109.2763057
  19.3425494  72.3679017 106.9753216  19.8713260  71.8571472 106.3623378
  19.6053713  72.0521548 107.8398749  18.0963727  64.1470950 122.0976034
  17.4204364  64.0465079 122.7678409  18.9191361  63.9910164 122.5612031
   9.8442586  70.3842887 114.7188549  10.4296023  69.6386575 114.8516453
   9.6467425  70.6946843 115.6025213  12.6981241  73.4194134 109.7350992
  12.0291617  73.9040262 109.2515032  12.5594111  73.6663354 110.6494370
   4.4360241  62.9548487 113.4392992   4.4744341  62.4212078 114.2330110
   3.9300534  62.4283692 112.8203969  16.8386510  75.4537878 116.3333650
  17.3904818  75.6169499 117.0982735  17.1792704  76.0442315 115.6613675
  11.8151003  57.8013027 116.9355535  11.8792330  58.6627858 116.5232932
  11.7518124  57.1887029 116.2027893  11.2903276  59.8736160 120.5828569
  11.9175315  59.4913237 121.1966093  10.4331195  59.6550362 120.9484261
  21.6897384  70.2799135 122.1882304  22.2337288  70.8929093 121.6937259
  21.1084229  70.8378713 122.7049317   8.0668819  61.6812589 106.5146924
   8.3622260  60.7723267 106.4613977   7.1656854  61.6600328 106.1927926
  19.9754897  73.4019853 113.3197332  19.8506037  72.6009593 112.8108278
  20.6333988  73.8966046 112.8311302  11.5963066  59.7568586 112.4974472
  10.8749651  60.3704553 112.3581946  12.3856321  60.2926350 112.4191118
  22.0389806  71.2028873 114.9476882  21.0920141  71.0834224 114.8755209
  22.3872579  70.3151371 115.0303144  14.3989379  57.0923012 118.7715124
  14.9223781  57.3385309 119.5341433  14.1801712  57.9243047 118.3518261
   9.7956660  59.3626687 106.6386249   9.4669366  58.4824066 106.4561355
  10.1496031  59.3074355 107.5262638  19.0436239  70.9981589 111.1481234
  18.8961201  70.0698297 111.3288804  19.8689733  71.0201680 110.6638310
  12.9098483  59.6499656 107.0061727  13.2494556  60.1785578 106.2840335
  13.3570604  59.9880063 107.7820293  22.6470361  71.8210148 112.2346107
  23.5716908  71.6153009 112.0970558  22.4785664  71.5726549 113.1435449
  15.6041924  58.0336707 116.4564795  15.2638745  57.2344520 116.8585474
  14.8980930  58.3338418 115.8841628  16.2558396  55.1186020 114.9092118
  17.0784465  54.6446498 114.7871008  16.4996459  55.8976503 115.4090804
  14.8966630  58.1474278 105.2055019  15.6174993  58.5255531 104.7018736
  14.2731935  58.8663155 105.3089997  19.0397753  58.8519427 106.1413352
  19.2561368  59.7344065 105.8402180  18.5591820  58.4605640 105.4118994
  13.7796975  61.8105140 112.7184096  13.6341555  62.1245443 113.6108378
  13.3022178  62.4290041 112.1654995  15.6393358  58.8007688 112.7664986
  15.6254926  57.9048782 112.4297284  16.3565786  58.8078352 113.4003272
  17.4919488  59.2345028 114.8118113  17.2337266  60.1562099 114.8102444
  16.9604529  58.8375463 115.5018577  22.4365677  72.3395816 107.5908199
  22.6102555  71.7742238 106.8382051  22.9294568  73.1396710 107.4087689
   8.2542637  64.3510485 115.6571757   7.7096105  65.1270293 115.7892032
   9.1321987  64.6981289 115.4990879  15.0430254  57.6822069 108.0352556
  15.1646165  56.7538715 108.2343443  14.7532296  57.6960754 107.1230871
  17.9121444  55.3676979 111.1719276  17.9343141  55.4316312 110.2171255
  18.3289503  54.5281488 111.3659782  28.2905068  65.1032238 109.2098498
  28.7336214  64.3539564 108.8117622  27.4131579  65.0942375 108.8272230
  23.4240850  71.6562580 104.6905097  24.1191754  72.2769273 104.9092411
  23.7664000  70.8057931 104.9657475   9.0408659  63.4780381 118.5501914
   8.2990395  63.6263016 119.1366545   8.7201403  63.7388647 117.6868664
  25.3232273  69.1062285 106.2192428  25.8483597  69.4449558 105.4941748
  25.2354625  68.1709301 106.0355562  16.9852321  73.0196359 118.3482304
  17.2939448  72.7745506 119.2205004  17.7827803  73.2242998 117.8601174
  17.0072933  75.1734269 110.5787681  16.5677924  74.6810647 111.2720538
  17.7581050  74.6307236 110.3379756   9.4865272  71.3645810 110.5812309
  10.3123292  71.0649581 110.2010952   9.1359324  70.5953432 111.0302098
  14.4546806  70.7172278 112.6509982  13.8326815  70.0542983 112.3512210
  15.1251672  70.7433410 111.9683630   7.6873877  69.2832136 111.5401242
   6.8505786  68.8554310 111.3585244   7.6597523  69.4764579 112.4772034
  14.5271333  59.1954066 122.2442489  14.5759489  60.0716189 121.8620258
  15.0693847  58.6531459 121.6714132  25.0126179  69.7395189 121.5243626
  24.2221722  69.7219328 120.9848125  24.7759533  70.2783483 122.2792662
  25.1324054  66.5887656 118.8376354  25.1822059  66.4237663 119.7791877
  25.0237977  65.7214915 118.4474235  14.0160312  69.2676201 106.1268443
  14.1648433  69.9511666 105.4735116  14.8226756  69.2481291 106.6417899
  22.4227816  62.5718584 120.1535661  23.3237679  62.4325048 119.8619659
  22.4975791  62.7373038 121.0933838  16.7570622  59.9485438 118.9988847
  15.8873931  60.2419004 118.7271436  16.9930102  60.5325883 119.7196111
  26.6342251  69.0084597 119.0818376  26.3427059  69.3714578 119.9181837
  26.0214382  68.2951605 118.9031708  27.8337933  66.5737477 111.6020946
  28.6684824  67.0127281 111.7658506  27.9697062  66.0976130 110.7829192
  24.8829439  64.1317212 117.5498434  25.3583560  64.3244858 116.7417285
  23.9595004  64.1876397 117.3041817  11.7712945  65.2941379 107.1329512
  11.5258987  64.3903709 107.3309722  11.9408860  65.2958529 106.1908990
  19.4609655  56.1665055 116.5154268  19.9791599  56.9026082 116.1900756
  19.1064788  56.4729049 117.3501027  11.0408593  61.0269736 104.6315673
  10.3477838  61.1014091 103.9755709  10.7960345  60.2630080 105.1537190
  19.7122250  52.5865338 112.0355164  19.9924003  51.9188527 112.6615591
  20.4972856  52.7794433 111.5229828  17.5155718  71.7624332 103.5980190
  16.9429685  72.3814519 103.1450662  18.0888512  72.3123693 104.1320112
  23.5831108  61.0082972 115.7826739  24.5348531  61.1081069 115.8038963
  23.4134558  60.2161240 116.2924824  21.6045487  58.0938555 115.9686140
  21.0095419  58.3743568 115.2732629  21.3195184  58.5832456 116.7402881
  20.7352978  72.0461482 104.7288773  21.6683651  71.9807043 104.9321648
  20.6476191  72.8817749 104.2703305  23.3640994  71.3627352 101.6892720
  23.2854626  71.0287216 102.5828478  24.1850661  71.8549120 101.6884193
  26.0619186  64.2289091 114.8969039  26.0295506  63.2905092 115.0828723
  26.6719809  64.3073128 114.1634864  17.9002517  63.0985144 100.9396243
  18.8461621  62.9691353 101.0084661  17.5216761  62.3599806 101.4165671
  26.2113674  61.0200135 114.9427322  25.6952723  60.2358591 114.7557251
  27.0953623  60.6918851 115.1073842  23.8724401  54.7641150 110.9023135
  23.6749222  54.4556239 111.7866467  24.4824107  55.4902789 111.0321065
  31.8795736  65.2905098 114.0375076  32.6099124  65.0290386 114.5982779
  31.2702681  64.5533820 114.0777144  29.9611033  63.4312961 114.6349527
  29.2344196  63.2968926 114.0266018  29.5458320  63.7389789 115.4406245
  17.7841209  67.1502891 122.3996900  18.7044219  67.3281490 122.5936946
  17.7490792  66.2058936 122.2476599  16.0845434  61.0235121 100.8751128
  15.1776889  60.7268233 100.9513842  16.3621415  60.7264939 100.0085414
   7.0023374  62.3441484 111.3250175   6.6826158  61.4906792 111.0324549
   6.4556802  62.5590062 112.0808142  10.7803282  65.0603925 115.0419681
  10.9989291  65.9921033 115.0607715  11.1929055  64.7011900 115.8274485
  17.7007499  55.5672010 107.0295369  16.8908228  55.2219095 107.4050616
  18.3891916  55.2579554 107.6182981  19.6298048  54.6450057 108.6519666
  20.1829086  55.0645511 109.3109689  19.8668134  53.7185805 108.6942622
  15.6531147  60.6337131 124.4322430  15.5527874  61.5831488 124.3634521
  15.4352689  60.3055370 123.5598500  14.8544218  57.8822056 101.0163107
  15.7163382  58.2076954 101.2758925  15.0394562  57.0953552 100.5036173
   6.8711634  65.9644396 113.2943296   6.1775105  65.5498348 112.7813251
   7.6184625  66.0064932 112.6976715  23.0076855  56.7550582 108.1598330
  22.4275524  57.4135386 107.7776383  22.7412787  55.9327927 107.7485748
  21.4580421  56.1555640 110.3619651  21.9580200  56.2672175 109.5533970
  22.1016029  55.8516693 111.0020459  15.5162417  64.0634270 123.2487492
  15.0329499  64.8634630 123.4551381  15.6023356  64.0742215 122.2954936
   8.7848377  65.8962649 111.1709311   8.7619065  65.9950337 110.2191194
   9.0949013  66.7427800 111.4926477  11.4435754  67.9538804 115.2855925
  12.3979008  67.9222747 115.2185857  11.2448278  67.4929428 116.1006151
  12.0335137  66.5239921 117.8526723  12.8528026  67.0183999 117.8761560
  12.3071944  65.6071889 117.8244291  21.7901733  58.9150673 107.2154679
  20.9027588  59.2000323 106.9974873  22.2055722  58.7544436 106.3681956
  25.1416269  58.9397194 110.9309018  25.9176659  59.4293646 111.2033635
  24.4164403  59.3655248 111.3880887  27.5788828  59.6524813 111.9882959
  28.1733318  59.4120549 111.2776267  27.6515411  58.9331944 112.6156495
   9.7985983  73.4958424 112.3026123   9.6640451  72.7358825 111.7364121
   9.3818046  74.2199324 111.8354912  20.9344946  68.6795348 101.3102699
  21.6380796  68.8845350 101.9260354  20.2107595  69.2472109 101.5751782
  21.7642757  64.4305209 107.4304969  21.7077958  64.8873760 106.5912601
  22.3171099  63.6695893 107.2527812  25.5747562  60.2194941 108.2555088
  25.3184497  59.8191576 109.0863296  24.9500430  60.9338735 108.1305227
  29.8859900  62.9591014 110.7626380  29.3259458  63.0284203 111.5357942
  29.2803404  62.7831999 110.0425876  12.9555109  74.3927741 112.5144566
  12.8387493  75.3373173 112.4123256  12.1347555  74.0901303 112.9030365
  22.8431644  69.1177877 103.3601159  23.6777248  68.6859075 103.1778633
  22.6815987  68.9459890 104.2878053  22.4977536  65.6209990 104.7257498
  22.4426340  65.4554261 103.7845942  21.8723591  66.3286023 104.8819688
   7.2870051  60.8578054 118.5518920   7.9328914  60.3477008 119.0406145
   7.0787202  61.5946736 119.1262345  19.8123443  67.9258902 124.0511061
  20.6814603  68.0999554 123.6897696  19.3330195  68.7453319 123.9286790
  15.8073661  55.1218099 104.3042816  15.7952331  56.0659939 104.4611087
  16.6997083  54.9388244 104.0102278  13.9809623  75.0456003 115.7300494
  14.8836870  75.0779613 116.0466989  13.7546993  74.1156454 115.7446830
  15.7363225  73.7986989 112.3910573  14.7858856  73.7988851 112.2774945
  16.0395711  73.0519724 111.8746608  19.6225781  51.7160876 108.5588753
  18.8558177  51.1619362 108.7045436  20.0336486  51.7882744 109.4202905
  11.6267542  58.0045671 122.6493934  12.4899003  57.6482476 122.8597259
  11.0532952  57.6659566 123.3369339  31.4715919  79.6347528 113.4556335
  32.1094329  79.5154275 112.7519675  31.3536762  80.5828372 113.5144288
  28.2805625  79.5874956 113.3917860  27.9424137  79.4716021 112.5038395
  29.1495393  79.1866121 113.3718866  24.1392441  81.4410432 109.3814751
  23.5757306  81.3500369 108.6131039  24.0244836  80.6210337 109.8617244
  28.7625408  80.7409808 119.3504066  28.7514049  80.3462606 118.4784569
  28.9246048  80.0075880 119.9437837  21.6856873  82.9361624 112.2198972
  22.4778165  82.5952449 111.8045271  21.9253523  83.0456599 113.1401125
  29.7191999  85.1081400 104.6929216  29.0679979  85.6935480 104.3063230
  30.5136362  85.6387595 104.7524253  23.6447627  82.1970537 105.0916350
  24.4178503  81.6499524 104.9529226  23.9973025  83.0614787 105.3030812
  25.4832669  83.5246919 118.2983250  25.1922535  84.4292550 118.1829916
  26.1189654  83.5663447 119.0127319  26.4088876  80.9023768 114.8884609
  27.0052448  80.6779790 114.1741572  26.4663848  80.1608513 115.4910057
  25.9813904  78.3563203 102.7234800  26.2339425  77.8344725 101.9618263
  25.0438464  78.1929349 102.8261484  31.0257187  77.3598982 110.5309543
  31.8120276  76.9418405 110.1799960  31.2895892  78.2645074 110.6991192
  31.1967265  82.7971832 105.2298200  30.5613098  82.8706459 105.9419105
  30.8664671  83.3865431 104.5517280  36.4265614  77.2974215 111.4342522
  37.1590786  76.7273432 111.6680351  35.6704970  76.9095815 111.8749028
  25.7010193  80.2591309 104.9259175  25.5846451  79.5836213 105.5940259
  25.8112453  79.7723683 104.1091328  28.0441734  79.7201456 108.6305864
  27.6799941  79.1932077 109.3418786  28.9008850  79.3299925 108.4572350
  33.9491035  71.0095789 115.8937131  33.6174360  71.8791200 115.6698346
  33.3536648  70.6932073 116.5731161  27.6847221  74.7491356 103.6267213
  27.8521623  75.6171592 103.9937684  27.4944390  74.9118638 102.7028502
  30.4422554  83.2108335 115.2933043  30.1423277  84.1133374 115.1848851
  30.0973614  82.9440518 116.1454196  23.8935036  79.6622132 111.3269748
  22.9685532  79.5298346 111.5347439  24.1419449  80.4416351 111.8239690
  33.8419698  75.7290875 112.9730481  32.9336575  75.6606284 112.6789242
  33.7907294  76.2062820 113.8012306  27.6636442  77.2049014 104.6113880
  27.5436067  77.6506064 105.4499360  26.9689030  77.5534331 104.0527418
  21.2543847  79.3055405 112.1613537  21.3836228  79.5589884 113.0752949
  20.5741298  79.8983113 111.8418192  25.4243334  89.9752655 108.2604011
  25.3467364  90.9260480 108.3392492  24.8204978  89.6298528 108.9178937
  27.9160564  77.1480521 120.9165378  27.1393898  77.7074441 120.9068243
  28.5551127  77.6337304 121.4380248  35.7081344  73.9307314 114.7508355
  35.0655725  74.2239847 114.1048149  35.2036273  73.8160234 115.5561551
  33.3621508  77.6770487 105.4394214  34.2739364  77.9097874 105.2641911
  32.8531155  78.2607531 104.8769292  26.1706936  79.9565974 120.4783345
  26.9121621  80.4951018 120.2018169  25.4643922  80.5832263 120.6354897
  31.6462276  82.0995115 119.0755506  32.0545632  81.6577525 118.3310139
  30.9239537  81.5247742 119.3289699  27.9993346  77.0367721 116.4489063
  28.8454541  77.4607135 116.5923712  27.9391983  76.3801346 117.1427626
  31.9691090  82.6596305 112.8307795  31.3399953  82.8242019 112.1283863
  31.5816753  83.0737915 113.6018759  35.8480322  83.5950743 110.1852159
  35.1631360  83.9749644 109.6349192  35.9324172  84.2046070 110.9184107
  31.1492791  74.6972090 118.1070237  30.9053723  75.4514150 117.5704513
  31.4252722  75.0757437 118.9417484  33.1031254  81.2410702 116.7847503
  33.3148149  81.8842462 116.1081884  33.0561002  80.4073019 116.3169433
  30.7057483  73.8528523 113.6884075  29.8441962  74.1509776 113.9800812
  30.7319918  74.0698922 112.7565107  27.5219052  82.3970713 110.0957880
  27.9857398  82.6758416 109.3062503  27.2575850  81.4954158 109.9130971
  24.4143133  81.9442195 113.0337644  24.9844490  82.3729463 112.3955128
  25.0051245  81.6624780 113.7321829  26.4587938  78.5193866 106.9047445
  27.1611982  78.9714909 107.3721372  26.1268567  77.8777685 107.5327339
  24.9068300  77.1105622 121.2798655  24.2766960  77.7921903 121.5134052
  24.8004388  76.9988704 120.3351793  20.2013272  76.7777418 112.2064579
  19.4112326  77.0334947 111.7304690  20.6924520  77.5925756 112.3116620
  34.2177082  84.1182658 114.9569860  35.0394526  83.7162845 114.6752542
  34.2139485  84.0150892 115.9085976  22.1528018  77.1421998 109.1648056
  21.3559181  77.2540692 109.6831551  21.9253610  77.4808650 108.2988946
  27.9833685  83.6666701 117.1130570  28.0478118  84.1287108 117.9488742
  27.2744609  83.0364066 117.2412880  18.4850975  77.0307909 114.6379570
  18.7359014  77.9154919 114.9037146  19.0210524  76.8512510 113.8654662
  42.3083075  80.4621406 111.3054831  41.5546783  79.8928804 111.1498836
  42.4430616  80.4284070 112.2525466  27.6981703  85.3334808 106.9809551
  27.5627378  86.1786344 107.4094399  28.2391515  85.5354086 106.2175485
  24.1849043  71.4126388 123.6423906  23.7915988  70.8592587 124.3171550
  25.0015183  71.7236967 124.0330423  21.1511100  82.8510246 107.5537476
  21.6635621  83.6453497 107.7043040  21.8033813  82.1536537 107.4871077
  22.9605985  85.9676003 109.6360229  23.1372613  86.8893967 109.4481213
  23.7562819  85.6534422 110.0654609  27.1017004  72.8284267 121.2344162
  27.8426717  73.4291420 121.1548625  27.3334926  72.0861905 120.6762205
  22.2458342  78.0140634 119.5122392  22.1311857  77.1125892 119.8129491
  21.3902859  78.2604331 119.1607209  29.3250179  85.9558375 121.1109893
  28.8814034  85.1694753 120.7930797  29.9867393  86.1437525 120.4453784
  24.0837301  87.4854176 115.6370571  24.6344726  87.3571240 114.8647565
  23.2448776  87.7849065 115.2865464  31.4231417  86.2361175 119.1391294
  31.4049893  87.0570056 118.6471563  32.3451337  86.1115250 119.3641435
  27.8804472  83.7505304 119.9814802  28.4132808  82.9893592 119.7514110
  27.3518553  83.4578956 120.7238957  31.0474167  68.8565370 115.5108444
  30.7038436  69.7467012 115.4347555  31.4153129  68.6667028 114.6478029
  19.1160017  81.1798901 108.3297046  19.9535239  81.5895909 108.1130754
  19.2938285  80.2398343 108.2997240  31.0124449  78.8473981 104.0180879
  30.4971073  79.6178586 104.2569267  30.7401758  78.1739117 104.6413941
  28.5971560  73.6923682 109.0766118  27.7413157  73.3030532 108.8971756
  29.0098512  73.7715643 108.2165903  30.1270707  71.2270025 113.4757677
  29.6235503  71.1900160 112.6625483  30.4201314  72.1362768 113.5354334
  26.3713593  71.3108755 112.4823859  27.2366590  71.1151564 112.1229749
  26.4391102  71.0819107 113.4093216  35.9858723  81.6006336 105.9534053
  35.2088166  81.2617495 105.5089215  36.6650204  81.6058959 105.2789018
  30.8010752  76.7201073 105.8440660  30.4960888  77.0347223 106.6950804
  31.7541195  76.7982493 105.8867993  29.2457184  82.8791297 107.4933614
  28.7178546  82.1444056 107.1806852  28.7444687  83.6565973 107.2473583
  34.2250030  81.0740317 112.6100661  33.5673705  81.7639579 112.6980789
  35.0290430  81.4636749 112.9534647  23.9775912  73.5410963 109.8540226
  24.5519664  73.3186144 109.1213419  24.5646894  73.6099657 110.6068827
  33.0355489  79.4284690 110.6604602  33.5487371  80.0614682 111.1626312
  33.6856713  78.8285885 110.2947963  24.3045499  75.5715424 103.8736111
  23.4682811  75.9090111 104.1945386  24.1650269  75.4364404 102.9363248
  26.2798580  70.4152212 108.5815295  25.6262992  70.1001229 107.9571910
  26.2379054  69.7927952 109.3075118  27.3909784  80.6971507 100.4968587
  26.4836846  80.4660760 100.6959736  27.8880816  79.9009126 100.6842569
  30.2977863  89.4069014 103.4165274  29.6239562  89.7100711 104.0250231
  30.6843685  90.2098094 103.0670731  29.5136320  76.9034145 112.9062943
  28.5958881  77.1249092 112.7484631  29.9296464  76.9780456 112.0474650
  30.2971368  78.3025561 108.0365623  31.0443187  78.8146958 107.7272745
  30.5662957  77.9809614 108.8970017  28.5698018  80.7984102 105.0192578
  27.6609237  80.5143135 105.1165047  28.5993102  81.2183180 104.1595884
  33.8017285  84.4090691 108.7883745  33.3479612  83.5681601 108.8448936
  33.1711252  85.0452090 109.1258525  32.7450205  75.3382677 110.0184413
  32.0072962  74.8260064 110.3494655  32.9976978  74.8983059 109.2067689
  32.2450225  86.2467188 109.7233563  32.5373199  86.8072245 109.0045929
  32.7548845  86.5395749 110.4786722  32.8461832  68.1158929 110.6126182
  33.1520709  67.2556293 110.3252097  33.5714437  68.7076550 110.4125176
  19.1386188  78.5189616 109.0007780  18.9410588  77.9258977 108.2758846
  18.5832852  78.2141826 109.7183719  27.1182912  78.4112722 111.1202373
  27.1731522  77.4586559 111.0444850  26.3074114  78.5672162 111.6043671
  28.2674106  82.3392845 102.3580656  27.8293536  81.6228704 101.8986293
  29.0084547  82.5668960 101.7965748  25.0575272  77.0289782 108.8792752
  24.2443137  77.3283953 109.2857944  25.5534266  76.6345471 109.5967234
  27.2083850  87.0247539 110.8127016  27.1660029  87.2508385 109.8835549
  28.1246549  86.7910914 110.9612818  30.6549484  77.4931607 117.7107646
  31.0098871  77.7203080 118.5702111  31.3021615  77.8249983 117.0884901
  36.3847220  80.6150043 108.4156975  36.2465119  80.8051638 107.4878164
  36.0283439  81.3769425 108.8725026  24.5489347  74.6008138 114.4953987
  25.1888726  74.4596897 113.7976950  23.7166877  74.3142651 114.1192589
  36.4116600  82.6826570 113.4268246  36.8453107  82.5901859 114.2751300
  37.1248181  82.6584070 112.7888262  25.3249651  83.9010568 110.6088979
  26.1190249  83.4060888 110.4071554  24.6141343  83.3728431 110.2456685
  30.1444495  86.2828664 114.9601347  30.1981517  86.8519600 115.7279063
  29.2759276  86.4530549 114.5955384  21.6332414  78.0453650 106.6848732
  20.7030002  77.9838105 106.9018694  21.7289886  77.5229603 105.8885373
  21.5517963  74.5708463 109.2726974  21.8124780  75.4853796 109.1636134
  22.3735135  74.1032905 109.4223586  23.0242888  75.9846220 116.4425798
  23.6965942  75.7763582 115.7938447  22.1972675  75.7868306 116.0031030
  37.2732150  82.7250270 115.9601132  37.4668040  83.6296081 116.2060407
  37.1732768  82.2657689 116.7939717  28.9268460  72.6108161 118.4591459
  28.2796375  73.3098110 118.3655935  29.6969476  73.0444305 118.8267707
  32.3347258  82.8757013 121.5342012  32.1832765  82.6467565 120.6172096
  32.3251938  83.8327614 121.5473357  29.1032595  80.4488926 116.5188279
  30.0324655  80.6000085 116.3457246  28.6823625  80.5372946 115.6636925
  27.9020927  84.4739590 114.2886816  27.7632012  84.1058374 115.1612754
  27.1135523  84.9887230 114.1170774  28.4969078  89.5748687 105.6312353
  28.6720834  89.1036730 106.4457976  27.8101867  90.2014453 105.8593614
  29.4526142  83.8521193 111.6775654  29.1175974  83.8121963 112.5733304
  28.9530087  83.1865909 111.2046064  23.4270386  79.2588823 117.2028235
  23.2890184  78.5269062 117.8039774  24.3375309  79.1697723 116.9212423
  32.3885333  81.1977227 101.9512714  31.7714504  80.4724055 101.8545766
  31.9201822  81.9586587 101.6079788  26.0552686  78.9708782 116.6911915
  26.7652305  78.3301974 116.6498533  26.0121994  79.2221677 117.6138096
  34.0439465  85.9076135 119.6118494  33.9852011  85.2235356 118.9449077
  34.4458983  86.6495125 119.1599120  24.7681620  75.9574000 118.5107554
  24.2318977  75.5064738 119.1629151  24.1798329  76.0919909 117.7678019
  23.0630164  92.7238049 112.4052213  23.3026762  93.3556573 113.0831232
  22.2199360  92.3726089 112.6917572  24.1783879  75.4162651 101.0734018
  23.3013346  75.2951452 100.7096265  24.6541632  74.6248730 100.8212907
  34.0456872  83.8715719 117.8432474  33.1583651  83.5341641 117.9658873
  34.6155423  83.1398751 118.0801239  15.6986019  80.2039811 111.1675525
  16.3857059  79.8901541 110.5796540  15.5434148  81.1081176 110.8942777
  20.5020742  75.0930008 115.5960549  20.4178930  74.4855677 114.8610959
  19.6803448  75.5839026 115.5970045  27.5758026  88.5317172 114.8093717
  27.5028197  89.3372143 115.3213022  27.1335419  88.7309138 113.9841738
  27.3647805  87.7688942 108.3196539  26.5815327  88.3110622 108.4134763
  28.0640550  88.2862921 108.7190780  30.6744455  73.5783571 110.9630744
  31.1713155  72.8253534 110.6431814  29.9031437  73.6147888 110.3973953
  38.5274213  79.2823937 112.6049035  38.5164089  80.1648652 112.2342969
  37.6591592  78.9295488 112.4103572  30.0356709  88.4304006 116.9651876
  30.7484681  89.0651471 116.8927777  29.5446738  88.5267872 116.1491877
  31.7574236  82.3355258 108.5369167  30.8230515  82.4556721 108.3673872
  31.9350905  81.4327725 108.2729177  27.2579424  75.7200954 110.6902429
  26.8877212  75.1671995 111.3783334  27.7538517  75.1159088 110.1377429
  35.1446787  78.1772578 109.0719201  35.6107240  79.0100569 108.9979504
  35.5954288  77.7117559 109.7764460  25.0868623  86.1798449 117.7857446
  25.7878082  86.8134932 117.9386841  24.6163738  86.5213181 117.0253086
  33.2123019  84.5216399 106.0705353  33.4882862  84.4072994 106.9799228
  32.3427517  84.1233884 106.0317527  33.1163450  70.5453165 113.1110103
  32.2026530  70.7757392 113.2792310  33.5456552  70.6291609 113.9624135
  32.8869909  78.7343057 115.6109997  32.2341359  78.9818964 114.9562450
  33.2650289  77.9207195 115.2772474  29.8477083  88.7702750 109.7138167
  30.0299477  87.9524406 110.1765919  30.6710069  88.9870442 109.2763057
  30.1819248  87.6970935 106.9753216  30.7107014  87.1863390 106.3623378
  30.4447468  87.3813465 107.8398749  28.9357482  79.4762868 122.0976034
  28.2598119  79.3756997 122.7678409  29.7585116  79.3202082 122.5612031
  20.6836341  85.7134804 114.7188549  21.2689778  84.9678492 114.8516453
  20.4861179  86.0238761 115.6025213  23.5374996  88.7486052 109.7350992
  22.8685371  89.2332179 109.2515032  23.3987866  88.9955272 110.6494370
  15.2753995  78.2840405 113.4392992  15.3138095  77.7503995 114.2330110
  14.7694288  77.7575610 112.8203969  27.6780265  90.7829795 116.3333650
  28.2298573  90.9461417 117.0982735  28.0186458  91.3734233 115.6613675
  22.6544758  73.1304945 116.9355535  22.7186084  73.9919776 116.5232932
  22.5911878  72.5178947 116.2027893  22.1297030  75.2028078 120.5828569
  22.7569069  74.8205155 121.1966093  21.2724949  74.9842280 120.9484261
  32.5291139  85.6091053 122.1882304  33.0731043  86.2221011 121.6937259
  31.9477984  86.1670631 122.7049317  18.9062573  77.0104507 106.5146924
  19.2016014  76.1015185 106.4613977  18.0050609  76.9892246 106.1927926
  30.8148652  88.7311771 113.3197332  30.6899791  87.9301511 112.8108278
  31.4727743  89.2257964 112.8311302  22.4356820  75.0860503 112.4974472
  21.7143406  75.6996471 112.3581946  23.2250076  75.6218268 112.4191118
  32.8783560  86.5320791 114.9476882  31.9313896  86.4126142 114.8755209
  33.2266333  85.6443289 115.0303144  25.2383134  72.4214930 118.7715124
  25.7617535  72.6677226 119.5341433  25.0195467  73.2534965 118.3518261
  20.6350415  74.6918604 106.6386249  20.3063121  73.8115983 106.4561355
  20.9889785  74.6366273 107.5262638  29.8829994  86.3273507 111.1481234
  29.7354956  85.3990214 111.3288804  30.7083487  86.3493598 110.6638310
  23.7492238  74.9791574 107.0061727  24.0888310  75.5077495 106.2840335
  24.1964358  75.3171980 107.7820293  33.4864115  87.1502066 112.2346107
  34.4110663  86.9444927 112.0970558  33.3179419  86.9018467 113.1435449
  26.4435679  73.3628625 116.4564795  26.1032499  72.5636438 116.8585474
  25.7374685  73.6630336 115.8841628  27.0952150  70.4477937 114.9092118
  27.9178220  69.9738415 114.7871008  27.3390214  71.2268421 115.4090804
  25.7360385  73.4766196 105.2055019  26.4568747  73.8547449 104.7018736
  25.1125689  74.1955073 105.3089997  29.8791508  74.1811345 106.1413352
  30.0955122  75.0635983 105.8402180  29.3985575  73.7897558 105.4118994
  24.6190729  77.1397058 112.7184096  24.4735310  77.4537361 113.6108378
  24.1415933  77.7581958 112.1654995  26.4787112  74.1299606 112.7664986
  26.4648681  73.2340699 112.4297284  27.1959540  74.1370270 113.4003272
  28.3313243  74.5636946 114.8118113  28.0731021  75.4854017 114.8102444
  27.7998283  74.1667381 115.5018577  33.2759432  87.6687733 107.5908199
  33.4496309  87.1034156 106.8382051  33.7688323  88.4688628 107.4087689
  19.0936391  79.6802402 115.6571757  18.5489859  80.4562210 115.7892032
  19.9715741  80.0273207 115.4990879  25.8824008  73.0113986 108.0352556
  26.0039919  72.0830632 108.2343443  25.5926050  73.0252672 107.1230871
  28.7515198  70.6968897 111.1719276  28.7736895  70.7608230 110.2171255
  29.1683257  69.8573405 111.3659782  39.1298823  80.4324156 109.2098498
  39.5729969  79.6831481 108.8117622  38.2525333  80.4234293 108.8272230
  34.2634604  86.9854498 104.6905097  34.9585509  87.6061190 104.9092411
  34.6057754  86.1349849 104.9657475  19.8802413  78.8072299 118.5501914
  19.1384149  78.9554934 119.1366545  19.5595158  79.0680564 117.6868664
  36.1626027  84.4354203 106.2192428  36.6877351  84.7741476 105.4941748
  36.0748380  83.5001218 106.0355562  27.8246076  88.3488277 118.3482304
  28.1333202  88.1037424 119.2205004  28.6221558  88.5534915 117.8601174
  27.8466688  90.5026186 110.5787681  27.4071678  90.0102565 111.2720538
  28.5974805  89.9599154 110.3379756  20.3259027  86.6937727 110.5812309
  21.1517047  86.3941499 110.2010952  19.9753079  85.9245350 111.0302098
  25.2940560  86.0464196 112.6509982  24.6720569  85.3834901 112.3512210
  25.9645427  86.0725327 111.9683630  18.5267632  84.6124054 111.5401242
  17.6899540  84.1846228 111.3585244  18.4991277  84.8056497 112.4772034
  25.3665088  74.5245984 122.2442489  25.4153243  75.4008106 121.8620258
  25.9087602  73.9823377 121.6714132  35.8519933  85.0687107 121.5243626
  35.0615477  85.0511246 120.9848125  35.6153288  85.6075400 122.2792662
  35.9717808  81.9179573 118.8376354  36.0215813  81.7529581 119.7791877
  35.8631732  81.0506832 118.4474235  24.8554067  84.5968119 106.1268443
  25.0042187  85.2803583 105.4735116  25.6620510  84.5773209 106.6417899
  33.2621571  77.9010501 120.1535661  34.1631433  77.7616966 119.8619659
  33.3369545  78.0664956 121.0933838  27.5964376  75.2777356 118.9988847
  26.7267685  75.5710922 118.7271436  27.8323856  75.8617801 119.7196111
  37.4736005  84.3376515 119.0818376  37.1820813  84.7006495 119.9181837
  36.8608136  83.6243523 118.9031708  38.6731687  81.9029394 111.6020946
  39.5078579  82.3419199 111.7658506  38.8090816  81.4268048 110.7829192
  35.7223193  79.4609129 117.5498434  36.1977315  79.6536776 116.7417285
  34.7988759  79.5168315 117.3041817  22.6106700  80.6233297 107.1329512
  22.3652742  79.7195627 107.3309722  22.7802615  80.6250447 106.1908990
  30.3003410  71.4956973 116.5154268  30.8185354  72.2318000 116.1900756
  29.9458543  71.8020966 117.3501027  21.8802347  76.3561654 104.6315673
  21.1871592  76.4306009 103.9755709  21.6354099  75.5921998 105.1537190
  30.5516004  67.9157255 112.0355164  30.8317758  67.2480444 112.6615591
  31.3366611  68.1086351 111.5229828  28.3549473  87.0916249 103.5980190
  27.7823440  87.7106436 103.1450662  28.9282266  87.6415611 104.1320112
  34.4224862  76.3374889 115.7826739  35.3742285  76.4372987 115.8038963
  34.2528313  75.5453158 116.2924824  32.4439242  73.4230473 115.9686140
  31.8489174  73.7035485 115.2732629  32.1588939  73.9124374 116.7402881
  31.5746732  87.3753399 104.7288773  32.5077405  87.3098961 104.9321648
  31.4869945  88.2109666 104.2703305  34.2034749  86.6919270 101.6892720
  34.1248380  86.3579133 102.5828478  35.0244416  87.1841038 101.6884193
  36.9012940  79.5581009 114.8969039  36.8689260  78.6197010 115.0828723
  37.5113564  79.6365046 114.1634864  28.7396271  78.4277062 100.9396243
  29.6855376  78.2983270 101.0084661  28.3610516  77.6891724 101.4165671
  37.0507429  76.3492053 114.9427322  36.5346477  75.5650509 114.7557251
  37.9347377  76.0210769 115.1073842  34.7118156  70.0933068 110.9023135
  34.5142977  69.7848156 111.7866467  35.3217861  70.8194707 111.0321065
  42.7189490  80.6197016 114.0375076  43.4492878  80.3582304 114.5982779
  42.1096435  79.8825738 114.0777144  40.8004787  78.7604879 114.6349527
  40.0737951  78.6260843 114.0266018  40.3852074  79.0681707 115.4406245
  28.6234964  82.4794808 122.3996900  29.5437973  82.6573407 122.5936946
  28.5884547  81.5350854 122.2476599  26.9239188  76.3527038 100.8751128
  26.0170644  76.0560151 100.9513842  27.2015169  76.0556857 100.0085414
  17.8417129  77.6733402 111.3250175  17.5219913  76.8198710 111.0324549
  17.2950557  77.8881980 112.0808142  21.6197036  80.3895843 115.0419681
  21.8383046  81.3212951 115.0607715  22.0322810  80.0303817 115.8274485
  28.5401254  70.8963928 107.0295369  27.7301982  70.5511013 107.4050616
  29.2285671  70.5871472 107.6182981  30.4691802  69.9741975 108.6519666
  31.0222841  70.3937428 109.3109689  30.7061889  69.0477723 108.6942622
  26.4924901  75.9629049 124.4322430  26.3921628  76.9123406 124.3634521
  26.2746443  75.6347288 123.5598500  25.6937973  73.2113974 101.0163107
  26.5557137  73.5368872 101.2758925  25.8788317  72.4245470 100.5036173
  17.7105389  81.2936313 113.2943296  17.0168860  80.8790266 112.7813251
  18.4578380  81.3356850 112.6976715  33.8470609  72.0842500 108.1598330
  33.2669278  72.7427304 107.7776383  33.5806542  71.2619845 107.7485748
  32.2974176  71.4847558 110.3619651  32.7973954  71.5964092 109.5533970
  32.9409784  71.1808611 111.0020459  26.3556171  79.3926187 123.2487492
  25.8723253  80.1926548 123.4551381  26.4417111  79.4034132 122.2954936
  19.6242131  81.2254567 111.1709311  19.6012819  81.3242254 110.2191194
  19.9342768  82.0719718 111.4926477  22.2829509  83.2830722 115.2855925
  23.2372763  83.2514665 115.2185857  22.0842033  82.8221346 116.1006151
  22.8728891  81.8531838 117.8526723  23.6921780  82.3475917 117.8761560
  23.1465699  80.9363806 117.8244291  32.6295487  74.2442591 107.2154679
  31.7421342  74.5292241 106.9974873  33.0449476  74.0836354 106.3681956
  35.9810023  74.2689112 110.9309018  36.7570414  74.7585564 111.2033635
  35.2558158  74.6947166 111.3880887  38.4182582  74.9816731 111.9882959
  39.0127073  74.7412467 111.2776267  38.4909166  74.2623861 112.6156495
  20.6379738  88.8250342 112.3026123  20.5034206  88.0650743 111.7364121
  20.2211800  89.5491242 111.8354912  31.7738701  84.0087265 101.3102699
  32.4774551  84.2137268 101.9260354  31.0501350  84.5764027 101.5751782
  32.6036511  79.7597126 107.4304969  32.5471712  80.2165678 106.5912601
  33.1564853  78.9987811 107.2527812  36.4141317  75.5486858 108.2555088
  36.1578251  75.1483494 109.0863296  35.7894185  76.2630652 108.1305227
  40.7253655  78.2882932 110.7626380  40.1653213  78.3576121 111.5357942
  40.1197158  78.1123916 110.0425876  23.7948864  89.7219659 112.5144566
  23.6781248  90.6665091 112.4123256  22.9741310  89.4193220 112.9030365
  33.6825398  84.4469794 103.3601159  34.5171002  84.0150993 103.1778633
  33.5209741  84.2751808 104.2878053  33.3371290  80.9501908 104.7257498
  33.2820094  80.7846179 103.7845942  32.7117346  81.6577941 104.8819688
  18.1263805  76.1869972 118.5518920  18.7722669  75.6768926 119.0406145
  17.9180956  76.9238654 119.1262345  30.6517198  83.2550820 124.0511061
  31.5208357  83.4291472 123.6897696  30.1723949  84.0745236 123.9286790
  26.6467416  70.4510017 104.3042816  26.6346086  71.3951857 104.4611087
  27.5390838  70.2680162 104.0102278  24.8203378  90.3747921 115.7300494
  25.7230624  90.4071531 116.0466989  24.5940748  89.4448372 115.7446830
  26.5756980  89.1278907 112.3910573  25.6252611  89.1280769 112.2774945
  26.8789466  88.3811642 111.8746608  30.4619535  67.0452793 108.5588753
  29.6951931  66.4911280 108.7045436  30.8730240  67.1174662 109.4202905
  22.4661296  73.3337589 122.6493934  23.3292758  72.9774394 122.8597259
  21.8926707  72.9951484 123.3369339  42.3109673  94.9639446 113.4556335
  42.9488083  94.8446193 112.7519675  42.1930516  95.9120289 113.5144288
  39.1199380  94.9166874 113.3917860  38.7817891  94.8007938 112.5038395
  39.9889148  94.5158039 113.3718866  34.9786195  96.7702350 109.3814751
  34.4151060  96.6792287 108.6131039  34.8638590  95.9502254 109.8617244
  39.6019163  96.0701725 119.3504066  39.5907803  95.6754524 118.4784569
  39.7639802  95.3367798 119.9437837  32.5250627  98.2653542 112.2198972
  33.3171919  97.9244366 111.8045271  32.7647277  98.3748517 113.1401125
  34.4841381  97.5262455 105.0916350  35.2572257  96.9791442 104.9529226
  34.8366780  98.3906704 105.3030812  36.3226424  98.8538837 118.2983250
  36.0316290  99.7584468 118.1829916  36.9583408  98.8955365 119.0127319
  37.2482631  96.2315686 114.8884609  37.8446203  96.0071708 114.1741572
  37.3057602  95.4900431 115.4910057  36.8207659  93.6855121 102.7234800
  37.0733180  93.1636642 101.9618263  35.8832218  93.5221266 102.8261484
  41.8650942  92.6890899 110.5309543  42.6514031  92.2710323 110.1799960
  42.1289646  93.5936992 110.6991192  47.2659369  92.6266133 111.4342522
  47.9984541  92.0565349 111.6680351  46.5098725  92.2387733 111.8749028
  36.5403948  95.5883227 104.9259175  36.4240206  94.9128130 105.5940259
  36.6506208  95.1015601 104.1091328  38.8835489  95.0493374 108.6305864
  38.5193696  94.5223995 109.3418786  39.7402605  94.6591843 108.4572350
  44.7884789  86.3387707 115.8937131  44.4568114  87.2083118 115.6698346
  44.1930403  86.0223991 116.5731161  38.5240976  90.0783274 103.6267213
  38.6915378  90.9463510 103.9937684  38.3338145  90.2410555 102.7028502
  41.2816309  98.5400253 115.2933043  40.9817032  99.4425291 115.1848851
  40.9367368  98.2732436 116.1454196  34.7328790  94.9914049 111.3269748
  33.8079287  94.8590264 111.5347439  34.9813203  95.7708269 111.8239690
  44.6813453  91.0582793 112.9730481  43.7730330  90.9898201 112.6789242
  44.6301048  91.5354738 113.8012306  38.5030196  92.5340931 104.6113880
  38.3829822  92.9797982 105.4499360  37.8082785  92.8826249 104.0527418
  32.0937601  94.6347323 112.1613537  32.2229982  94.8881802 113.0752949
  31.4135053  95.2275031 111.8418192  36.2637089 105.3044573 108.2604011
  36.1861118 106.2552398 108.3392492  35.6598732 104.9590446 108.9178937
  38.7554318  92.4772438 120.9165378  37.9787652  93.0366359 120.9068243
  39.3944881  92.9629221 121.4380248  46.5475099  89.2599231 114.7508355
  45.9049479  89.5531764 114.1048149  46.0430027  89.1452152 115.5561551
  37.0100691  95.2857892 120.4783345  37.7515375  95.8242936 120.2018169
  36.3037676  95.9124181 120.6354897  42.4856030  97.4287032 119.0755506
  42.8939386  96.9869443 118.3310139  41.7633292  96.8539660 119.3289699
  38.8387100  92.3659639 116.4489063  39.6848296  92.7899053 116.5923712
  38.7785738  91.7093263 117.1427626  42.8084845  97.9888223 112.8307795
  42.1793707  98.1533937 112.1283863  42.4210507  98.4029832 113.6018759
  41.9886546  90.0264007 118.1070237  41.7447478  90.7806068 117.5704513
  42.2646476  90.4049355 118.9417484  43.9425008  96.5702620 116.7847503
  44.1541904  97.2134380 116.1081884  43.8954757  95.7364936 116.3169433
  41.5451237  89.1820440 113.6884075  40.6835716  89.4801694 113.9800812
  41.5713672  89.3990839 112.7565107  38.3612807  97.7262631 110.0957880
  38.8251152  98.0050334 109.3062503  38.0969605  96.8246076 109.9130971
  35.2536888  97.2734113 113.0337644  35.8238245  97.7021381 112.3955128
  35.8445000  96.9916697 113.7321829  37.2981693  93.8485783 106.9047445
  38.0005736  94.3006827 107.3721372  36.9662321  93.2069602 107.5327339
  35.7462054  92.4397540 121.2798655  35.1160715  93.1213821 121.5134052
  35.6398142  92.3280622 120.3351793  31.0407027  92.1069336 112.2064579
  30.2506081  92.3626865 111.7304690  31.5318274  92.9217674 112.3116620
  45.0570836  99.4474575 114.9569860  45.8788280  99.0454762 114.6752542
  45.0533239  99.3442809 115.9085976  32.9921772  92.4713915 109.1648056
  32.1952935  92.5832609 109.6831551  32.7647364  92.8100567 108.2988946
  38.8227440  98.9958618 117.1130570  38.8871872  99.4579026 117.9488742
  38.1138364  98.3655983 117.2412880  29.3244730  92.3599826 114.6379570
  29.5752768  93.2446836 114.9037146  29.8604278  92.1804428 113.8654662
  38.5375457 100.6626726 106.9809551  38.4021132 101.5078262 107.4094399
  39.0785270 100.8646004 106.2175485  35.0242797  86.7418306 123.6423906
  34.6309743  86.1884504 124.3171550  35.8408937  87.0528884 124.0330423
  31.9904855  98.1802164 107.5537476  32.5029375  98.9745414 107.7043040
  32.6427568  97.4828454 107.4871077  33.7999740 101.2967920 109.6360229
  33.9766368 102.2185885 109.4481213  34.5956573 100.9826339 110.0654609
  37.9410758  88.1576185 121.2344162  38.6820471  88.7583338 121.1548625
  38.1728681  87.4153823 120.6762205  33.0852096  93.3432552 119.5122392
  32.9705611  92.4417809 119.8129491  32.2296614  93.5896249 119.1607209
  40.1643934 101.2850292 121.1109893  39.7207788 100.4986671 120.7930797
  40.8261147 101.4729443 120.4453784  34.9231055 102.8146094 115.6370571
  35.4738480 102.6863157 114.8647565  34.0842531 103.1140983 115.2865464
  42.2625172 101.5653092 119.1391294  42.2443647 102.3861973 118.6471563
  43.1845092 101.4407168 119.3641435  38.7198226  99.0797222 119.9814802
  39.2526563  98.3185510 119.7514110  38.1912307  98.7870874 120.7238957
  41.8867921  84.1857288 115.5108444  41.5432190  85.0758930 115.4347555
  42.2546884  83.9958945 114.6478029  29.9553772  96.5090818 108.3297046
  30.7928994  96.9187827 108.1130754  30.1332039  95.5690260 108.2997240
  39.4365315  89.0215600 109.0766118  38.5806911  88.6322450 108.8971756
  39.8492267  89.1007561 108.2165903  40.9664461  86.5561943 113.4757677
  40.4629257  86.5192078 112.6625483  41.2595068  87.4654686 113.5354334
  37.2107347  86.6400673 112.4823859  38.0760344  86.4443481 112.1229749
  37.2784856  86.4111024 113.4093216  41.6404507  92.0492991 105.8440660
  41.3354642  92.3639140 106.6950804  42.5934949  92.1274411 105.8867993
  40.0850939  98.2083214 107.4933614  39.5572300  97.4735974 107.1806852
  39.5838441  98.9857891 107.2473583  34.8169666  88.8702881 109.8540226
  35.3913418  88.6478062 109.1213419  35.4040649  88.9391575 110.6068827
  43.8749244  94.7576608 110.6604602  44.3881125  95.3906599 111.1626312
  44.5250467  94.1577803 110.2947963  35.1439253  90.9007342 103.8736111
  34.3076566  91.2382028 104.1945386  35.0044023  90.7656321 102.9363248
  37.1192334  85.7444130 108.5815295  36.4656746  85.4293147 107.9571910
  37.0772808  85.1219870 109.3075118  38.2303539  96.0263425 100.4968587
  37.3230601  95.7952678 100.6959736  38.7274571  95.2301044 100.6842569
  40.3530074  92.2326063 112.9062943  39.4352636  92.4541010 112.7484631
  40.7690218  92.3072374 112.0474650  41.1365122  93.6317479 108.0365623
  41.8836941  94.1438876 107.7272745  41.4056712  93.3101531 108.8970017
  43.5843959  90.6674595 110.0184413  42.8466716  90.1551981 110.3494655
  43.8370733  90.2274977 109.2067689  43.0843979 101.5759106 109.7233563
  43.3766953 102.1364163 109.0045929  43.5942600 101.8687667 110.4786722
  43.6855587  83.4450847 110.6126182  43.9914463  82.5848210 110.3252097
  44.4108192  84.0368467 110.4125176  29.9779943  93.8481534 109.0007780
  29.7804343  93.2550894 108.2758846  29.4226607  93.5433744 109.7183719
  37.9576666  93.7404640 111.1202373  38.0125276  92.7878476 111.0444850
  37.1467868  93.8964079 111.6043671  35.8969026  92.3581700 108.8792752
  35.0836892  92.6575870 109.2857944  36.3928021  91.9637389 109.5967234
  38.0477604 102.3539457 110.8127016  38.0053783 102.5800303 109.8835549
  38.9640303 102.1202831 110.9612818  41.4943238  92.8223524 117.7107646
  41.8492626  93.0494997 118.5702111  42.1415369  93.1541901 117.0884901
  35.3883101  89.9300055 114.4953987  36.0282480  89.7888814 113.7976950
  34.5560632  89.6434569 114.1192589  47.2510355  98.0118487 113.4268246
  47.6846861  97.9193776 114.2751300  47.9641935  97.9875988 112.7888262
  36.1643405  99.2302486 110.6088979  36.9584004  98.7352806 110.4071554
  35.4535097  98.7020349 110.2456685  40.9838249 101.6120581 114.9601347
  41.0375272 102.1811518 115.7279063  40.1153031 101.7822466 114.5955384
  32.4726168  93.3745568 106.6848732  31.5423757  93.3130023 106.9018694
  32.5683640  92.8521520 105.8885373  32.3911718  89.9000380 109.2726974
  32.6518535  90.8145714 109.1636134  33.2128890  89.4324823 109.4223586
  33.8636643  91.3138138 116.4425798  34.5359696  91.1055500 115.7938447
  33.0366429  91.1160224 116.0031030  48.1125904  98.0542188 115.9601132
  48.3061794  98.9587998 116.2060407  48.0126522  97.5949607 116.7939717
  39.7662215  87.9400078 118.4591459  39.1190130  88.6390028 118.3655935
  40.5363230  88.3736222 118.8267707  43.1741013  98.2048931 121.5342012
  43.0226519  97.9759482 120.6172096  43.1645692  99.1619532 121.5473357
  39.9426349  95.7780843 116.5188279  40.8718409  95.9292003 116.3457246
  39.5217379  95.8664864 115.6636925  38.7414681  99.8031508 114.2886816
  38.6025767  99.4350292 115.1612754  37.9529277 100.3179147 114.1170774
  39.3362833 104.9040604 105.6312353  39.5114589 104.4328647 106.4457976
  38.6495621 105.5306370 105.8593614  40.2919896  99.1813110 111.6775654
  39.9569729  99.1413880 112.5733304  39.7923842  98.5157826 111.2046064
  34.2664140  94.5880740 117.2028235  34.1283938  93.8560979 117.8039774
  35.1769064  94.4989641 116.9212423  36.8946441  94.3000700 116.6911915
  37.6046059  93.6593892 116.6498533  36.8515749  94.5513595 117.6138096
  44.8833219 101.2368053 119.6118494  44.8245766 100.5527273 118.9449077
  45.2852738 101.9787043 119.1599120  35.6075375  91.2865918 118.5107554
  35.0712732  90.8356656 119.1629151  35.0192083  91.4211827 117.7678019
  33.9023918 108.0529967 112.4052213  34.1420516 108.6848491 113.0831232
  33.0593115 107.7018007 112.6917572  35.0177634  90.7454569 101.0734018
  34.1407100  90.6243370 100.7096265  35.4935387  89.9540647 100.8212907
  44.8850627  99.2007637 117.8432474  43.9977405  98.8633559 117.9658873
  45.4549178  98.4690668 118.0801239  26.5379774  95.5331729 111.1675525
  27.2250814  95.2193459 110.5796540  26.3827903  96.4373093 110.8942777
  31.3414496  90.4221925 115.5960549  31.2572685  89.8147595 114.8610959
  30.5197202  90.9130944 115.5970045  38.4151780 103.8609089 114.8093717
  38.3421952 104.6664061 115.3213022  37.9729173 104.0601055 113.9841738
  38.2041560 103.0980859 108.3196539  37.4209082 103.6402540 108.4134763
  38.9034305 103.6154839 108.7190780  41.5138210  88.9075489 110.9630744
  42.0106909  88.1545451 110.6431814  40.7425191  88.9439806 110.3973953
  40.8750464 103.7595923 116.9651876  41.5878436 104.3943388 116.8927777
  40.3840492 103.8559789 116.1491877  42.5967991  97.6647176 108.5369167
  41.6624269  97.7848639 108.3673872  42.7744659  96.7619643 108.2729177
  38.0973179  91.0492872 110.6902429  37.7270966  90.4963912 111.3783334
  38.5932271  90.4451005 110.1377429  35.9262377 101.5090367 117.7857446
  36.6271837 102.1426850 117.9386841  35.4557492 101.8505098 117.0253086
  43.9557205  85.8745082 113.1110103  43.0420284  86.1049309 113.2792310
  44.3850306  85.9583526 113.9624135  43.7263663  94.0634974 115.6109997
  43.0735113  94.3110882 114.9562450  44.1044043  93.2499113 115.2772474
  40.6870837 104.0994668 109.7138167  40.8693232 103.2816323 110.1765919
  41.5103823 104.3162360 109.2763057  41.0213003 103.0262853 106.9753216
  41.5500769 102.5155307 106.3623378  41.2841222 102.7105383 107.8398749
  39.7751236  94.8054785 122.0976034  39.0991873  94.7048915 122.7678409
  40.5978870  94.6493999 122.5612031  31.5230095 101.0426722 114.7188549
  32.1083532 100.2970410 114.8516453  31.3254934 101.3530679 115.6025213
  34.3768750 104.0777969 109.7350992  33.7079126 104.5624097 109.2515032
  34.2381620 104.3247190 110.6494370  26.1147750  93.6132322 113.4392992
  26.1531849  93.0795913 114.2330110  25.6088043  93.0867528 112.8203969
  38.5174019 106.1121713 116.3333650  39.0692327 106.2753334 117.0982735
  38.8580213 106.7026151 115.6613675  33.4938512  88.4596863 116.9355535
  33.5579839  89.3211694 116.5232932  33.4305633  87.8470864 116.2027893
  32.9690785  90.5319995 120.5828569  33.5962824  90.1497073 121.1966093
  32.1118704  90.3134197 120.9484261  43.3684893 100.9382970 122.1882304
  43.9124797 101.5512929 121.6937259  42.7871738 101.4962549 122.7049317
  29.7456328  92.3396424 106.5146924  30.0409769  91.4307103 106.4613977
  28.8444363  92.3184164 106.1927926  41.6542406 104.0603688 113.3197332
  41.5293546 103.2593428 112.8108278  42.3121497 104.5549882 112.8311302
  33.2750575  90.4152421 112.4974472  32.5537160  91.0288389 112.3581946
  34.0643830  90.9510186 112.4191118  43.7177315 101.8612709 114.9476882
  42.7707650 101.7418060 114.8755209  44.0660088 100.9735207 115.0303144
  36.0776888  87.7506847 118.7715124  36.6011290  87.9969144 119.5341433
  35.8589221  88.5826882 118.3518261  31.4744169  90.0210522 106.6386249
  31.1456875  89.1407901 106.4561355  31.8283540  89.9658191 107.5262638
  40.7223748 101.6565425 111.1481234  40.5748710 100.7282132 111.3288804
  41.5477242 101.6785515 110.6638310  34.5885992  90.3083492 107.0061727
  34.9282065  90.8369413 106.2840335  35.0358113  90.6463898 107.7820293
  37.2829433  88.6920543 116.4564795  36.9426253  87.8928356 116.8585474
  36.5768439  88.9922253 115.8841628  37.9345905  85.7769855 114.9092118
  38.7571974  85.3030333 114.7871008  38.1783968  86.5560339 115.4090804
  36.5754139  88.8058113 105.2055019  37.2962502  89.1839366 104.7018736
  35.9519444  89.5246990 105.3089997  35.4584484  92.4688976 112.7184096
  35.3129064  92.7829279 113.6108378  34.9809687  93.0873876 112.1654995
  37.3180867  89.4591524 112.7664986  37.3042435  88.5632617 112.4297284
  38.0353295  89.4662187 113.4003272  39.1706997  89.8928864 114.8118113
  38.9124775  90.8145934 114.8102444  38.6392038  89.4959298 115.5018577
  29.9330146  95.0094320 115.6571757  29.3883614  95.7854128 115.7892032
  30.8109496  95.3565124 115.4990879  36.7217763  88.3405904 108.0352556
  36.8433674  87.4122550 108.2343443  36.4319805  88.3544590 107.1230871
  39.5908953  86.0260814 111.1719276  39.6130650  86.0900147 110.2171255
  40.0077012  85.1865323 111.3659782  30.7196168  94.1364216 118.5501914
  29.9777904  94.2846852 119.1366545  30.3988912  94.3972482 117.6868664
  38.6639830 103.6780194 118.3482304  38.9726957 103.4329341 119.2205004
  39.4615312 103.8826833 117.8601174  38.6860442 105.8318104 110.5787681
  38.2465433 105.3394483 111.2720538  39.4368559 105.2891072 110.3379756
  31.1652781 102.0229645 110.5812309  31.9910801 101.7233417 110.2010952
  30.8146833 101.2537267 111.0302098  36.1334315 101.3756113 112.6509982
  35.5114324 100.7126818 112.3512210  36.8039181 101.4017245 111.9683630
  29.3661386  99.9415971 111.5401242  28.5293295  99.5138146 111.3585244
  29.3385032 100.1348415 112.4772034  36.2058842  89.8537901 122.2442489
  36.2546998  90.7300024 121.8620258  36.7481356  89.3115294 121.6714132
  46.6913688 100.3979024 121.5243626  45.9009231 100.3803163 120.9848125
  46.4547042 100.9367318 122.2792662  46.8111563  97.2471491 118.8376354
  46.8609568  97.0821498 119.7791877  46.7025486  96.3798750 118.4474235
  35.6947821  99.9260037 106.1268443  35.8435942 100.6095501 105.4735116
  36.5014265  99.9065127 106.6417899  44.1015325  93.2302419 120.1535661
  45.0025188  93.0908884 119.8619659  44.1763300  93.3956874 121.0933838
  38.4358130  90.6069274 118.9988847  37.5661440  90.9002840 118.7271436
  38.6717611  91.1909719 119.7196111  48.3129760  99.6668432 119.0818376
  48.0214568 100.0298413 119.9181837  47.7001891  98.9535441 118.9031708
  46.5616948  94.7901047 117.5498434  47.0371069  94.9828693 116.7417285
  45.6382513  94.8460233 117.3041817  33.4500454  95.9525214 107.1329512
  33.2046496  95.0487544 107.3309722  33.6196369  95.9542365 106.1908990
  41.1397164  86.8248891 116.5154268  41.6579108  87.5609917 116.1900756
  40.7852297  87.1312884 117.3501027  32.7196102  91.6853572 104.6315673
  32.0265347  91.7597927 103.9755709  32.4747854  90.9213915 105.1537190
  41.3909758  83.2449173 112.0355164  41.6711512  82.5772362 112.6615591
  42.1760365  83.4378269 111.5229828  45.2618617  91.6666807 115.7826739
  46.2136040  91.7664905 115.8038963  45.0922067  90.8745076 116.2924824
  43.2832996  88.7522390 115.9686140  42.6882928  89.0327403 115.2732629
  42.9982693  89.2416291 116.7402881  47.7406695  94.8872927 114.8969039
  47.7083015  93.9488928 115.0828723  48.3507318  94.9656963 114.1634864
  47.8901183  91.6783970 114.9427322  47.3740232  90.8942427 114.7557251
  48.7741132  91.3502687 115.1073842  45.5511910  85.4224986 110.9023135
  45.3536731  85.1140074 111.7866467  46.1611616  86.1486625 111.0321065
  53.5583244  95.9488934 114.0375076  54.2886633  95.6874222 114.5982779
  52.9490190  95.2117656 114.0777144  51.6398542  94.0896796 114.6349527
  50.9131705  93.9552761 114.0266018  51.2245828  94.3973625 115.4406245
  39.4628718  97.8086726 122.3996900  40.3831727  97.9865325 122.5936946
  39.4278301  96.8642771 122.2476599  37.7632943  91.6818956 100.8751128
  36.8564398  91.3852069 100.9513842  38.0408924  91.3848774 100.0085414
  28.6810883  93.0025320 111.3250175  28.3613667  92.1490628 111.0324549
  28.1344311  93.2173898 112.0808142  32.4590791  95.7187761 115.0419681
  32.6776800  96.6504868 115.0607715  32.8716564  95.3595735 115.8274485
  39.3795008  86.2255846 107.0295369  38.5695737  85.8802931 107.4050616
  40.0679425  85.9163390 107.6182981  37.3318656  91.2920966 124.4322430
  37.2315383  92.2415323 124.3634521  37.1140198  90.9639205 123.5598500
  36.5331727  88.5405891 101.0163107  37.3950891  88.8660790 101.2758925
  36.7182071  87.7537387 100.5036173  28.5499143  96.6228231 113.2943296
  27.8562614  96.2082184 112.7813251  29.2972134  96.6648768 112.6976715
  43.1367930  86.8139476 110.3619651  43.6367708  86.9256010 109.5533970
  43.7803538  86.5100528 111.0020459  37.1949926  94.7218105 123.2487492
  36.7117008  95.5218465 123.4551381  37.2810865  94.7326050 122.2954936
  30.4635886  96.5546485 111.1709311  30.4406574  96.6534172 110.2191194
  30.7736522  97.4011636 111.4926477  33.1223263  98.6122640 115.2855925
  34.0766517  98.5806582 115.2185857  32.9235787  98.1513264 116.1006151
  33.7122646  97.1823756 117.8526723  34.5315535  97.6767835 117.8761560
  33.9859453  96.2655724 117.8244291  46.8203778  89.5981029 110.9309018
  47.5964168  90.0877482 111.2033635  46.0951912  90.0239083 111.3880887
  31.4773492 104.1542259 112.3026123  31.3427960 103.3942660 111.7364121
  31.0605554 104.8783159 111.8354912  34.6342618 105.0511576 112.5144566
  34.5175002 105.9957009 112.4123256  33.8135064 104.7485138 112.9030365
  28.9657560  91.5161890 118.5518920  29.6116423  91.0060844 119.0406145
  28.7574711  92.2530571 119.1262345  41.4910952  98.5842737 124.0511061
  42.3602112  98.7583390 123.6897696  41.0117703  99.4037154 123.9286790
  37.4861170  85.7801934 104.3042816  37.4739840  86.7243774 104.4611087
  38.3784592  85.5972080 104.0102278  35.6597132 105.7039838 115.7300494
  36.5624379 105.7363449 116.0466989  35.4334502 104.7740289 115.7446830
  37.4150734 104.4570825 112.3910573  36.4646365 104.4572686 112.2774945
  37.7183220 103.7103559 111.8746608  41.3013290  82.3744711 108.5588753
  40.5345686  81.8203198 108.7045436  41.7123995  82.4466580 109.4202905
  33.3055051  88.6629507 122.6493934  34.1686512  88.3066312 122.8597259
  32.7320461  88.3243402 123.3369339  45.8179950 112.0994268 109.3814751
  45.2544815 112.0084205 108.6131039  45.7032345 111.2794172 109.8617244
  50.4412917 111.3993643 119.3504066  50.4301558 111.0046441 118.4784569
  50.6033556 110.6659716 119.9437837  43.3644382 113.5945459 112.2198972
  44.1565674 113.2536284 111.8045271  43.6041032 113.7040434 113.1401125
  51.3979508 115.7665235 104.6929216  50.7467488 116.3519316 104.3063230
  52.1923871 116.2971430 104.7524253  47.1620178 114.1830755 118.2983250
  46.8710044 115.0876386 118.1829916  47.7977163 114.2247282 119.0127319
  48.0876385 111.5607603 114.8884609  48.6839957 111.3363626 114.1741572
  48.1451357 110.8192349 115.4910057  52.1210063 113.8692170 115.2933043
  51.8210786 114.7717209 115.1848851  51.7761123 113.6024354 116.1454196
  45.5722545 110.3205967 111.3269748  44.6473041 110.1882181 111.5347439
  45.8206958 111.1000186 111.8239690  42.9331356 109.9639241 112.1613537
  43.0623737 110.2173720 113.0752949  42.2528807 110.5566949 111.8418192
  47.1030843 120.6336491 108.2604011  47.0254873 121.5844316 108.3392492
  46.4992487 120.2882363 108.9178937  49.5948073 107.8064356 120.9165378
  48.8181407 108.3658276 120.9068243  50.2338636 108.2921139 121.4380248
  57.3868853 104.5891149 114.7508355  56.7443234 104.8823682 114.1048149
  56.8823782 104.4744069 115.5561551  47.8494445 110.6149809 120.4783345
  48.5909129 111.1534853 120.2018169  47.1431431 111.2416098 120.6354897
  53.3249785 112.7578950 119.0755506  53.7333141 112.3161360 118.3310139
  52.6027046 112.1831577 119.3289699  53.6478599 113.3180141 112.8307795
  53.0187462 113.4825855 112.1283863  53.2604261 113.7321750 113.6018759
  57.5267831 114.2534578 110.1852159  56.8418869 114.6333480 109.6349192
  57.6111681 114.8629905 110.9184107  54.7818763 111.8994537 116.7847503
  54.9935658 112.5426297 116.1081884  54.7348511 111.0656854 116.3169433
  46.0930642 112.6026030 113.0337644  46.6631999 113.0313299 112.3955128
  46.6838754 112.3208615 113.7321829  46.5855809 107.7689458 121.2798655
  45.9554469 108.4505738 121.5134052  46.4791897 107.6572539 120.3351793
  41.8800781 107.4361254 112.2064579  41.0899835 107.6918782 111.7304690
  42.3712029 108.2509592 112.3116620  55.8964591 114.7766493 114.9569860
  56.7182035 114.3746680 114.6752542  55.8926994 114.6734727 115.9085976
  43.8315527 107.8005833 109.1648056  43.0346690 107.9124527 109.6831551
  43.6041119 108.1392485 108.2988946  49.6621194 114.3250536 117.1130570
  49.7265627 114.7870943 117.9488742  48.9532118 113.6947901 117.2412880
  40.1638484 107.6891744 114.6379570  40.4146523 108.5738754 114.9037146
  40.6998033 107.5096346 113.8654662  63.9870584 111.1205241 111.3054831
  63.2334292 110.5512639 111.1498836  64.1218125 111.0867906 112.2525466
  49.3769212 115.9918644 106.9809551  49.2414887 116.8370179 107.4094399
  49.9179024 116.1937921 106.2175485  45.8636552 102.0710223 123.6423906
  45.4703497 101.5176422 124.3171550  46.6802692 102.3820802 124.0330423
  42.8298609 113.5094082 107.5537476  43.3423130 114.3037332 107.7043040
  43.4821322 112.8120372 107.4871077  44.6393494 116.6259838 109.6360229
  44.8160122 117.5477803 109.4481213  45.4350328 116.3118257 110.0654609
  48.7804513 103.4868103 121.2344162  49.5214226 104.0875256 121.1548625
  49.0122435 102.7445740 120.6762205  43.9245851 108.6724470 119.5122392
  43.8099366 107.7709727 119.8129491  43.0690368 108.9188167 119.1607209
  51.0037688 116.6142210 121.1109893  50.5601543 115.8278589 120.7930797
  51.6654902 116.8021361 120.4453784  45.7624810 118.1438012 115.6370571
  46.3132235 118.0155075 114.8647565  44.9236285 118.4432901 115.2865464
  53.1018926 116.8945010 119.1391294  53.0837402 117.7153891 118.6471563
  54.0238846 116.7699085 119.3641435  49.5591981 114.4089140 119.9814802
  50.0920317 113.6477428 119.7514110  49.0306062 114.1162791 120.7238957
  40.7947526 111.8382736 108.3297046  41.6322748 112.2479744 108.1130754
  40.9725794 110.8982178 108.2997240  55.9037539 111.7324153 112.6100661
  55.2461214 112.4223414 112.6980789  56.7077938 112.1220584 112.9534647
  51.9765372 120.0652849 103.4165274  51.3027071 120.3684546 104.0250231
  52.3631194 120.8681930 103.0670731  55.4804794 115.0674527 108.7883745
  55.0267121 114.2265437 108.8448936  54.8498761 115.7035925 109.1258525
  53.9237734 116.9051023 109.7233563  54.2160708 117.4656080 109.0045929
  54.4336354 117.1979584 110.4786722  40.8173697 109.1773451 109.0007780
  40.6198097 108.5842812 108.2758846  40.2620361 108.8725661 109.7183719
  46.7362781 107.6873618 108.8792752  45.9230646 107.9867788 109.2857944
  47.2321775 107.2929306 109.5967234  48.8871359 117.6831374 110.8127016
  48.8447538 117.9092221 109.8835549  49.8034058 117.4494749 110.9612818
  46.2276856 105.2591973 114.4953987  46.8676235 105.1180732 113.7976950
  45.3954386 104.9726486 114.1192589  58.0904109 113.3410405 113.4268246
  58.5240616 113.2485694 114.2751300  58.8035690 113.3167905 112.7888262
  47.0037160 114.5594403 110.6088979  47.7977758 114.0644724 110.4071554
  46.2928852 114.0312267 110.2456685  51.8232004 116.9412499 114.9601347
  51.8769026 117.5103435 115.7279063  50.9546785 117.1114384 114.5955384
  43.2305472 105.2292298 109.2726974  43.4912289 106.1437631 109.1636134
  44.0522644 104.7616741 109.4223586  44.7030397 106.6430055 116.4425798
  45.3753451 106.4347417 115.7938447  43.8760184 106.4452141 116.0031030
  58.9519659 113.3834106 115.9601132  59.1455549 114.2879916 116.2060407
  58.8520277 112.9241525 116.7939717  50.6055969 103.2691996 118.4591459
  49.9583884 103.9681946 118.3655935  51.3756985 103.7028140 118.8267707
  54.0134767 113.5340848 121.5342012  53.8620274 113.3051400 120.6172096
  54.0039447 114.4911450 121.5473357  50.7820104 111.1072761 116.5188279
  51.7112164 111.2583921 116.3457246  50.3611134 111.1956782 115.6636925
  49.5808435 115.1323425 114.2886816  49.4419521 114.7642210 115.1612754
  48.7923032 115.6471065 114.1170774  50.1756587 120.2332522 105.6312353
  50.3508343 119.7620565 106.4457976  49.4889375 120.8598288 105.8593614
  51.1313651 114.5105028 111.6775654  50.7963483 114.4705798 112.5733304
  50.6317596 113.8449744 111.2046064  45.1057895 109.9172658 117.2028235
  44.9677693 109.1852897 117.8039774  46.0162818 109.8281558 116.9212423
  47.7340195 109.6292617 116.6911915  48.4439814 108.9885810 116.6498533
  47.6909503 109.8805512 117.6138096  55.7226974 116.5659971 119.6118494
  55.6639520 115.8819191 118.9449077  56.1246492 117.3078961 119.1599120
  46.4469129 106.6157835 118.5107554  45.9106486 106.1648574 119.1629151
  45.8585838 106.7503744 117.7678019  44.7417673 123.3821885 112.4052213
  44.9814271 124.0140409 113.0831232  43.8986869 123.0309925 112.6917572
  55.7244381 114.5299555 117.8432474  54.8371160 114.1925477 117.9658873
  56.2942932 113.7982586 118.0801239  37.3773528 110.8623647 111.1675525
  38.0644568 110.5485377 110.5796540  37.2221657 111.7665011 110.8942777
  42.1808250 105.7513843 115.5960549  42.0966439 105.1439513 114.8610959
  41.3590957 106.2422861 115.5970045  49.2545535 119.1901007 114.8093717
  49.1815706 119.9955979 115.3213022  48.8122928 119.3892973 113.9841738
  49.0435314 118.4272777 108.3196539  48.2602836 118.9694457 108.4134763
  49.7428059 118.9446757 108.7190780  51.7144218 119.0887841 116.9651876
  52.4272190 119.7235306 116.8927777  51.2234247 119.1851707 116.1491877
  46.7656132 116.8382285 117.7857446  47.4665591 117.4718768 117.9386841
  46.2951247 117.1797016 117.0253086  51.5264592 119.4286585 109.7138167
  51.7086986 118.6108241 110.1765919  52.3497578 119.6454277 109.2763057
  51.8606757 118.3554770 106.9753216  52.3894523 117.8447225 106.3623378
  52.1234977 118.0397301 107.8398749  50.6144991 110.1346703 122.0976034
  49.9385628 110.0340832 122.7678409  51.4372625 109.9785917 122.5612031
  42.3623850 116.3718640 114.7188549  42.9477287 115.6262328 114.8516453
  42.1648688 116.6822596 115.6025213  45.2162505 119.4069887 109.7350992
  44.5472880 119.8916015 109.2515032  45.0775375 119.6539108 110.6494370
  36.9541504 108.9424240 113.4392992  36.9925604 108.4087831 114.2330110
  36.4481797 108.4159445 112.8203969  49.3567774 121.4413631 116.3333650
  49.9086082 121.6045252 117.0982735  49.6973967 122.0318068 115.6613675
  44.3332267 103.7888780 116.9355535  44.3973593 104.6503611 116.5232932
  44.2699387 103.1762782 116.2027893  43.8084539 105.8611913 120.5828569
  44.4356578 105.4788990 121.1966093  42.9512458 105.6426115 120.9484261
  54.2078648 116.2674888 122.1882304  54.7518552 116.8804846 121.6937259
  53.6265493 116.8254466 122.7049317  40.5850082 107.6688342 106.5146924
  40.8803523 106.7599020 106.4613977  39.6838118 107.6476081 106.1927926
  52.4936161 119.3895606 113.3197332  52.3687300 118.5885346 112.8108278
  53.1515252 119.8841799 112.8311302  44.1144329 105.7444339 112.4974472
  43.3930915 106.3580306 112.3581946  44.9037585 106.2802103 112.4191118
  54.5571069 117.1904626 114.9476882  53.6101405 117.0709977 114.8755209
  54.9053842 116.3027124 115.0303144  46.9170643 103.0798765 118.7715124
  47.4405044 103.3261062 119.5341433  46.6982976 103.9118800 118.3518261
  51.5617503 116.9857342 111.1481234  51.4142465 116.0574050 111.3288804
  52.3870996 117.0077433 110.6638310  45.4279747 105.6375409 107.0061727
  45.7675819 106.1661331 106.2840335  45.8751867 105.9755816 107.7820293
  55.1651624 117.8085901 112.2346107  56.0898172 117.6028762 112.0970558
  54.9966928 117.5602302 113.1435449  48.1223188 104.0212460 116.4564795
  47.7820008 103.2220273 116.8585474  47.4162194 104.3214171 115.8841628
  48.7739659 101.1061773 114.9092118  49.5965729 100.6322251 114.7871008
  49.0177723 101.8852256 115.4090804  46.2978238 107.7980893 112.7184096
  46.1522819 108.1121196 113.6108378  45.8203442 108.4165794 112.1654995
  54.9546941 118.3271569 107.5908199  55.1283818 117.7617991 106.8382051
  55.4475832 119.1272463 107.4087689  40.7723900 110.3386238 115.6571757
  40.2277368 111.1146046 115.7892032  41.6503250 110.6857042 115.4990879
  55.9422113 117.6438333 104.6905097  56.6373018 118.2645026 104.9092411
  56.2845263 116.7933684 104.9657475  41.5589922 109.4656134 118.5501914
  40.8171658 109.6138769 119.1366545  41.2382667 109.7264400 117.6868664
  49.5033585 119.0072112 118.3482304  49.8120711 118.7621259 119.2205004
  50.3009067 119.2118751 117.8601174  49.5254197 121.1610022 110.5787681
  49.0859187 120.6686400 111.2720538  50.2762314 120.6182989 110.3379756
  42.0046536 117.3521563 110.5812309  42.8304556 117.0525335 110.2010952
  41.6540588 116.5829185 111.0302098  46.9728069 116.7048031 112.6509982
  46.3508078 116.0418736 112.3512210  47.6432936 116.7309163 111.9683630
  40.2055141 115.2707889 111.5401242  39.3687049 114.8430063 111.3585244
  40.1778786 115.4640332 112.4772034  47.0452597 105.1829819 122.2442489
  47.0940752 106.0591942 121.8620258  47.5875111 104.6407212 121.6714132
  57.5307442 115.7270942 121.5243626  56.7402986 115.7095081 120.9848125
  57.2940797 116.2659236 122.2792662  57.6505317 112.5763409 118.8376354
  57.7003322 112.4113416 119.7791877  57.5419241 111.7090668 118.4474235
  46.5341576 115.2551954 106.1268443  46.6829696 115.9387419 105.4735116
  47.3408019 115.2357044 106.6417899  54.9409080 108.5594337 120.1535661
  55.8418942 108.4200801 119.8619659  55.0157054 108.7248791 121.0933838
  49.2751885 105.9361191 118.9988847  48.4055194 106.2294757 118.7271436
  49.5111365 106.5201636 119.7196111  59.1523514 114.9960350 119.0818376
  58.8608322 115.3590331 119.9181837  58.5395645 114.2827358 118.9031708
  60.3519196 112.5613230 111.6020946  61.1866088 113.0003034 111.7658506
  60.4878325 112.0851883 110.7829192  57.4010702 110.1192965 117.5498434
  57.8764824 110.3120611 116.7417285  56.4776268 110.1752151 117.3041817
  44.2894209 111.2817132 107.1329512  44.0440251 110.3779462 107.3309722
  44.4590123 111.2834282 106.1908990  50.0336981 117.7500085 103.5980190
  49.4610949 118.3690272 103.1450662  50.6069775 118.2999446 104.1320112
  56.1012371 106.9958725 115.7826739  57.0529794 107.0956822 115.8038963
  55.9315822 106.2036993 116.2924824  53.2534241 118.0337235 104.7288773
  54.1864914 117.9682796 104.9321648  53.1657454 118.8693502 104.2703305
  58.5800449 110.2164844 114.8969039  58.5476769 109.2780845 115.0828723
  59.1901073 110.2948881 114.1634864  58.7294938 107.0075888 114.9427322
  58.2133986 106.2234345 114.7557251  59.6134886 106.6794605 115.1073842
  64.3976999 111.2780851 114.0375076  65.1280387 111.0166139 114.5982779
  63.7883944 110.5409573 114.0777144  62.4792296 109.4188714 114.6349527
  61.7525460 109.2844679 114.0266018  62.0639583 109.7265542 115.4406245
  50.3022473 113.1378644 122.3996900  51.2225482 113.3157243 122.5936946
  50.2672056 112.1934689 122.2476599  39.5204638 108.3317237 111.3250175
  39.2007422 107.4782545 111.0324549  38.9738066 108.5465815 112.0808142
  43.2984545 111.0479678 115.0419681  43.5170555 111.9796786 115.0607715
  43.7110319 110.6887653 115.8274485  48.1712410 106.6212884 124.4322430
  48.0709137 107.5707241 124.3634521  47.9533952 106.2931123 123.5598500
  39.3892898 111.9520149 113.2943296  38.6956369 111.5374102 112.7813251
  40.1365889 111.9940685 112.6976715  48.0343680 110.0510023 123.2487492
  47.5510762 110.8510383 123.4551381  48.1204619 110.0617968 122.2954936
  41.3029640 111.8838402 111.1709311  41.2800328 111.9826090 110.2191194
  41.6130277 112.7303553 111.4926477  43.9617018 113.9414558 115.2855925
  44.9160271 113.9098500 115.2185857  43.7629542 113.4805181 116.1006151
  44.5516400 112.5115674 117.8526723  45.3709289 113.0059752 117.8761560
  44.8253208 111.5947642 117.8244291  42.3167247 119.4834177 112.3026123
  42.1821715 118.7234578 111.7364121  41.8999309 120.2075077 111.8354912
  45.4736373 120.3803494 112.5144566  45.3568757 121.3248927 112.4123256
  44.6528819 120.0777056 112.9030365  39.8051314 106.8453807 118.5518920
  40.4510178 106.3352761 119.0406145  39.5968465 107.5822489 119.1262345
  52.3304707 113.9134655 124.0511061  53.1995866 114.0875307 123.6897696
  51.8511458 114.7329072 123.9286790  46.4990887 121.0331756 115.7300494
  47.4018133 121.0655366 116.0466989  46.2728257 120.1032207 115.7446830
  48.2544489 119.7862742 112.3910573  47.3040120 119.7864604 112.2774945
  48.5576975 119.0395477 111.8746608  44.1448805 103.9921425 122.6493934
  45.0080267 103.6358229 122.8597259  43.5714216 103.6535319 123.3369339
  63.9897182 125.6223281 113.4556335  64.6275592 125.5030028 112.7519675
  63.8718025 126.5704125 113.5144288  60.7986889 125.5750709 113.3917860
  60.4605400 125.4591774 112.5038395  61.6676657 125.1741874 113.3718866
  56.6573704 127.4286185 109.3814751  56.0938569 127.3376122 108.6131039
  56.5426099 126.6086090 109.8617244  61.2806672 126.7285561 119.3504066
  61.2695312 126.3338359 118.4784569  61.4427311 125.9951633 119.9437837
  54.2038136 128.9237377 112.2198972  54.9959428 128.5828202 111.8045271
  54.4434786 129.0332352 113.1401125  62.2373263 131.0957153 104.6929216
  61.5861243 131.6811233 104.3063230  63.0317626 131.6263348 104.7524253
  56.1628890 128.1846290 105.0916350  56.9359766 127.6375277 104.9529226
  56.5154289 129.0490540 105.3030812  58.0013933 129.5122672 118.2983250
  57.7103799 130.4168303 118.1829916  58.6370917 129.5539200 119.0127319
  58.9270140 126.8899521 114.8884609  59.5233712 126.6655543 114.1741572
  58.9845111 126.1484266 115.4910057  58.4995168 124.3438956 102.7234800
  58.7520689 123.8220478 101.9618263  57.5619727 124.1805102 102.8261484
  63.5438451 123.3474735 110.5309543  64.3301540 122.9294158 110.1799960
  63.8077155 124.2520827 110.6991192  63.7148528 128.7847585 105.2298200
  63.0794361 128.8582212 105.9419105  63.3845934 129.3741184 104.5517280
  68.9446878 123.2849968 111.4342522  69.6772050 122.7149185 111.6680351
  68.1886234 122.8971568 111.8749028  58.2191457 126.2467062 104.9259175
  58.1027715 125.5711966 105.5940259  58.3293717 125.7599436 104.1091328
  60.5622998 125.7077209 108.6305864  60.1981205 125.1807830 109.3418786
  61.4190113 125.3175678 108.4572350  66.4672298 116.9971542 115.8937131
  66.1355623 117.8666953 115.6698346  65.8717912 116.6807826 116.5731161
  60.2028485 120.7367109 103.6267213  60.3702887 121.6047346 103.9937684
  60.0125654 120.8994391 102.7028502  62.9603818 129.1984088 115.2933043
  62.6604541 130.1009127 115.1848851  62.6154877 128.9316271 116.1454196
  56.4116299 125.6497885 111.3269748  55.4866796 125.5174099 111.5347439
  56.6600712 126.4292104 111.8239690  66.3600962 121.7166628 112.9730481
  65.4517839 121.6482037 112.6789242  66.3088557 122.1938573 113.8012306
  60.1817705 123.1924767 104.6113880  60.0617331 123.6381817 105.4499360
  59.4870294 123.5410084 104.0527418  53.7725110 125.2931158 112.1613537
  53.9017491 125.5465637 113.0752949  53.0922562 125.8858866 111.8418192
  57.9424598 135.9628408 108.2604011  57.8648627 136.9136233 108.3392492
  57.3386241 135.6174281 108.9178937  60.4341827 123.1356274 120.9165378
  59.6575161 123.6950194 120.9068243  61.0732390 123.6213057 121.4380248
  68.2262608 119.9183067 114.7508355  67.5836988 120.2115600 114.1048149
  67.7217536 119.8035987 115.5561551  65.8802772 123.6646240 105.4394214
  66.7920628 123.8973627 105.2641911  65.3712419 124.2483284 104.8769292
  58.6888200 125.9441727 120.4783345  59.4302884 126.4826771 120.2018169
  57.9825185 126.5708016 120.6354897  64.1643539 128.0870868 119.0755506
  64.5726895 127.6453278 118.3310139  63.4420801 127.5123495 119.3289699
  60.5174609 123.0243474 116.4489063  61.3635804 123.4482888 116.5923712
  60.4573247 122.3677099 117.1427626  64.4872354 128.6472058 112.8307795
  63.8581216 128.8117772 112.1283863  64.0998016 129.0613668 113.6018759
  68.3661586 129.5826496 110.1852159  67.6812624 129.9625397 109.6349192
  68.4505435 130.1921823 110.9184107  63.6674055 120.6847843 118.1070237
  63.4234987 121.4389903 117.5704513  63.9433985 121.0633190 118.9417484
  65.6212517 127.2286455 116.7847503  65.8329413 127.8718215 116.1081884
  65.5742266 126.3948772 116.3169433  63.2238746 119.8404276 113.6884075
  62.3623225 120.1385529 113.9800812  63.2501181 120.0574675 112.7565107
  60.0400316 128.3846466 110.0957880  60.5038661 128.6634169 109.3062503
  59.7757114 127.4829911 109.9130971  56.9324397 127.9317948 113.0337644
  57.5025754 128.3605216 112.3955128  57.5232509 127.6500533 113.7321829
  58.9769202 124.5069619 106.9047445  59.6793245 124.9590662 107.3721372
  58.6449830 123.8653438 107.5327339  57.4249563 123.0981375 121.2798655
  56.7948224 123.7797656 121.5134052  57.3185651 122.9864457 120.3351793
  52.7194536 122.7653171 112.2064579  51.9293590 123.0210700 111.7304690
  53.2105783 123.5801509 112.3116620  66.7358345 130.1058411 114.9569860
  67.5575789 129.7038598 114.6752542  66.7320748 130.0026645 115.9085976
  54.6709281 123.1297751 109.1648056  53.8740444 123.2416445 109.6831551
  54.4434873 123.4684403 108.2988946  60.5014949 129.6542454 117.1130570
  60.5659381 130.1162861 117.9488742  59.7925873 129.0239819 117.2412880
  51.0032239 123.0183662 114.6379570  51.2540277 123.9030672 114.9037146
  51.5391787 122.8388263 113.8654662  74.8264338 126.4497159 111.3054831
  74.0728047 125.8804557 111.1498836  74.9611880 126.4159824 112.2525466
  60.2162966 131.3210561 106.9809551  60.0808641 132.1662097 107.4094399
  60.7572779 131.5229839 106.2175485  56.7030306 117.4002141 123.6423906
  56.3097252 116.8468340 124.3171550  57.5196446 117.7112720 124.0330423
  53.6692364 128.8385999 107.5537476  54.1816884 129.6329250 107.7043040
  54.3215077 128.1412290 107.4871077  55.4787249 131.9551756 109.6360229
  55.6553877 132.8769720 109.4481213  56.2744082 131.6410175 110.0654609
  59.6198267 118.8160020 121.2344162  60.3607980 119.4167173 121.1548625
  59.8516190 118.0737658 120.6762205  54.7639605 124.0016388 119.5122392
  54.6493120 123.1001645 119.8129491  53.9084123 124.2480084 119.1607209
  61.8431443 131.9434128 121.1109893  61.3995297 131.1570506 120.7930797
  62.5048656 132.1313278 120.4453784  56.6018564 133.4729929 115.6370571
  57.1525989 133.3446993 114.8647565  55.7630040 133.7724818 115.2865464
  63.9412681 132.2236928 119.1391294  63.9231156 133.0445809 118.6471563
  64.8632601 132.0991003 119.3641435  60.3985735 129.7381057 119.9814802
  60.9314072 128.9769345 119.7514110  59.8699816 129.4454709 120.7238957
  63.5655430 114.8441123 115.5108444  63.2219699 115.7342765 115.4347555
  63.9334393 114.6542781 114.6478029  51.6341281 127.1674654 108.3297046
  52.4716503 127.5771662 108.1130754  51.8119548 126.2274096 108.2997240
  63.5305713 124.8349734 104.0180879  63.0152336 125.6054339 104.2569267
  63.2583021 124.1614870 104.6413941  61.1152824 119.6799435 109.0766118
  60.2594420 119.2906285 108.8971756  61.5279776 119.7591396 108.2165903
  62.6451970 117.2145778 113.4757677  62.1416766 117.1775914 112.6625483
  62.9382577 118.1238521 113.5354334  58.8894856 117.2984508 112.4823859
  59.7547853 117.1027317 112.1229749  58.9572365 117.0694860 113.4093216
  68.5039987 127.5882089 105.9534053  67.7269430 127.2493248 105.5089215
  69.1831468 127.5934712 105.2789018  63.3192016 122.7076826 105.8440660
  63.0142151 123.0222976 106.6950804  64.2722458 122.7858246 105.8867993
  61.7638448 128.8667050 107.4933614  61.2359809 128.1319809 107.1806852
  61.2625950 129.6441726 107.2473583  66.7431294 127.0616070 112.6100661
  66.0854968 127.7515332 112.6980789  67.5471693 127.4512502 112.9534647
  56.4957175 119.5286716 109.8540226  57.0700927 119.3061897 109.1213419
  57.0828158 119.5975411 110.6068827  65.5536753 125.4160443 110.6604602
  66.0668634 126.0490435 111.1626312  66.2037976 124.8161638 110.2947963
  56.8226762 121.5591177 103.8736111  55.9864075 121.8965864 104.1945386
  56.6831532 121.4240157 102.9363248  58.7979843 116.4027965 108.5815295
  58.1444255 116.0876982 107.9571910  58.7560317 115.7803705 109.3075118
  59.9091048 126.6847260 100.4968587  59.0018110 126.4536513 100.6959736
  60.4062080 125.8884879 100.6842569  62.8159127 135.3944767 103.4165274
  62.1420826 135.6976464 104.0250231  63.2024949 136.1973848 103.0670731
  62.0317583 122.8909898 112.9062943  61.1140145 123.1124845 112.7484631
  62.4477727 122.9656209 112.0474650  62.8152631 124.2901314 108.0365623
  63.5624450 124.8022711 107.7272745  63.0844221 123.9685367 108.8970017
  61.0879281 126.7859855 105.0192578  60.1790501 126.5018888 105.1165047
  61.1174365 127.2058933 104.1595884  66.3198549 130.3966444 108.7883745
  65.8660876 129.5557354 108.8448936  65.6892515 131.0327843 109.1258525
  65.2631468 121.3258430 110.0184413  64.5254225 120.8135817 110.3494655
  65.5158242 120.8858812 109.2067689  64.7631488 132.2342941 109.7233563
  65.0554462 132.7947998 109.0045929  65.2730109 132.5271502 110.4786722
  65.3643096 114.1034682 110.6126182  65.6701972 113.2432046 110.3252097
  66.0895700 114.6952303 110.4125176  51.6567452 124.5065369 109.0007780
  51.4591852 123.9134730 108.2758846  51.1014116 124.2017579 109.7183719
  59.6364175 124.3988475 111.1202373  59.6912785 123.4462312 111.0444850
  58.8255377 124.5547915 111.6043671  60.7855369 128.3268599 102.3580656
  60.3474799 127.6104457 101.8986293  61.5265810 128.5544713 101.7965748
  57.5756535 123.0165535 108.8792752  56.7624401 123.3159706 109.2857944
  58.0715530 122.6221224 109.5967234  59.7265113 133.0123292 110.8127016
  59.6841292 133.2384138 109.8835549  60.6427812 132.7786667 110.9612818
  63.1730747 123.4807360 117.7107646  63.5280135 123.7078833 118.5702111
  63.8202878 123.8125736 117.0884901  68.9028484 126.6025796 108.4156975
  68.7646383 126.7927392 107.4878164  68.5464703 127.3645178 108.8725026
  57.0670610 120.5883891 114.4953987  57.7069989 120.4472650 113.7976950
  56.2348141 120.3018404 114.1192589  68.9297864 128.6702323 113.4268246
  69.3634370 128.5777612 114.2751300  69.6429444 128.6459823 112.7888262
  57.8430914 129.8886321 110.6088979  58.6371512 129.3936641 110.4071554
  57.1322606 129.3604184 110.2456685  62.6625758 132.2704417 114.9601347
  62.7162781 132.8395353 115.7279063  61.7940540 132.4406302 114.5955384
  54.1513677 124.0329403 106.6848732  53.2211266 123.9713858 106.9018694
  54.2471149 123.5105356 105.8885373  54.0699227 120.5584216 109.2726974
  54.3306044 121.4729549 109.1636134  54.8916399 120.0908658 109.4223586
  55.5424152 121.9721973 116.4425798  56.2147205 121.7639335 115.7938447
  54.7153938 121.7744059 116.0031030  69.7913413 128.7126023 115.9601132
  69.9849303 129.6171834 116.2060407  69.6914031 128.2533442 116.7939717
  61.4449724 118.5983914 118.4591459  60.7977639 119.2973863 118.3655935
  62.2150739 119.0320058 118.8267707  64.8528522 128.8632766 121.5342012
  64.7014028 128.6343318 120.6172096  64.8433201 129.8203367 121.5473357
  61.6213858 126.4364679 116.5188279  62.5505918 126.5875838 116.3457246
  61.2004888 126.5248699 115.6636925  60.4202190 130.4615343 114.2886816
  60.2813276 130.0934128 115.1612754  59.6316786 130.9762983 114.1170774
  61.0150342 135.5624440 105.6312353  61.1902098 135.0912483 106.4457976
  60.3283130 136.1890206 105.8593614  61.9707405 129.8396946 111.6775654
  61.6357238 129.7997716 112.5733304  61.4711351 129.1741662 111.2046064
  55.9451649 125.2464576 117.2028235  55.8071447 124.5144815 117.8039774
  56.8556573 125.1573476 116.9212423  64.9066597 127.1852980 101.9512714
  64.2895767 126.4599808 101.8545766  64.4383085 127.9462340 101.6079788
  58.5733950 124.9584535 116.6911915  59.2833568 124.3177727 116.6498533
  58.5303258 125.2097430 117.6138096  66.5620728 131.8951889 119.6118494
  66.5033275 131.2111109 118.9449077  66.9640247 132.6370879 119.1599120
  57.2862884 121.9449753 118.5107554  56.7500241 121.4940492 119.1629151
  56.6979592 122.0795662 117.7678019  55.5811427 138.7113802 112.4052213
  55.8208025 139.3432327 113.0831232  54.7380624 138.3601842 112.6917572
  56.6965143 121.4038404 101.0734018  55.8194609 121.2827205 100.7096265
  57.1722896 120.6124483 100.8212907  66.5638136 129.8591472 117.8432474
  65.6764914 129.5217394 117.9658873  67.1336687 129.1274504 118.0801239
  48.2167283 126.1915564 111.1675525  48.9038323 125.8777294 110.5796540
  48.0615412 127.0956929 110.8942777  53.0202005 121.0805761 115.5960549
  52.9360194 120.4731430 114.8610959  52.1984711 121.5714779 115.5970045
  60.0939289 134.5192925 114.8093717  60.0209461 135.3247896 115.3213022
  59.6516682 134.7184891 113.9841738  59.8829069 133.7564695 108.3196539
  59.0996591 134.2986375 108.4134763  60.5821814 134.2738674 108.7190780
  63.1925719 119.5659324 110.9630744  63.6894418 118.8129287 110.6431814
  62.4212700 119.6023641 110.3973953  71.0455476 125.2699690 112.6049035
  71.0345352 126.1524405 112.2342969  70.1772856 124.9171241 112.4103572
  62.5537973 134.4179759 116.9651876  63.2665945 135.0527224 116.8927777
  62.0628001 134.5143625 116.1491877  64.2755500 128.3231012 108.5369167
  63.3411778 128.4432474 108.3673872  64.4532168 127.4203478 108.2729177
  59.7760688 121.7076707 110.6902429  59.4058475 121.1547748 111.3783334
  60.2719780 121.1034841 110.1377429  67.6628051 124.1648331 109.0719201
  68.1288503 124.9976322 108.9979504  68.1135551 123.6993312 109.7764460
  57.6049886 132.1674202 117.7857446  58.3059346 132.8010685 117.9386841
  57.1345001 132.5088934 117.0253086  65.7304282 130.5092152 106.0705353
  66.0064126 130.3948747 106.9799228  64.8608781 130.1109637 106.0317527
  65.6344714 116.5328918 113.1110103  64.7207793 116.7633145 113.2792310
  66.0637815 116.6167362 113.9624135  65.4051172 124.7218810 115.6109997
  64.7522622 124.9694717 114.9562450  65.7831552 123.9082948 115.2772474
  62.3658346 134.7578503 109.7138167  62.5480741 133.9400159 110.1765919
  63.1891332 134.9746195 109.2763057  62.7000512 133.6846688 106.9753216
  63.2288278 133.1739143 106.3623378  62.9628731 133.3689218 107.8398749
  61.4538745 125.4638621 122.0976034  60.7779382 125.3632750 122.7678409
  62.2766379 125.3077835 122.5612031  53.2017604 131.7010557 114.7188549
  53.7871041 130.9554245 114.8516453  53.0042443 132.0114514 115.6025213
  56.0556259 134.7361805 109.7350992  55.3866635 135.2207932 109.2515032
  55.9169129 134.9831025 110.6494370  47.7935259 124.2716158 113.4392992
  47.8319358 123.7379748 114.2330110  47.2875552 123.7451363 112.8203969
  60.1961528 136.7705548 116.3333650  60.7479836 136.9337170 117.0982735
  60.5367721 137.3609986 115.6613675  55.1726021 119.1180698 116.9355535
  55.2367348 119.9795529 116.5232932  55.1093142 118.5054700 116.2027893
  54.6478294 121.1903831 120.5828569  55.2750333 120.8080908 121.1966093
  53.7906213 120.9718033 120.9484261  65.0472402 131.5966806 122.1882304
  65.5912306 132.2096764 121.6937259  64.4659247 132.1546384 122.7049317
  51.4243837 122.9980260 106.5146924  51.7197278 122.0890938 106.4613977
  50.5231872 122.9767999 106.1927926  63.3329915 134.7187524 113.3197332
  63.2081055 133.9177264 112.8108278  63.9909006 135.2133717 112.8311302
  54.9538084 121.0736256 112.4974472  54.2324669 121.6872224 112.3581946
  55.7431339 121.6094021 112.4191118  65.3964824 132.5196544 114.9476882
  64.4495159 132.4001895 114.8755209  65.7447597 131.6319042 115.0303144
  57.7564397 118.4090683 118.7715124  58.2798799 118.6552979 119.5341433
  57.5376730 119.2410718 118.3518261  53.1531678 120.6794357 106.6386249
  52.8244384 119.7991736 106.4561355  53.5071049 120.6242026 107.5262638
  62.4011257 132.3149260 111.1481234  62.2536219 131.3865967 111.3288804
  63.2264750 132.3369351 110.6638310  56.2673501 120.9667327 107.0061727
  56.6069574 121.4953248 106.2840335  56.7145622 121.3047733 107.7820293
  66.0045379 133.1377819 112.2346107  66.9291926 132.9320680 112.0970558
  65.8360682 132.8894220 113.1435449  58.9616942 119.3504378 116.4564795
  58.6213762 118.5512191 116.8585474  58.2555948 119.6506089 115.8841628
  59.6133414 116.4353690 114.9092118  60.4359483 115.9614169 114.7871008
  59.8571477 117.2144174 115.4090804  58.2541648 119.4641949 105.2055019
  58.9750011 119.8423202 104.7018736  57.6306953 120.1830826 105.3089997
  62.3972771 120.1687098 106.1413352  62.6136386 121.0511736 105.8402180
  61.9166838 119.7773311 105.4118994  57.1371993 123.1272811 112.7184096
  56.9916573 123.4413114 113.6108378  56.6597196 123.7457711 112.1654995
  58.9968376 120.1175359 112.7664986  58.9829944 119.2216452 112.4297284
  59.7140804 120.1246023 113.4003272  60.8494506 120.5512699 114.8118113
  60.5912284 121.4729770 114.8102444  60.3179547 120.1543134 115.5018577
  65.7940695 133.6563486 107.5908199  65.9677573 133.0909909 106.8382051
  66.2869586 134.4564381 107.4087689  51.6117655 125.6678155 115.6571757
  51.0671123 126.4437963 115.7892032  52.4897005 126.0148960 115.4990879
  58.4005272 118.9989739 108.0352556  58.5221183 118.0706385 108.2343443
  58.1107314 119.0128425 107.1230871  61.2696462 116.6844650 111.1719276
  61.2918159 116.7483983 110.2171255  61.6864521 115.8449158 111.3659782
  71.6480086 126.4199909 109.2098498  72.0911232 125.6707234 108.8117622
  70.7706597 126.4110046 108.8272230  66.7815868 132.9730251 104.6905097
  67.4766772 133.5936943 104.9092411  67.1239018 132.1225602 104.9657475
  52.3983677 124.7948052 118.5501914  51.6565413 124.9430687 119.1366545
  52.0776421 125.0556317 117.6868664  68.6807291 130.4229956 106.2192428
  69.2058615 130.7617229 105.4941748  68.5929643 129.4876972 106.0355562
  60.3427339 134.3364030 118.3482304  60.6514466 134.0913177 119.2205004
  61.1402821 134.5410668 117.8601174  60.3647951 136.4901939 110.5787681
  59.9252942 135.9978318 111.2720538  61.1156068 135.9474907 110.3379756
  52.8440290 132.6813480 110.5812309  53.6698310 132.3817252 110.2010952
  52.4934342 131.9121103 111.0302098  57.8121824 132.0339949 112.6509982
  57.1901833 131.3710654 112.3512210  58.4826690 132.0601080 111.9683630
  51.0448895 130.5999807 111.5401242  50.2080804 130.1721981 111.3585244
  51.0172541 130.7932250 112.4772034  57.8846351 120.5121737 122.2442489
  57.9334507 121.3883859 121.8620258  58.4268865 119.9699130 121.6714132
  68.3701197 131.0562860 121.5243626  67.5796740 131.0386999 120.9848125
  68.1334551 131.5951154 122.2792662  68.4899072 127.9055326 118.8376354
  68.5397077 127.7405334 119.7791877  68.3812995 127.0382585 118.4474235
  57.3735330 130.5843872 106.1268443  57.5223451 131.2679336 105.4735116
  58.1801774 130.5648962 106.6417899  65.7802834 123.8886254 120.1535661
  66.6812697 123.7492719 119.8619659  65.8550809 124.0540709 121.0933838
  60.1145639 121.2653109 118.9988847  59.2448949 121.5586675 118.7271436
  60.3505120 121.8493554 119.7196111  69.9917269 130.3252268 119.0818376
  69.7002077 130.6882248 119.9181837  69.3789400 129.6119276 118.9031708
  71.1912951 127.8905148 111.6020946  72.0259842 128.3294952 111.7658506
  71.3272080 127.4143801 110.7829192  68.2404457 125.4484882 117.5498434
  68.7158578 125.6412529 116.7417285  67.3170022 125.5044068 117.3041817
  55.1287963 126.6109050 107.1329512  54.8834005 125.7071380 107.3309722
  55.2983878 126.6126200 106.1908990  62.8184673 117.4832726 116.5154268
  63.3366617 118.2193753 116.1900756  62.4639806 117.7896719 117.3501027
  54.3983611 122.3437407 104.6315673  53.7052856 122.4181762 103.9755709
  54.1535363 121.5797751 105.1537190  63.0697267 113.9033008 112.0355164
  63.3499021 113.2356198 112.6615591  63.8547874 114.0962104 111.5229828
  60.8730736 133.0792002 103.5980190  60.3004703 133.6982189 103.1450662
  61.4463530 133.6291364 104.1320112  66.9406126 122.3250642 115.7826739
  67.8923549 122.4248740 115.8038963  66.7709576 121.5328911 116.2924824
  64.9620505 119.4106226 115.9686140  64.3670437 119.6911238 115.2732629
  64.6770202 119.9000127 116.7402881  64.0927996 133.3629152 104.7288773
  65.0258669 133.2974714 104.9321648  64.0051209 134.1985419 104.2703305
  66.7216012 132.6795023 101.6892720  66.6429644 132.3454886 102.5828478
  67.5425679 133.1716791 101.6884193  69.4194204 125.5456762 114.8969039
  69.3870524 124.6072763 115.0828723  70.0294827 125.6240799 114.1634864
  61.2577534 124.4152815 100.9396243  62.2036639 124.2859023 101.0084661
  60.8791779 123.6767477 101.4165671  69.5688692 122.3367806 114.9427322
  69.0527741 121.5526262 114.7557251  70.4528641 122.0086522 115.1073842
  67.2299419 116.0808821 110.9023135  67.0324240 115.7723909 111.7866467
  67.8399125 116.8070460 111.0321065  75.2370753 126.6072769 114.0375076
  75.9674142 126.3458057 114.5982779  74.6277699 125.8701491 114.0777144
  73.3186051 124.7480632 114.6349527  72.5919214 124.6136596 114.0266018
  72.9033337 125.0557460 115.4406245  61.1416227 128.4670561 122.3996900
  62.0619236 128.6449160 122.5936946  61.1065810 127.5226607 122.2476599
  59.4420452 122.3402791 100.8751128  58.5351907 122.0435904 100.9513842
  59.7196433 122.0432610 100.0085414  50.3598392 123.6609155 111.3250175
  50.0401176 122.8074463 111.0324549  49.8131820 123.8757733 112.0808142
  54.1378300 126.3771596 115.0419681  54.3564309 127.3088704 115.0607715
  54.5504073 126.0179570 115.8274485  61.0582517 116.8839681 107.0295369
  60.2483246 116.5386766 107.4050616  61.7466934 116.5747225 107.6182981
  62.9873066 115.9617728 108.6519666  63.5404104 116.3813181 109.3109689
  63.2243152 115.0353476 108.6942622  59.0106165 121.9504802 124.4322430
  58.9102892 122.8999159 124.3634521  58.7927707 121.6223041 123.5598500
  50.2286652 127.2812066 113.2943296  49.5350123 126.8666019 112.7813251
  50.9759643 127.3232603 112.6976715  66.3651873 118.0718253 108.1598330
  65.7850542 118.7303057 107.7776383  66.0987805 117.2495598 107.7485748
  64.8155439 117.4723311 110.3619651  65.3155217 117.5839845 109.5533970
  65.4591047 117.1684364 111.0020459  58.8737435 125.3801940 123.2487492
  58.3904517 126.1802301 123.4551381  58.9598374 125.3909885 122.2954936
  52.1423395 127.2130320 111.1709311  52.1194083 127.3118007 110.2191194
  52.4524031 128.0595471 111.4926477  54.8010772 129.2706475 115.2855925
  55.7554026 129.2390418 115.2185857  54.6023296 128.8097099 116.1006151
  55.3910155 127.8407591 117.8526723  56.2103044 128.3351670 117.8761560
  55.6646962 126.9239559 117.8244291  65.1476751 120.2318344 107.2154679
  64.2602606 120.5167994 106.9974873  65.5630740 120.0712107 106.3681956
  68.4991287 120.2564865 110.9309018  69.2751677 120.7461317 111.2033635
  67.7739421 120.6822919 111.3880887  70.9363846 120.9692484 111.9882959
  71.5308336 120.7288220 111.2776267  71.0090429 120.2499614 112.6156495
  53.1561001 134.8126095 112.3026123  53.0215469 134.0526496 111.7364121
  52.7393063 135.5366995 111.8354912  64.2919964 129.9963018 101.3102699
  64.9955814 130.2013021 101.9260354  63.5682613 130.5639780 101.5751782
  65.1217774 125.7472879 107.4304969  65.0652976 126.2041431 106.5912601
  65.6746117 124.9863564 107.2527812  68.9322580 121.5362611 108.2555088
  68.6759515 121.1359247 109.0863296  68.3075448 122.2506405 108.1305227
  73.2434918 124.2758685 110.7626380  72.6834476 124.3451874 111.5357942
  72.6378422 124.0999669 110.0425876  56.3130127 135.7095412 112.5144566
  56.1962511 136.6540844 112.4123256  55.4922573 135.4068973 112.9030365
  66.2006662 130.4345547 103.3601159  67.0352266 130.0026746 103.1778633
  66.0391005 130.2627561 104.2878053  65.8552554 126.9377661 104.7257498
  65.8001358 126.7721932 103.7845942  65.2298609 127.6453694 104.8819688
  50.6445069 122.1745725 118.5518920  51.2903932 121.6644679 119.0406145
  50.4362220 122.9114407 119.1262345  63.1698461 129.2426573 124.0511061
  64.0389621 129.4167225 123.6897696  62.6905212 130.0620989 123.9286790
  57.3384641 136.3623674 115.7300494  58.2411888 136.3947284 116.0466989
  57.1122011 135.4324125 115.7446830  59.0938243 135.1154660 112.3910573
  58.1433874 135.1156522 112.2774945  59.3970729 134.3687395 111.8746608
  62.9800799 113.0328546 108.5588753  62.2133195 112.4787033 108.7045436
  63.3911504 113.1050415 109.4202905  54.9842560 119.3213342 122.6493934
  55.8474021 118.9650147 122.8597259  54.4107970 118.9827237 123.3369339
  74.8290937 140.9515199 113.4556335  75.4669347 140.8321946 112.7519675
  74.7111780 141.8996042 113.5144288  71.6380643 140.9042627 113.3917860
  71.2999155 140.7883691 112.5038395  72.5070411 140.5033792 113.3718866
  67.4967459 142.7578103 109.3814751  66.9332324 142.6668040 108.6131039
  67.3819854 141.9378008 109.8617244  65.0431891 144.2529295 112.2198972
  65.8353183 143.9120119 111.8045271  65.2828541 144.3624270 113.1401125
  73.0767017 146.4249071 104.6929216  72.4254997 147.0103151 104.3063230
  73.8711380 146.9555266 104.7524253  67.0022645 143.5138208 105.0916350
  67.7753521 142.9667195 104.9529226  67.3548043 144.3782457 105.3030812
  69.7663894 142.2191439 114.8884609  70.3627466 141.9947461 114.1741572
  69.8238866 141.4776184 115.4910057  69.3388922 139.6730874 102.7234800
  69.5914443 139.1512395 101.9618263  68.4013481 139.5097019 102.8261484
  74.3832205 138.6766652 110.5309543  75.1695294 138.2586076 110.1799960
  74.6470910 139.5812745 110.6991192  74.5542283 144.1139503 105.2298200
  73.9188116 144.1874129 105.9419105  74.2239689 144.7033102 104.5517280
  79.7840632 138.6141886 111.4342522  80.5165804 138.0441102 111.6680351
  79.0279988 138.2263486 111.8749028  69.0585211 141.5758980 104.9259175
  68.9421469 140.9003883 105.5940259  69.1687471 141.0891354 104.1091328
  71.4016752 141.0369127 108.6305864  71.0374959 140.5099748 109.3418786
  72.2583868 140.6467596 108.4572350  77.3066053 132.3263460 115.8937131
  76.9749377 133.1958871 115.6698346  76.7111666 132.0099744 116.5731161
  71.0422239 136.0659027 103.6267213  71.2096641 136.9339263 103.9937684
  70.8519408 136.2286308 102.7028502  73.7997572 144.5276006 115.2933043
  73.4998295 145.4301044 115.1848851  73.4548632 144.2608189 116.1454196
  67.2510054 140.9789803 111.3269748  66.3260550 140.8466017 111.5347439
  67.4994467 141.7584022 111.8239690  77.1994716 137.0458546 112.9730481
  76.2911593 136.9773954 112.6789242  77.1482312 137.5230491 113.8012306
  71.0211460 138.5216684 104.6113880  70.9011085 138.9673735 105.4499360
  70.3264048 138.8702002 104.0527418  64.6118865 140.6223076 112.1613537
  64.7411246 140.8757555 113.0752949  63.9316316 141.2150784 111.8418192
  79.0656362 135.2474984 114.7508355  78.4230743 135.5407517 114.1048149
  78.5611291 135.1327905 115.5561551  76.7196526 138.9938157 105.4394214
  77.6314382 139.2265544 105.2641911  76.2106173 139.5775202 104.8769292
  69.5281954 141.2733645 120.4783345  70.2696638 141.8118689 120.2018169
  68.8218940 141.8999934 120.6354897  71.3568364 138.3535392 116.4489063
  72.2029559 138.7774806 116.5923712  71.2967001 137.6969016 117.1427626
  75.3266108 143.9763976 112.8307795  74.6974971 144.1409690 112.1283863
  74.9391770 144.3905585 113.6018759  79.2055340 144.9118414 110.1852159
  78.5206378 145.2917315 109.6349192  79.2899190 145.5213740 110.9184107
  74.5067809 136.0139760 118.1070237  74.2628741 136.7681821 117.5704513
  74.7827740 136.3925108 118.9417484  76.4606272 142.5578373 116.7847503
  76.6723167 143.2010133 116.1081884  76.4136020 141.7240689 116.3169433
  74.0632501 135.1696193 113.6884075  73.2016980 135.4677447 113.9800812
  74.0894935 135.3866592 112.7565107  70.8794070 143.7138384 110.0957880
  71.3432416 143.9926087 109.3062503  70.6150868 142.8121829 109.9130971
  67.7718151 143.2609866 113.0337644  68.3419508 143.6897134 112.3955128
  68.3626263 142.9792450 113.7321829  69.8162956 139.8361536 106.9047445
  70.5187000 140.2882580 107.3721372  69.4843585 139.1945355 107.5327339
  68.2643318 138.4273293 121.2798655  67.6341978 139.1089574 121.5134052
  68.1579406 138.3156375 120.3351793  63.5588290 138.0945089 112.2064579
  62.7687344 138.3502618 111.7304690  64.0499538 138.9093427 112.3116620
  65.5103036 138.4589668 109.1648056  64.7134199 138.5708363 109.6831551
  65.2828628 138.7976320 108.2988946  61.8425993 138.3475579 114.6379570
  62.0934032 139.2322589 114.9037146  62.3785542 138.1680181 113.8654662
  85.6658093 141.7789077 111.3054831  84.9121801 141.2096475 111.1498836
  85.8005634 141.7451741 112.2525466  71.0556721 146.6502479 106.9809551
  70.9202396 147.4954015 107.4094399  71.5966533 146.8521757 106.2175485
  67.5424061 132.7294059 123.6423906  67.1491006 132.1760257 124.3171550
  68.3590201 133.0404637 124.0330423  64.5086118 144.1677917 107.5537476
  65.0210639 144.9621167 107.7043040  65.1608831 143.4704207 107.4871077
  70.4592022 134.1451938 121.2344162  71.2001735 134.7459091 121.1548625
  70.6909944 133.4029576 120.6762205  65.6033360 139.3308305 119.5122392
  65.4886875 138.4293562 119.8129491  64.7477877 139.5772002 119.1607209
  74.4049185 130.1733041 115.5108444  74.0613454 131.0634683 115.4347555
  74.7728147 129.9834699 114.6478029  62.4735035 142.4966571 108.3297046
  63.3110257 142.9063580 108.1130754  62.6513303 141.5566013 108.2997240
  74.3699467 140.1641652 104.0180879  73.8546091 140.9346257 104.2569267
  74.0976776 139.4906788 104.6413941  71.9546578 135.0091353 109.0766118
  71.0988175 134.6198203 108.8971756  72.3673530 135.0883314 108.2165903
  73.4845725 132.5437696 113.4757677  72.9810520 132.5067831 112.6625483
  73.7776332 133.4530439 113.5354334  69.7288611 132.6276426 112.4823859
  70.5941608 132.4319234 112.1229749  69.7966120 132.3986778 113.4093216
  79.3433741 142.9174007 105.9534053  78.5663184 142.5785166 105.5089215
  80.0225222 142.9226630 105.2789018  74.1585770 138.0368744 105.8440660
  73.8535906 138.3514893 106.6950804  75.1116213 138.1150164 105.8867993
  72.6032202 144.1958967 107.4933614  72.0753564 143.4611727 107.1806852
  72.1019705 144.9733644 107.2473583  77.5825048 142.3907988 112.6100661
  76.9248723 143.0807249 112.6980789  78.3865447 142.7804420 112.9534647
  67.3350930 134.8578634 109.8540226  67.9094682 134.6353815 109.1213419
  67.9221912 134.9267328 110.6068827  76.3930507 140.7452361 110.6604602
  76.9062389 141.3782352 111.1626312  77.0431731 140.1453556 110.2947963
  67.6620517 136.8883095 103.8736111  66.8257829 137.2257781 104.1945386
  67.5225287 136.7532074 102.9363248  69.6373598 131.7319883 108.5815295
  68.9838010 131.4168900 107.9571910  69.5954072 131.1095623 109.3075118
  70.7484802 142.0139178 100.4968587  69.8411864 141.7828431 100.6959736
  71.2455834 141.2176797 100.6842569  72.8711338 138.2201816 112.9062943
  71.9533899 138.4416763 112.7484631  73.2871482 138.2948127 112.0474650
  73.6546386 139.6193232 108.0365623  74.4018205 140.1314629 107.7272745
  73.9237975 139.2977285 108.8970017  71.9273036 142.1151773 105.0192578
  71.0184255 141.8310805 105.1165047  71.9568120 142.5350851 104.1595884
  77.1592303 145.7258362 108.7883745  76.7054630 144.8849272 108.8448936
  76.5286270 146.3619760 109.1258525  76.1025223 136.6550348 110.0184413
  75.3647980 136.1427734 110.3494655  76.3551996 136.2150730 109.2067689
  75.6025243 147.5634859 109.7233563  75.8948217 148.1239916 109.0045929
  76.1123863 147.8563420 110.4786722  76.2036850 129.4326600 110.6126182
  76.5095727 128.5723963 110.3252097  76.9289455 130.0244220 110.4125176
  62.4961206 139.8357287 109.0007780  62.2985606 139.2426647 108.2758846
  61.9407870 139.5309497 109.7183719  70.4757930 139.7280393 111.1202373
  70.5306540 138.7754230 111.0444850  69.6649132 139.8839832 111.6043671
  71.6249124 143.6560516 102.3580656  71.1868554 142.9396375 101.8986293
  72.3659565 143.8836631 101.7965748  68.4150290 138.3457453 108.8792752
  67.6018155 138.6451623 109.2857944  68.9109284 137.9513142 109.5967234
  74.0124502 138.8099277 117.7107646  74.3673889 139.0370750 118.5702111
  74.6596633 139.1417654 117.0884901  79.7422238 141.9317713 108.4156975
  79.6040137 142.1219309 107.4878164  79.3858457 142.6937096 108.8725026
  67.9064365 135.9175808 114.4953987  68.5463744 135.7764567 113.7976950
  67.0741895 135.6310322 114.1192589  79.7691618 143.9994240 113.4268246
  80.2028125 143.9069529 114.2751300  80.4823199 143.9751741 112.7888262
  68.6824668 145.2178239 110.6088979  69.4765267 144.7228559 110.4071554
  67.9716361 144.6896102 110.2456685  64.9907432 139.3621321 106.6848732
  64.0605020 139.3005776 106.9018694  65.0864904 138.8397273 105.8885373
  64.9092981 135.8876133 109.2726974  65.1699798 136.8021467 109.1636134
  65.7310153 135.4200576 109.4223586  66.3817906 137.3013891 116.4425798
  67.0540960 137.0931253 115.7938447  65.5547693 137.1035977 116.0031030
  72.2843478 133.9275831 118.4591459  71.6371393 134.6265781 118.3655935
  73.0544494 134.3611975 118.8267707  72.4607613 141.7656596 116.5188279
  73.3899673 141.9167756 116.3457246  72.0398643 141.8540617 115.6636925
  71.2595944 145.7907261 114.2886816  71.1207030 145.4226045 115.1612754
  70.4710541 146.3054900 114.1170774  72.8101160 145.1688863 111.6775654
  72.4750992 145.1289633 112.5733304  72.3105105 144.5033579 111.2046064
  66.7845404 140.5756494 117.2028235  66.6465202 139.8436732 117.8039774
  67.6950327 140.4865394 116.9212423  75.7460351 142.5144898 101.9512714
  75.1289522 141.7891726 101.8545766  75.2776840 143.2754258 101.6079788
  69.4127704 140.2876453 116.6911915  70.1227323 139.6469645 116.6498533
  69.3697012 140.5389348 117.6138096  68.1256638 137.2741671 118.5107554
  67.5893995 136.8232409 119.1629151  67.5373347 137.4087580 117.7678019
  67.5358897 136.7330322 101.0734018  66.6588364 136.6119123 100.7096265
  68.0116650 135.9416400 100.8212907  59.0561037 141.5207482 111.1675525
  59.7432077 141.2069212 110.5796540  58.9009166 142.4248847 110.8942777
  63.8595759 136.4097678 115.5960549  63.7753948 135.8023348 114.8610959
  63.0378466 136.9006697 115.5970045  74.0319473 134.8951242 110.9630744
  74.5288173 134.1421204 110.6431814  73.2606455 134.9315559 110.3973953
  81.8849231 140.5991607 112.6049035  81.8739107 141.4816323 112.2342969
  81.0166610 140.2463158 112.4103572  75.1149254 143.6522929 108.5369167
  74.1805533 143.7724392 108.3673872  75.2925922 142.7495396 108.2729177
  70.6154442 137.0368625 110.6902429  70.2452230 136.4839665 111.3783334
  71.1113535 136.4326758 110.1377429  78.5021805 139.4940248 109.0719201
  78.9682258 140.3268240 108.9979504  78.9529306 139.0285230 109.7764460
  76.5698036 145.8384070 106.0705353  76.8457880 145.7240664 106.9799228
  75.7002535 145.4401555 106.0317527  76.4738468 131.8620835 113.1110103
  75.5601548 132.0925062 113.2792310  76.9031570 131.9459280 113.9624135
  76.2444927 140.0510727 115.6109997  75.5916377 140.2986635 114.9562450
  76.6225307 139.2374866 115.2772474  58.6329013 139.6008075 113.4392992
  58.6713113 139.0671666 114.2330110  58.1269306 139.0743281 112.8203969
  66.0119776 134.4472616 116.9355535  66.0761102 135.3087447 116.5232932
  65.9486896 133.8346617 116.2027893  65.4872048 136.5195748 120.5828569
  66.1144087 136.1372826 121.1966093  64.6299967 136.3009950 120.9484261
  62.2637591 138.3272177 106.5146924  62.5591032 137.4182856 106.4613977
  61.3625627 138.3059917 106.1927926  65.7931838 136.4028174 112.4974472
  65.0718424 137.0164142 112.3581946  66.5825094 136.9385939 112.4191118
  68.5958152 133.7382600 118.7715124  69.1192553 133.9844897 119.5341433
  68.3770485 134.5702635 118.3518261  63.9925433 136.0086275 106.6386249
  63.6638139 135.1283654 106.4561355  64.3464803 135.9533944 107.5262638
  73.2405011 147.6441178 111.1481234  73.0929974 146.7157885 111.3288804
  74.0658505 147.6661268 110.6638310  67.1067256 136.2959245 107.0061727
  67.4463328 136.8245166 106.2840335  67.5539376 136.6339651 107.7820293
  76.8439133 148.4669736 112.2346107  77.7685681 148.2612598 112.0970558
  76.6754437 148.2186138 113.1435449  69.8010697 134.6796296 116.4564795
  69.4607517 133.8804109 116.8585474  69.0949703 134.9798006 115.8841628
  70.4527168 131.7645608 114.9092118  71.2753238 131.2906086 114.7871008
  70.6965232 132.5436092 115.4090804  69.0935403 134.7933866 105.2055019
  69.8143765 135.1715119 104.7018736  68.4700707 135.5122743 105.3089997
  73.2366526 135.4979015 106.1413352  73.4530140 136.3803653 105.8402180
  72.7560593 135.1065229 105.4118994  67.9765747 138.4564729 112.7184096
  67.8310328 138.7705032 113.6108378  67.4990951 139.0749629 112.1654995
  69.8362130 135.4467277 112.7664986  69.8223699 134.5508370 112.4297284
  70.5534558 135.4537940 113.4003272  71.6888261 135.8804617 114.8118113
  71.4306039 136.8021687 114.8102444  71.1573301 135.4835051 115.5018577
  76.6334450 148.9855404 107.5908199  76.8071327 148.4201826 106.8382051
  77.1263341 149.7856299 107.4087689  62.4511409 140.9970073 115.6571757
  61.9064877 141.7729881 115.7892032  63.3290759 141.3440877 115.4990879
  69.2399026 134.3281657 108.0352556  69.3614937 133.3998303 108.2343443
  68.9501068 134.3420343 107.1230871  72.1090216 132.0136567 111.1719276
  72.1311913 132.0775900 110.2171255  72.5258275 131.1741076 111.3659782
  82.4873841 141.7491827 109.2098498  82.9304987 140.9999152 108.8117622
  81.6100351 141.7401963 108.8272230  77.6209622 148.3022168 104.6905097
  78.3160527 148.9228861 104.9092411  77.9632772 147.4517520 104.9657475
  63.2377431 140.1239969 118.5501914  62.4959167 140.2722605 119.1366545
  62.9170175 140.3848235 117.6868664  79.5201045 145.7521874 106.2192428
  80.0452369 146.0909147 105.4941748  79.4323398 144.8168889 106.0355562
  68.7240106 135.8413654 122.2442489  68.7728261 136.7175777 121.8620258
  69.2662620 135.2991047 121.6714132  68.2129085 145.9135790 106.1268443
  68.3617205 146.5971254 105.4735116  69.0195528 145.8940880 106.6417899
  70.9539394 136.5945027 118.9988847  70.0842703 136.8878593 118.7271436
  71.1898874 137.1785472 119.7196111  82.0306705 143.2197065 111.6020946
  82.8653597 143.6586869 111.7658506  82.1665834 142.7435718 110.7829192
  65.9681718 141.9400967 107.1329512  65.7227760 141.0363297 107.3309722
  66.1377632 141.9418118 106.1908990  73.6578428 132.8124644 116.5154268
  74.1760372 133.5485671 116.1900756  73.3033561 133.1188637 117.3501027
  65.2377365 137.6729325 104.6315673  64.5446610 137.7473680 103.9755709
  64.9929117 136.9089668 105.1537190  73.9091022 129.2324926 112.0355164
  74.1892776 128.5648115 112.6615591  74.6941629 129.4254022 111.5229828
  77.7799880 137.6542560 115.7826739  78.7317303 137.7540658 115.8038963
  77.6103331 136.8620829 116.2924824  75.8014260 134.7398143 115.9686140
  75.2064192 135.0203156 115.2732629  75.5163956 135.2292044 116.7402881
  77.5609767 148.0086941 101.6892720  77.4823398 147.6746804 102.5828478
  78.3819434 148.5008708 101.6884193  80.2587958 140.8748680 114.8969039
  80.2264278 139.9364681 115.0828723  80.8688582 140.9532717 114.1634864
  72.0971289 139.7444733 100.9396243  73.0430394 139.6150941 101.0084661
  71.7185534 139.0059395 101.4165671  80.4082447 137.6659723 114.9427322
  79.8921495 136.8818180 114.7557251  81.2922395 137.3378440 115.1073842
  78.0693174 131.4100739 110.9023135  77.8717995 131.1015827 111.7866467
  78.6792879 132.1362378 111.0321065  84.1579805 140.0772549 114.6349527
  83.4312969 139.9428514 114.0266018  83.7427092 140.3849378 115.4406245
  70.2814206 137.6694709 100.8751128  69.3745662 137.3727822 100.9513842
  70.5590187 137.3724527 100.0085414  61.1992147 138.9901073 111.3250175
  60.8794931 138.1366381 111.0324549  60.6525575 139.2049651 112.0808142
  64.9772054 141.7063514 115.0419681  65.1958064 142.6380621 115.0607715
  65.3897828 141.3471488 115.8274485  71.8976272 132.2131599 107.0295369
  71.0877000 131.8678684 107.4050616  72.5860689 131.9039143 107.6182981
  73.8266820 131.2909646 108.6519666  74.3797859 131.7105099 109.3109689
  74.0636906 130.3645394 108.6942622  69.0512991 134.5281644 101.0163107
  69.9132155 134.8536543 101.2758925  69.2363335 133.7413140 100.5036173
  61.0680407 142.6103984 113.2943296  60.3743878 142.1957937 112.7813251
  61.8153398 142.6524521 112.6976715  77.2045627 133.4010171 108.1598330
  76.6244296 134.0594975 107.7776383  76.9381560 132.5787515 107.7485748
  75.6549194 132.8015229 110.3619651  76.1548972 132.9131763 109.5533970
  76.2984802 132.4976281 111.0020459  62.9817149 142.5422238 111.1709311
  62.9587837 142.6409925 110.2191194  63.2917786 143.3887389 111.4926477
  65.6404527 144.5998393 115.2855925  66.5947780 144.5682335 115.2185857
  65.4417050 144.1389017 116.1006151  66.2303909 143.1699509 117.8526723
  67.0496798 143.6643588 117.8761560  66.5040717 142.2531477 117.8244291
  75.9870505 135.5610261 107.2154679  75.0996360 135.8459912 106.9974873
  76.4024494 135.4004025 106.3681956  79.3385041 135.5856782 110.9309018
  80.1145431 136.0753235 111.2033635  78.6133176 136.0114836 111.3880887
  81.7757600 136.2984401 111.9882959  82.3702091 136.0580137 111.2776267
  81.8484184 135.5791532 112.6156495  75.1313719 145.3254936 101.3102699
  75.8349569 145.5304938 101.9260354  74.4076367 145.8931698 101.5751782
  75.9611529 141.0764797 107.4304969  75.9046730 141.5333349 106.5912601
  76.5139871 140.3155482 107.2527812  79.7716335 136.8654529 108.2555088
  79.5153269 136.4651165 109.0863296  79.1469203 137.5798323 108.1305227
  84.0828673 139.6050602 110.7626380  83.5228231 139.6743792 111.5357942
  83.4772176 139.4291587 110.0425876  77.0400416 145.7637465 103.3601159
  77.8746020 145.3318664 103.1778633  76.8784759 145.5919479 104.2878053
  76.6946308 142.2669578 104.7257498  76.6395112 142.1013850 103.7845942
  76.0692364 142.9745611 104.8819688  61.4838823 137.5037643 118.5518920
  62.1297687 136.9936597 119.0406145  61.2755974 138.2406324 119.1262345
  70.0042434 131.7677687 104.3042816  69.9921104 132.7119527 104.4611087
  70.8965856 131.5847833 104.0102278  73.8194553 128.3620464 108.5588753
  73.0526949 127.8078951 108.7045436  74.2305258 128.4342333 109.4202905
  65.8236314 134.6505260 122.6493934  66.6867776 134.2942065 122.8597259
  65.2501725 134.3119155 123.3369339  82.7940333 150.3383270 109.0766118
  81.9381929 149.9490121 108.8971756  83.2067285 150.4175231 108.2165903
  78.1744684 150.1870551 109.8540226  78.7488436 149.9645733 109.1213419
  78.7615667 150.2559246 110.6068827  80.4767352 147.0611800 108.5815295
  79.8231764 146.7460817 107.9571910  80.4347826 146.4387541 109.3075118
  87.0430605 144.7618518 110.6126182  87.3489481 143.9015881 110.3252097
  87.7683209 145.3536138 110.4125176  84.0760280 150.8270933 106.1413352
  84.2923895 151.7095571 105.8402180  83.5954347 150.4357146 105.4118994
  80.0792780 149.6573575 108.0352556  80.2008692 148.7290221 108.2343443
  79.7894823 149.6712261 107.1230871  82.9483971 147.3428485 111.1719276
  82.9705668 147.4067818 110.2171255  83.3652030 146.5032994 111.3659782
  84.7484776 144.5616844 112.0355164  85.0286530 143.8940033 112.6615591
  85.5335383 144.7545939 111.5229828  82.7370026 147.5423517 107.0295369
  81.9270755 147.1970602 107.4050616  83.4254443 147.2331060 107.6182981
  84.6660575 146.6201563 108.6519666  85.2191613 147.0397017 109.3109689
  84.9030661 145.6937311 108.6942622  79.8906745 149.8573562 101.0163107
  80.7525909 150.1828460 101.2758925  80.0757089 149.0705058 100.5036173
  88.0439382 148.7302089 108.1598330  87.4638051 149.3886893 107.7776383
  87.7775314 147.9079433 107.7485748  86.8264260 150.8902179 107.2154679
  85.9390115 151.1751830 106.9974873  87.2418249 150.7295942 106.3681956
  80.8436188 147.0969605 104.3042816  80.8314858 148.0411445 104.4611087
  81.7359610 146.9139751 104.0102278  84.6588308 143.6912382 108.5588753
  83.8920704 143.1370868 108.7045436  85.0699013 143.7634250 109.4202905
   9.7928411  25.9825815 100.1801642  10.4306821  25.8632562  99.4764982
   9.6749254  26.9306659 100.2389594   6.6018117  25.9353243 100.1163167
   6.2636629  25.8194308  99.2283702   7.4707886  25.5344408 100.0964173
   2.4604933  27.7888720  96.1060058   1.8969798  27.6978657  95.3376345
   2.3457328  26.9688624  96.5862550   7.0837900  27.0888095 106.0749372
   7.0726541  26.6940893 105.2029876   7.2458540  26.3554168 106.6683144
   8.0404492  31.4559687  91.4174523   7.3892471  32.0413768  91.0308536
   8.8348855  31.9865882  91.4769560   1.9660119  28.5448824  91.8161657
   2.7390995  27.9977812  91.6774533   2.3185518  29.4093074  92.0276118
   3.8045161  29.8725207 105.0228556   3.5135027  30.7770838 104.9075223
   4.4402146  29.9141734 105.7372626   4.7301368  27.2502055 101.6129916
   5.3264941  27.0258078 100.8986879   4.7876340  26.5086801 102.2155364
   4.3026397  24.7041491  89.4480107   4.5551917  24.1823012  88.6863570
   3.3650956  24.5407636  89.5506790   9.3469680  23.7077269  97.2554850
  10.1332769  23.2896692  96.9045267   9.6108384  24.6123361  97.4236498
   9.5179757  29.1450119  91.9543507   8.8825590  29.2184746  92.6664412
   9.1877163  29.7343718  91.2762586  14.7478107  23.6452502  98.1587829
  15.4803279  23.0751719  98.3925658  13.9917462  23.2574103  98.5994334
   4.0222685  26.6069597  91.6504482   3.9058944  25.9314500  92.3185566
   4.1324945  26.1201970  90.8336635   6.3654226  26.0679744  95.3551171
   6.0012434  25.5410365  96.0664093   7.2221342  25.6778213  95.1817656
  12.2703527  17.3574076 102.6182437  11.9386852  18.2269487 102.3943652
  11.6749140  17.0410360 103.2976468   6.0059713  21.0969643  90.3512520
   6.1734116  21.9649880  90.7182991   5.8156882  21.2596925  89.4273809
   8.7635047  29.5586622 102.0178350   8.4635770  30.4611661 101.9094157
   8.4186106  29.2918805 102.8699503   2.2147528  26.0100419  98.0515054
   1.2898024  25.8776633  98.2592746   2.4631941  26.7894638  98.5484997
  12.1632190  22.0769162  99.6975787  11.2549068  22.0084571  99.4034548
  12.1119786  22.5541107 100.5257613   5.9848934  23.5527301  91.3359186
   5.8648559  23.9984352  92.1744667   5.2901523  23.9012618  90.7772725
   3.7455826  36.3230943  94.9849318   3.6679856  37.2738768  95.0637798
   3.1417470  35.9776815  95.6424244  14.0293837  20.2785601 101.4753661
  13.3868217  20.5718134 100.8293456  13.5248765  20.1638521 102.2806858
  11.6834000  24.0248774  92.1639520  12.5951856  24.2576161  91.9887218
  11.1743647  24.6085818  91.6014599   9.9674768  28.4473402 105.8000813
  10.3758124  28.0055812 105.0555445   9.2452030  27.8726029 106.0535006
   6.3205838  23.3846009 103.1734370   7.1667033  23.8085422 103.3169019
   6.2604476  22.7279633 103.8672933  10.2903583  29.0074592  99.5553102
   9.6612445  29.1720307  98.8529170   9.9029245  29.4216202 100.3264066
  14.1692815  29.9429030  96.9097466  13.4843853  30.3227932  96.3594499
  14.2536664  30.5524357  97.6429413  11.4243746  27.5888989 103.5092809
  11.6360641  28.2320749 102.8327190  11.3773494  26.7551306 103.0414739
   9.0269975  20.2006810 100.4129381   8.1654454  20.4988064 100.7046119
   9.0532410  20.4177209  99.4810414   5.8431545  28.7449001  96.8203187
   6.3069890  29.0236704  96.0307809   5.5788343  27.8432445  96.6376278
   2.7355626  28.2920482  99.7582950   3.3056983  28.7207750  99.1200435
   3.3263737  28.0103067 100.4567136   4.7800431  24.8672153  93.6292752
   5.4824474  25.3193197  94.0966678   4.4481059  24.2255972  94.2572645
  12.5389574  30.4660945 101.6815167  13.3607018  30.0641132 101.3997848
  12.5351977  30.3629179 102.6331282   6.3046178  30.0144988 103.8375877
   6.3690610  30.4765395 104.6734049   5.5957101  29.3842353 103.9658187
  20.6295567  26.8099693  98.0300138  19.8759276  26.2407091  97.8744142
  20.7643108  26.7762358  98.9770773   6.0194195  31.6813096  93.7054857
   5.8839870  32.5264631  94.1339705   6.5604008  31.8832373  92.9420791
   1.2818477  32.3154290  96.3605536   1.4585106  33.2372255  96.1726520
   2.0775311  32.0012709  96.7899915   7.6462672  32.3036662 107.8355199
   7.2026526  31.5173041 107.5176104   8.3079885  32.4915813 107.1699090
   2.4049793  33.8332464 102.3615878   2.9557218  33.7049527 101.5892872
   1.5661269  34.1327353 102.0110771   9.7443910  32.5839462 105.8636601
   9.7262385  33.4048343 105.3716870  10.6663830  32.4593537 106.0886742
   6.2016964  30.0983591 106.7060109   6.7345301  29.3371880 106.4759417
   5.6731045  29.8057243 107.4484264   9.3336942  25.1952269  90.7426186
   8.8183565  25.9656873  90.9814573   9.0614250  24.5217405  91.3659247
   6.9184053  20.0401969  95.8011424   6.0625649  19.6508820  95.6217063
   7.3311004  20.1193930  94.9411210   8.4483199  17.5748313 100.2002984
   7.9447995  17.5378448  99.3870789   8.7413806  18.4841055 100.2599641
  14.3071216  27.9484623  92.6779359  13.5300658  27.6095783  92.2334521
  14.9862697  27.9537246  92.0034324   9.1223245  23.0679361  92.5685967
   8.8173380  23.3825510  93.4196110  10.0753687  23.1460781  92.6113300
   7.5669677  29.2269584  94.2178921   7.0391038  28.4922344  93.9052159
   7.0657179  30.0044260  93.9718889  12.5462523  27.4218604  99.3345967
  11.8886197  28.1117866  99.4226096  13.3502922  27.8115036  99.6779954
  11.3567981  25.7762977  97.3849909  11.8699863  26.4092969  97.8871619
  12.0069205  25.1764173  97.0193269   2.6257991  21.9193711  90.5981418
   1.7895304  22.2568398  90.9190693   2.4862761  21.7842691  89.6608555
   5.7122277  27.0449794  87.2213894   4.8049338  26.8139048  87.4205043
   6.2093309  26.2487413  87.4087876   8.6190356  35.7547301  90.1410580
   7.9452054  36.0578998  90.7495538   9.0056178  36.5576382  89.7916037
   7.8348812  23.2512433  99.6308250   6.9171374  23.4727380  99.4729938
   8.2508956  23.3258743  98.7719957   8.6183860  24.6503848  94.7610930
   9.3655679  25.1625246  94.4518052   8.8875450  24.3287901  95.6215323
   6.8910510  27.1462389  91.7437884   5.9821729  26.8621422  91.8410354
   6.9205594  27.5661468  90.8841191  12.1229778  30.7568979  95.5129052
  11.6692105  29.9159888  95.5694242  11.4923744  31.3930377  95.8503832
  11.0662697  21.6860965  96.7429719  10.3285454  21.1738351  97.0739962
  11.3189471  21.2461346  95.9312996  10.5662717  32.5945475  96.4478870
  10.8585691  33.1550532  95.7291236  11.0761337  32.8874036  97.2032029
  11.1674324  14.4637217  97.3371489  11.4733201  13.6034580  97.0497404
  11.8926929  15.0554837  97.1370482   5.4395404  24.7591010  97.8447680
   5.4944014  23.8064846  97.7690156   4.6286606  24.9150449  98.3288978
   6.5886598  28.6871133  89.0825963   6.1506028  27.9706992  88.6231600
   7.3297039  28.9147248  88.5211054   3.3787764  23.3768069  95.6038058
   2.5655630  23.6762240  96.0103251   3.8746758  22.9823758  96.3212541
   5.5296342  33.3725826  97.5372323   5.4872521  33.5986673  96.6080855
   6.4459041  33.1389201  97.6858124   8.9761976  23.8409894 104.4352952
   9.3311364  24.0681367 105.2947418   9.6234107  24.1728271 103.8130208
  14.7059713  26.9628330  95.1402281  14.5677611  27.1529926  94.2123471
  14.3495932  27.7247713  95.5970332   2.8701839  20.9486425 101.2199293
   3.5101218  20.8075184 100.5222257   2.0379369  20.6620938 100.8437895
  14.7329092  29.0304857 100.1513553  15.1665599  28.9380146 100.9996607
  15.4460673  29.0062357  99.5133569   3.6462143  30.2488855  97.3334286
   4.4402741  29.7539175  97.1316861   2.9353835  29.7206718  96.9701991
   8.4656987  32.6306951 101.6846653   8.5194010  33.1997887 102.4524369
   7.5971769  32.8008836 101.3200691  15.5944642  29.0728557 102.6846438
  15.7880532  29.9774368 102.9305713  15.4945260  28.6135977 103.5185023
  10.6559751  29.2235300 108.2587319  10.5045257  28.9945852 107.3417403
  10.6464430  30.1805902 108.2718664   7.4245087  26.7967213 103.2433585
   8.3537147  26.9478373 103.0702553   7.0036117  26.8851234 102.3882232
   6.2233419  30.8217877 101.0132123   6.0844504  30.4536662 101.8858061
   5.4348015  31.3365517 100.8416081   6.8181571  35.9226974  92.3557659
   6.9933326  35.4515017  93.1703282   6.1314359  36.5492740  92.5838920
   7.7738634  30.1999480  98.4020961   7.4388467  30.1600250  99.2978611
   7.2742580  29.5344196  97.9291371  10.7097826  27.5455514  88.6758020
  10.0926996  26.8202343  88.5791073  10.2414314  28.3064875  88.3325095
   4.3765179  25.3187069 103.4157222   5.0864797  24.6780262 103.3743840
   4.3334487  25.5699964 104.3383402  12.3651957  32.2554423 106.3363801
  12.3064503  31.5713643 105.6694384  12.7671476  32.9973413 105.8844427
   1.3842656  39.0716337  99.1297520   1.6239254  39.7034861  99.8076538
   0.5411853  38.7204377  99.4162879   2.4996372  21.7640939  87.7979325
   1.6225838  21.6429739  87.4341571   2.9754125  20.9727017  87.5458213
  12.3669365  30.2194007 104.5677780  11.4796143  29.8819928 104.6904179
  12.9367916  29.4877038 104.8046546   5.8970518  34.8795459 101.5339024
   5.8240689  35.6850431 102.0458328   5.4547911  35.0787425 100.7087045
   5.6860298  34.1167229  95.0441845   4.9027819  34.6588909  95.1380070
   6.3853043  34.6341209  95.4436086   8.9956948  19.9261859  97.6876051
   9.4925647  19.1731821  97.3677121   8.2243929  19.9626175  97.1219260
  16.8486705  25.6302224  99.3294342  16.8376581  26.5126939  98.9588275
  15.9804084  25.2773775  99.1348879   8.3569201  34.7782293 103.6897182
   9.0697174  35.4129758 103.6173084   7.8659230  34.8746159 102.8737184
  10.0786728  28.6833546  95.2614474   9.1443007  28.8035008  95.0919178
  10.2563397  27.7806012  94.9974484   5.5791916  22.0679241  97.4147735
   5.2089704  21.5150282  98.1028641   6.0751009  21.4637375  96.8622735
  13.4659280  24.5250865  95.7964508  13.9319732  25.3578857  95.7224811
  13.9166780  24.0595847  96.5009767   3.4081115  32.5276737 104.5102753
   4.1090574  33.1613219 104.6632147   2.9376230  32.8691468 103.7498392
  11.5335511  30.8694686  92.7950660  11.8095355  30.7551281  93.7044534
  10.6640010  30.4712171  92.7562833  11.4375942  16.8931452  99.8355409
  10.5239022  17.1235679 100.0037616  11.8669044  16.9769896 100.6869442
  11.2082401  25.0821344 102.3355303  10.5553851  25.3297251 101.6807756
  11.5862781  24.2685482 102.0017781   8.1689575  35.1181037  96.4383474
   8.3511969  34.3002693  96.9011226   8.9922561  35.3348729  96.0008364
   8.5031740  34.0449222  93.6998522   9.0319507  33.5341677  93.0868684
   8.7659960  33.7291752  94.5644055   1.8587488  35.0964339  96.4596298
   1.1897864  35.5810467  95.9760338   1.7200358  35.3433559  97.3739677
   5.9992757  37.1308082 103.0578957   6.5511065  37.2939704 103.8228042
   6.3398950  37.7212520 102.3858981  10.8503631  31.9569340 108.9127611
  11.3943535  32.5699298 108.4182566  10.2690476  32.5148918 109.4294624
   9.1361144  35.0790058 100.0442639   9.0112284  34.2779798  99.5353584
   9.7940235  35.5736251  99.5556609  11.1996052  32.8799078 101.6722189
  10.2526388  32.7604429 101.6000516  11.5478826  31.9921576 101.7548450
   8.2042486  32.6751794  97.8726541   8.0567448  31.7468502  98.0534111
   9.0295979  32.6971885  97.3883616   2.0704730  21.3269861  93.7307033
   2.4100803  21.8555783  93.0085642   2.5176851  21.6650267  94.5065600
  11.8076608  33.4980353  98.9591414  12.7323155  33.2923214  98.8215865
  11.6391911  33.2496754  99.8680755   4.0572877  19.8244483  91.9300326
   4.7781240  20.2025736  91.4264043   3.4338181  20.5433360  92.0335304
   8.2004000  20.5289632  92.8658658   8.4167614  21.4114270  92.5647486
   7.7198067  20.1375845  92.1364300   2.9403221  23.4875345  99.4429403
   2.7947802  23.8015648 100.3353684   2.4628425  24.1060245  98.8900301
   4.7999604  20.4777893  99.4910292   4.7861173  19.5818986  99.1542590
   5.5172032  20.4848557 100.1248578   6.6525735  20.9115233 101.5363420
   6.3943513  21.8332304 101.5347750   6.1210775  20.5145668 102.2263884
  11.5971924  34.0166020  94.3153505  11.7708801  33.4512443  93.5627358
  12.0900815  34.8166915  94.1332995  17.4511315  26.7802443  95.9343805
  17.8942461  26.0309769  95.5362928  16.5737825  26.7712580  95.5517537
  12.5847096  33.3332785  91.4150403  13.2798001  33.9539478  91.6337718
  12.9270246  32.4828136  91.6902781  14.4838519  30.7832490  92.9437734
  15.0089844  31.1219763  92.2187054  14.3960872  29.8479506  92.7600869
   6.1458568  34.6966564 105.0727611   6.4545695  34.4515711 105.9450310
   6.9434050  34.9013203 104.5846481   6.1679180  36.8504474  97.3032987
   5.7284170  36.3580852  97.9965844   6.9187297  36.3077441  97.0625063
   3.6153052  32.3942483  99.3755289   2.9933062  31.7313188  99.0757517
   4.2857919  32.4203615  98.6928937  14.1732426  31.4165394 108.2488932
  13.3827969  31.3989533 107.7093432  13.9365780  31.9553688 109.0037969
  14.2930301  28.2657860 105.5621661  14.3428306  28.1007868 106.5037184
  14.1844224  27.3985119 105.1719542   3.1766559  30.9446406  92.8513750
   3.3254680  31.6281871  92.1980422   3.9833003  30.9251496  93.3663205
  15.7948497  30.6854802 105.8063682  15.5033306  31.0484782 106.6427143
  15.1820629  29.9721810 105.6277014  16.9944180  28.2507682  98.3266253
  17.8291071  28.6897486  98.4903813  17.1303309  27.7746335  97.5074498
  14.0435686  25.8087417 104.2743740  14.5189807  26.0015063 103.4662592
  13.1201251  25.8646602 104.0287124   0.9319192  26.9711584  93.8574819
   0.6865234  26.0673914  94.0555029   1.1015107  26.9728734  92.9154297
   6.6761965  33.4394537  90.3225497   6.1035932  34.0584724  89.8695969
   7.2494758  33.9893898  90.8565419  12.7437355  22.6853177 102.5072046
  13.6954778  22.7851274 102.5284270  12.5740805  21.8931445 103.0170130
  10.7651734  19.7708760 102.6931447  10.1701666  20.0513773 101.9977935
  10.4801431  20.2602661 103.4648188   9.8959225  33.7231687  91.4534079
  10.8289898  33.6577248  91.6566955   9.8082437  34.5587954  90.9948612
  12.5247241  33.0397557  88.4138027  12.4460873  32.7057421  89.3073785
  13.3456908  33.5319325  88.4129499  15.2225432  25.9059296 101.6214346
  15.1901753  24.9675297 101.8074029  15.8326056  25.9843333 100.8880170
   7.0608763  24.7755349  87.6641550   8.0067868  24.6461557  87.7329968
   6.6823008  24.0370011  88.1410978  15.3719921  22.6970340 101.6672629
  14.8558970  21.9128796 101.4802558  16.2559869  22.3689056 101.8319148
  13.0330648  16.4411355  97.6268441  12.8355469  16.1326444  98.5111773
  13.6430353  17.1672994  97.7566371  21.0401982  26.9675303 100.7620382
  21.7705371  26.7060591 101.3228086  20.4308928  26.2304025 100.8022450
  19.1217279  25.1083166 101.3594834  18.3950443  24.9739131 100.7511325
  18.7064566  25.4159994 102.1651552   5.2451680  22.7005326  87.5996435
   4.3383136  22.4038438  87.6759148   5.5227661  22.4035144  86.7330721
   8.7904294  16.3220262  95.3764973   9.3435333  16.7415716  96.0354996
   9.0274381  15.3956010  95.4187929   4.0150465  19.5592261  87.7408414
   4.8769629  19.8847159  88.0004231   4.2000809  18.7723757  87.2281480
  12.1683102  18.4320787  94.8843637  11.5881771  19.0905591  94.5021689
  11.9019034  17.6098132  94.4731054  10.6186668  17.8325845  97.0864957
  11.1186446  17.9442380  96.2779276  11.2622276  17.5286898  97.7265766
   0.6042001  29.6309009 102.0101232   1.5585255  29.5992952 101.9431164
   0.4054525  29.1699633 102.8251458   1.1941383  28.2010125 104.5772030
   2.0134272  28.6954204 104.6006867   1.4678191  27.2842094 104.5489597
  10.9507980  20.5920878  93.9399985  10.0633835  20.8770528  93.7220180
  11.3661969  20.4314641  93.0927262  14.3022516  20.6167399  97.6554324
  15.0782906  21.1063851  97.9278941  13.5770650  21.0425453  98.1126194
  16.7395074  21.3295018  98.7128265  17.3339565  21.0890754  98.0021573
  16.8121658  20.6102149  99.3401801  10.0951193  30.3565552  88.0348005
  10.7987043  30.5615555  88.6505661   9.3713842  30.9242314  88.2997089
  10.9249003  26.1075414  94.1550275  10.8684205  26.5643965  93.3157908
  11.4777346  25.3466098  93.9773118  14.7353809  21.8965146  94.9800395
  14.4790743  21.4961781  95.8108603  14.1106677  22.6108940  94.8550534
  19.0466147  24.6361219  97.4871686  18.4865705  24.7054408  98.2603248
  18.4409650  24.4602203  96.7671183   2.1161356  36.0697946  99.2389873
   1.9993740  37.0143378  99.1368563   1.2953802  35.7671507  99.6275672
  12.0037890  30.7948082  90.0846465  12.8383494  30.3629280  89.9023940
  11.8422233  30.6230095  91.0123360  11.6583783  27.2980195  91.4502805
  11.6032586  27.1324466  90.5091249  11.0329838  28.0056228  91.6064994
   3.1415870  36.7226208 102.4545801   4.0443117  36.7549818 102.7712296
   2.9153240  35.7926659 102.4692137   4.8969472  35.4757194  99.1155880
   3.9465103  35.4759056  99.0020252   5.2001958  34.7289929  98.5991914
  20.6322166  41.3117733 100.1801642  21.2700575  41.1924480  99.4764982
  20.5143008  42.2598577 100.2389594  17.4411872  41.2645161 100.1163167
  17.1030383  41.1486226  99.2283702  18.3101640  40.8636326 100.0964173
  13.2998687  43.1180637  96.1060058  12.7363553  43.0270574  95.3376345
  13.1851083  42.2980542  96.5862550  17.9231655  42.4180013 106.0749372
  17.9120296  42.0232811 105.2029876  18.0852294  41.6846085 106.6683144
  10.8463119  44.6131829  98.9444278  11.6384411  44.2722654  98.5290577
  11.0859770  44.7226804  99.8646431  18.8798246  46.7851605  91.4174523
  18.2286226  47.3705685  91.0308536  19.6742609  47.3157800  91.4769560
  12.8053873  43.8740742  91.8161657  13.5784749  43.3269729  91.6774533
  13.1579272  44.7384991  92.0276118  14.6438916  45.2017124 105.0228556
  14.3528782  46.1062755 104.9075223  15.2795900  45.2433652 105.7372626
  15.5695123  42.5793973 101.6129916  16.1658695  42.3549995 100.8986879
  15.6270094  41.8378718 102.2155364  15.1420151  40.0333408  89.4480107
  15.3945672  39.5114930  88.6863570  14.2044710  39.8699554  89.5506790
  20.1863434  39.0369187  97.2554850  20.9726523  38.6188610  96.9045267
  20.4502138  39.9415279  97.4236498  20.3573511  44.4742037  91.9543507
  19.7219344  44.5476663  92.6664412  20.0270918  45.0635636  91.2762586
  25.5871861  38.9744420  98.1587829  26.3197033  38.4043637  98.3925658
  24.8311217  38.5866020  98.5994334  14.8616440  41.9361514  91.6504482
  14.7452698  41.2606418  92.3185566  14.9718700  41.4493888  90.8336635
  17.2047981  41.3971661  95.3551171  16.8406188  40.8702282  96.0664093
  18.0615097  41.0070130  95.1817656  23.1097281  32.6865994 102.6182437
  22.7780606  33.5561405 102.3943652  22.5142895  32.3702278 103.2976468
  16.8453468  36.4261561  90.3512520  17.0127870  37.2941797  90.7182991
  16.6550637  36.5888843  89.4273809  19.6028801  44.8878540 102.0178350
  19.3029524  45.7903579 101.9094157  19.2579861  44.6210723 102.8699503
  13.0541282  41.3392337  98.0515054  12.1291779  41.2068551  98.2592746
  13.3025696  42.1186556  98.5484997  23.0025945  37.4061080  99.6975787
  22.0942822  37.3376489  99.4034548  22.9513541  37.8833025 100.5257613
  16.8242689  38.8819218  91.3359186  16.7042314  39.3276269  92.1744667
  16.1295277  39.2304536  90.7772725  10.4150094  40.9825610  98.8858843
  10.5442475  41.2360089  99.7998255   9.7347545  41.5753318  98.5663498
  14.5849581  51.6522860  94.9849318  14.5073611  52.6030685  95.0637798
  13.9811224  51.3068733  95.6424244  17.0766811  38.8250726 107.6410685
  16.3000145  39.3844646 107.6313549  17.7157374  39.3107509 108.1625555
  24.8687591  35.6077518 101.4753661  24.2261971  35.9010052 100.8293456
  24.3642520  35.4930439 102.2806858  22.5227755  39.3540692  92.1639520
  23.4345611  39.5868078  91.9887218  22.0137402  39.9377736  91.6014599
  15.3313183  41.6336179 107.2028652  16.0727867  42.1721223 106.9263475
  14.6250168  42.2602468 107.3600203  20.8068523  43.7765320 105.8000813
  21.2151879  43.3347730 105.0555445  20.0845784  43.2017947 106.0535006
  17.1599593  38.7137926 103.1734370  18.0060788  39.1377340 103.3169019
  17.0998230  38.0571551 103.8672933  21.1297337  44.3366510  99.5553102
  20.5006200  44.5012224  98.8529170  20.7422999  44.7508120 100.3264066
  25.0086569  45.2720948  96.9097466  24.3237607  45.6519849  96.3594499
  25.0930418  45.8816275  97.6429413  20.3099038  36.3742295 104.8315544
  20.0659970  37.1284355 104.2949819  20.5858968  36.7527642 105.6662791
  22.2637501  42.9180907 103.5092809  22.4754396  43.5612667 102.8327190
  22.2167249  42.0843224 103.0414739  19.8663730  35.5298728 100.4129381
  19.0048209  35.8279981 100.7046119  19.8926164  35.7469127  99.4810414
  16.6825299  44.0740918  96.8203187  17.1463645  44.3528621  96.0307809
  16.4182097  43.1724363  96.6376278  13.5749380  43.6212400  99.7582950
  14.1450737  44.0499668  99.1200435  14.1657492  43.3394984 100.4567136
  15.6194185  40.1964071  93.6292752  16.3218228  40.6485114  94.0966678
  15.2874814  39.5547889  94.2572645  14.0674547  38.7875827 108.0043962
  13.4373207  39.4692108 108.2379358  13.9610635  38.6758909 107.0597100
   9.3619519  38.4547623  98.9309886   8.5718573  38.7105152  98.4549996
   9.8530766  39.2695961  99.0361926  23.3783329  45.7952862 101.6815167
  24.2000772  45.3933050 101.3997848  23.3745732  45.6921097 102.6331282
  11.3134264  38.8192202  95.8893362  10.5165428  38.9310897  96.4076858
  11.0859857  39.1578855  95.0234253  17.1439932  45.3436906 103.8375877
  17.2084365  45.8057313 104.6734049  16.4350856  44.7134271 103.9658187
   7.6457222  38.7078114 101.3624876   7.8965260  39.5925124 101.6282452
   8.1816770  38.5282715 100.5899968  31.4689322  42.1391611  98.0300138
  30.7153030  41.5699009  97.8744142  31.6036863  42.1054275  98.9770773
  16.8587950  47.0105013  93.7054857  16.7233625  47.8556549  94.1339705
  17.3997762  47.2124291  92.9420791  13.3455289  33.0896593 110.3669213
  12.9522235  32.5362792 111.0416857  14.1621430  33.4007172 110.7575730
  10.3117347  44.5280451  94.2782782  10.8241868  45.3223701  94.4288347
  10.9640060  43.8306742  94.2116384  12.1212232  47.6446208  96.3605536
  12.2978860  48.5664172  96.1726520  12.9169065  47.3304627  96.7899915
  16.2623250  34.5054472 107.9589469  17.0032964  35.1061625 107.8793932
  16.4941173  33.7632110 107.4007512  11.4064588  39.6910839 106.2367699
  11.2918104  38.7896097 106.5374798  10.5509106  39.9374536 105.8852515
  18.4856426  47.6328580 107.8355199  18.0420280  46.8464958 107.5176104
  19.1473640  47.8207730 107.1699090  13.2443547  49.1624381 102.3615878
  13.7950972  49.0341445 101.5892872  12.4055023  49.4619270 102.0110771
  20.5837664  47.9131380 105.8636601  20.5656140  48.7340261 105.3716870
  21.5057584  47.7885455 106.0886742  17.0410718  45.4275509 106.7060109
  17.5739055  44.6663797 106.4759417  16.5124799  45.1349161 107.4484264
  20.2080413  30.5335575 102.2353751  19.8644683  31.4237217 102.1592861
  20.5759376  30.3437233 101.3723336   8.2766264  42.8569106  95.0542353
   9.1141486  43.2666114  94.8376061   8.4544532  41.9168548  95.0242547
  20.1730696  40.5244186  90.7426186  19.6577319  41.2948791  90.9814573
  19.9008004  39.8509322  91.3659247  17.7577807  35.3693887  95.8011424
  16.9019403  34.9800737  95.6217063  18.1704759  35.4485848  94.9411210
  19.2876954  32.9040230 100.2002984  18.7841749  32.8670365  99.3870789
  19.5807561  33.8132973 100.2599641  15.5319840  32.9878960  99.2069166
  16.3972836  32.7921769  98.8475055  15.5997348  32.7589312 100.1338523
  25.1464970  43.2776541  92.6779359  24.3694413  42.9387700  92.2334521
  25.8256451  43.2829164  92.0034324  19.9616999  38.3971278  92.5685967
  19.6567135  38.7117427  93.4196110  20.9147441  38.4752698  92.6113300
  18.4063431  44.5561502  94.2178921  17.8784793  43.8214261  93.9052159
  17.9050934  45.3336178  93.9718889  23.3856277  42.7510522  99.3345967
  22.7279951  43.4409783  99.4226096  24.1896676  43.1406954  99.6779954
  13.1382159  35.2181168  96.5785533  13.7125911  34.9956349  95.8458726
  13.7253141  35.2869862  97.3314134  22.1961736  41.1054895  97.3849909
  22.7093618  41.7384887  97.8871619  22.8462960  40.5056090  97.0193269
  13.4651746  37.2485629  90.5981418  12.6289058  37.5860315  90.9190693
  13.3256515  37.1134609  89.6608555  15.4404826  32.0922417  95.3060602
  14.7869239  31.7771434  94.6817217  15.3985301  31.4698157  96.0320425
  16.5516031  42.3741712  87.2213894  15.6443093  42.1430965  87.4205043
  17.0487063  41.5779331  87.4087876  19.4584110  51.0839219  90.1410580
  18.7845809  51.3870916  90.7495538  19.8449932  51.8868299  89.7916037
  18.6742567  38.5804350  99.6308250  17.7565128  38.8019297  99.4729938
  19.0902710  38.6550661  98.7719957  19.4577614  39.9795766  94.7610930
  20.2049433  40.4917163  94.4518052  19.7269204  39.6579819  95.6215323
  17.7304265  42.4754307  91.7437884  16.8215484  42.1913340  91.8410354
  17.7599348  42.8953385  90.8841191  22.9623532  46.0860896  95.5129052
  22.5085859  45.2451806  95.5694242  22.3317499  46.7222295  95.8503832
  21.9056452  37.0152882  96.7429719  21.1679208  36.5030268  97.0739962
  22.1583225  36.5753264  95.9312996  21.4056471  47.9237393  96.4478870
  21.6979446  48.4842450  95.7291236  21.9155092  48.2165954  97.2032029
  22.0068079  29.7929134  97.3371489  22.3126956  28.9326498  97.0497404
  22.7320684  30.3846754  97.1370482   8.2992435  40.1959821  95.7253086
   8.1016835  39.6029182  95.0004153   7.7439099  39.8912031  96.4429025
  16.2789159  40.0882927  97.8447680  16.3337768  39.1356764  97.7690156
  15.4680361  40.2442366  98.3288978  17.4280352  44.0163050  89.0825963
  16.9899782  43.2998909  88.6231600  18.1690793  44.2439165  88.5211054
  14.2181519  38.7059987  95.6038058  13.4049384  39.0054158  96.0103251
  14.7140513  38.3115676  96.3212541  16.3690097  48.7017744  97.5372323
  16.3266275  48.9278590  96.6080855  17.2852795  48.4681119  97.6858124
  19.8155730  39.1701812 104.4352952  20.1705118  39.3973285 105.2947418
  20.4627862  39.5020188 103.8130208  25.5453467  42.2920247  95.1402281
  25.4071366  42.4821843  94.2123471  25.1889686  43.0539630  95.5970332
  13.7095593  36.2778343 101.2199293  14.3494973  36.1367102 100.5222257
  12.8773124  35.9912856 100.8437895  25.5722847  44.3596774 100.1513553
  26.0059354  44.2672064 100.9996607  26.2854428  44.3354275  99.5133569
  14.4855897  45.5780773  97.3334286  15.2796496  45.0831093  97.1316861
  13.7747590  45.0498636  96.9701991  19.3050742  47.9598869 101.6846653
  19.3587764  48.5289805 102.4524369  18.4365523  48.1300754 101.3200691
  10.7938661  39.7223855  93.4094039   9.8636249  39.6608310  93.6264001
  10.8896133  39.1999808  92.6130680  10.7124210  36.2478668  95.9972280
  10.9731027  37.1624001  95.8881441  11.5341382  35.7803110  96.1468893
  12.1849135  37.6616425 103.1671105  12.8572189  37.4533787 102.5183754
  11.3578922  37.4638511 102.7276337  26.4338396  44.4020475 102.6846438
  26.6274286  45.3066286 102.9305713  26.3339015  43.9427894 103.5185023
  18.0874707  34.2878366 105.1836766  17.4402622  34.9868315 105.0901242
  18.8575723  34.7214510 105.5513014  21.4953505  44.5527218 108.2587319
  21.3439012  44.3237770 107.3417403  21.4858185  45.5097819 108.2718664
  18.2638841  42.1259131 103.2433585  19.1930902  42.2770290 103.0702553
  17.8429872  42.2143151 102.3882232  17.0627173  46.1509795 101.0132123
  16.9238259  45.7828579 101.8858061  16.2741770  46.6657434 100.8416081
  17.6575325  51.2518891  92.3557659  17.8327081  50.7806935  93.1703282
  16.9708113  51.8784658  92.5838920  18.6132388  45.5291398  98.4020961
  18.2782221  45.4892168  99.2978611  18.1136334  44.8636114  97.9291371
  12.5876632  40.9359028 103.9273542  12.4496430  40.2039267 104.5285081
  13.4981556  40.8467928 103.6457730  21.5491580  42.8747432  88.6758020
  20.9320751  42.1494260  88.5791073  21.0808069  43.6356792  88.3325095
  15.2158933  40.6478987 103.4157222  15.9258552  40.0072179 103.3743840
  15.1728241  40.8991882 104.3383402  23.2045712  47.5846340 106.3363801
  23.1458258  46.9005561 105.6694384  23.6065230  48.3265330 105.8844427
  13.9287867  37.6344205 105.2352861  13.3925224  37.1834943 105.8874457
  13.3404575  37.7690114 104.4923325  12.2236411  54.4008254  99.1297520
  12.4633009  55.0326778  99.8076538  11.3805607  54.0496294  99.4162879
  13.3390126  37.0932856  87.7979325  12.4619592  36.9721657  87.4341571
  13.8147879  36.3018935  87.5458213  23.2063119  45.5485924 104.5677780
  22.3189898  45.2111846 104.6904179  23.7761670  44.8168956 104.8046546
   4.8592266  41.8810016  97.8920832   5.5463306  41.5671746  97.3041847
   4.7040395  42.7851381  97.6188083   9.6626988  36.7700213 102.3205856
   9.5785177  36.1625882 101.5856265   8.8409695  37.2609231 102.3215352
  16.7364272  50.2087377 101.5339024  16.6634444  51.0142348 102.0458328
  16.2941666  50.4079343 100.7087045  16.5254052  49.4459147  95.0441845
  15.7421574  49.9880827  95.1380070  17.2246797  49.9633126  95.4436086
  19.8350702  35.2553776  97.6876051  20.3319402  34.5023739  97.3677121
  19.0637684  35.2918093  97.1219260  27.6880460  40.9594142  99.3294342
  27.6770336  41.8418857  98.9588275  26.8197839  40.6065693  99.1348879
  19.1962956  50.1074211 103.6897182  19.9090928  50.7421676 103.6173084
  18.7052985  50.2038077 102.8737184  20.9180483  44.0125463  95.2614474
  19.9836762  44.1326926  95.0919178  21.0957151  43.1097930  94.9974484
  16.4185671  37.3971159  97.4147735  16.0483458  36.8442200  98.1028641
  16.9144763  36.7929293  96.8622735  24.3053034  39.8542783  95.7964508
  24.7713486  40.6870774  95.7224811  24.7560535  39.3887764  96.5009767
  14.2474869  47.8568654 104.5102753  14.9484329  48.4905137 104.6632147
  13.7769984  48.1983386 103.7498392  22.3729265  46.1986604  92.7950660
  22.6489109  46.0843199  93.7044534  21.5033764  45.8004089  92.7562833
  22.2769697  32.2223370  99.8355409  21.3632777  32.4527597 100.0037616
  22.7062798  32.3061814 100.6869442  22.0476155  40.4113262 102.3355303
  21.3947606  40.6589169 101.6807756  22.4256535  39.5977400 102.0017781
  19.0083329  50.4472955  96.4383474  19.1905724  49.6294611  96.9011226
  19.8316315  50.6640647  96.0008364  19.3425495  49.3741140  93.6998522
  19.8713261  48.8633595  93.0868684  19.6053714  49.0583670  94.5644055
  18.0963728  41.1533073 108.8221341  17.4204365  41.0527202 109.4923716
  18.9191362  40.9972286 109.2857338   9.8442588  47.3905009 101.4433856
  10.4296024  46.6448697 101.5761760   9.6467426  47.7008966 102.3270520
  12.6981243  50.4256257  96.4596298  12.0291618  50.9102384  95.9760338
  12.5594112  50.6725477  97.3739677   4.4360242  39.9610609 100.1638299
   4.4744342  39.4274200 100.9575417   3.9300535  39.4345815  99.5449276
  16.8386511  52.4600000 103.0578957  17.3904819  52.6231622 103.8228042
  17.1792705  53.0504438 102.3858981  11.8151005  34.8075150 103.6600841
  11.8792331  35.6689981 103.2478239  11.7518125  34.1949152 102.9273200
  11.2903277  36.8798282 107.3073875  11.9175316  36.4975360 107.9211400
  10.4331196  36.6612484 107.6729568  21.6897386  47.2861258 108.9127611
  22.2337290  47.8991216 108.4182566  21.1084230  47.8440836 109.4294624
   8.0668820  38.6874712  93.2392230   8.3622261  37.7785390  93.1859284
   7.1656856  38.6662451  92.9173233  19.9754899  50.4081976 100.0442639
  19.8506038  49.6071716  99.5353584  20.6333990  50.9028169  99.5556609
  11.5963067  36.7630708  99.2219779  10.8749653  37.3766676  99.0827252
  12.3856323  37.2988473  99.1436425  22.0389807  48.2090996 101.6722189
  21.0920143  48.0896347 101.6000516  22.3872580  47.3213494 101.7548450
  14.3989380  34.0985135 105.4960431  14.9223782  34.3447431 106.2586740
  14.1801714  34.9305169 105.0763568   9.7956661  36.3688809  93.3631555
   9.4669368  35.4886188  93.1806661  10.1496032  36.3136478  94.2507945
  19.0436240  48.0043712  97.8726541  18.8961203  47.0760419  98.0534111
  19.8689734  48.0263803  97.3883616  12.9098485  36.6561779  93.7307033
  13.2494557  37.1847700  93.0085642  13.3570605  36.9942185  94.5065600
  22.6470362  48.8272271  98.9591414  23.5716910  48.6215132  98.8215865
  22.4785666  48.5788672  99.8680755  15.6041925  35.0398830 103.1810101
  15.2638746  34.2406643 103.5830781  14.8980932  35.3400541 102.6086934
  16.2558397  32.1248142 101.6337424  17.0784467  31.6508620 101.5116315
  16.4996461  32.9038626 102.1336111  14.8966632  35.1536401  91.9300326
  15.6174994  35.5317653  91.4264043  14.2731936  35.8725277  92.0335304
  19.0397755  35.8581550  92.8658658  19.2561369  36.7406187  92.5647486
  18.5591822  35.4667763  92.1364300  13.7796976  38.8167263  99.4429403
  13.6341557  39.1307566 100.3353684  13.3022180  39.4352163  98.8900301
  15.6393359  35.8069811  99.4910292  15.6254928  34.9110904  99.1542590
  16.3565787  35.8140475 100.1248578  17.4919490  36.2407151 101.5363420
  17.2337267  37.1624222 101.5347750  16.9604530  35.8437586 102.2263884
  22.4365678  49.3457938  94.3153505  22.6102556  48.7804361  93.5627358
  22.9294570  50.1458833  94.1332995   8.2542638  41.3572607 102.3817064
   7.7096106  42.1332415 102.5137338   9.1321988  41.7043412 102.2236185
  15.0430255  34.6884191  94.7597863  15.1646166  33.7600837  94.9588750
  14.7532297  34.7022877  93.8476178  17.9121445  32.3739102  97.8964582
  17.9343142  32.4378435  96.9416562  18.3289504  31.5343610  98.0905089
  28.2905070  42.1094361  95.9343805  28.7336216  41.3601686  95.5362928
  27.4131580  42.1004497  95.5517537  23.4240851  48.6624703  91.4150403
  24.1191755  49.2831395  91.6337718  23.7664001  47.8120054  91.6902781
   9.0408660  40.4842504 105.2747221   8.2990396  40.6325139 105.8611851
   8.7201404  40.7450769 104.4113970  25.3232274  46.1124408  92.9437734
  25.8483598  46.4511681  92.2187054  25.2354627  45.1771423  92.7600869
  16.9852323  50.0258482 105.0727611  17.2939449  49.7807628 105.9450310
  17.7827805  50.2305120 104.5846481  17.0072935  52.1796391  97.3032987
  16.5677925  51.6872770  97.9965844  17.7581052  51.6369359  97.0625063
   9.4865274  48.3707932  97.3057616  10.3123294  48.0711704  96.9256259
   9.1359326  47.6015555  97.7547404  14.4546807  47.7234400  99.3755289
  13.8326816  47.0605105  99.0757517  15.1251674  47.7495532  98.6928937
   7.6873879  46.2894259  98.2646549   6.8505787  45.8616433  98.0830550
   7.6597524  46.4826702  99.2017340  14.5271334  36.2016188 108.9687795
  14.5759490  37.0778311 108.5865565  15.0693849  35.6593582 108.3959438
  25.0126180  46.7457312 108.2488932  24.2221724  46.7281451 107.7093432
  24.7759535  47.2845605 109.0037969  25.1324055  43.5949778 105.5621661
  25.1822060  43.4299786 106.5037184  25.0237978  42.7277037 105.1719542
  14.0160314  46.2738324  92.8513750  14.1648434  46.9573788  92.1980422
  14.8226757  46.2543414  93.3663205  22.4227817  39.5780706 106.8780967
  23.3237680  39.4387171 106.5864965  22.4975792  39.7435161 107.8179145
  16.7570623  36.9547561 105.7234154  15.8873932  37.2481127 105.4516742
  16.9930103  37.5388006 106.4441417  26.6342252  46.0146720 105.8063682
  26.3427060  46.3776700 106.6427143  26.0214383  45.3013728 105.6277014
  27.8337934  43.5799599  98.3266253  28.6684826  44.0189403  98.4903813
  27.9697063  43.1038253  97.5074498  24.8829440  41.1379334 104.2743740
  25.3583562  41.3306981 103.4662592  23.9595006  41.1938520 104.0287124
  11.7712947  42.3003501  93.8574819  11.5258989  41.3965831  94.0555029
  11.9408861  42.3020652  92.9154297  19.4609657  33.1727178 103.2399574
  19.9791600  33.9088205 102.9146063  19.1064789  33.4791171 104.0746333
  11.0408594  38.0331859  91.3560980  10.3477839  38.1076214  90.7001016
  10.7960346  37.2692203  91.8782497  19.7122251  29.5927460  98.7600471
  19.9924005  28.9250649  99.3860897  20.4972858  29.7856556  98.2475135
  17.5155719  48.7686454  90.3225497  16.9429686  49.3876641  89.8695969
  18.0888513  49.3185816  90.8565419  23.5831109  38.0145094 102.5072046
  24.5348532  38.1143192 102.5284270  23.4134560  37.2223363 103.0170130
  21.6045489  35.1000678 102.6931447  21.0095421  35.3805690 101.9977935
  21.3195185  35.5894578 103.4648188  20.7352979  49.0523604  91.4534079
  21.6683652  48.9869166  91.6566955  20.6476192  49.8879871  90.9948612
  23.3640996  48.3689475  88.4138027  23.2854627  48.0349338  89.3073785
  24.1850663  48.8611243  88.4129499  26.0619187  41.2351214 101.6214346
  26.0295507  40.2967215 101.8074029  26.6719811  41.3135251 100.8880170
  17.9002518  40.1047267  87.6641550  18.8461623  39.9753475  87.7329968
  17.5216763  39.3661929  88.1410978  26.2113675  38.0262257 101.6672629
  25.6952724  37.2420714 101.4802558  27.0953624  37.6980974 101.8319148
  23.8724402  31.7703273  97.6268441  23.6749223  31.4618361  98.5111773
  24.4824108  32.4964912  97.7566371  31.8795737  42.2967221 100.7620382
  32.6099125  42.0352509 101.3228086  31.2702682  41.5595943 100.8022450
  29.9611034  40.4375083 101.3594834  29.2344197  40.3031048 100.7511325
  29.5458321  40.7451912 102.1651552  17.7841210  44.1565013 109.1242207
  18.7044220  44.3343612 109.3182253  17.7490793  43.2121058 108.9721906
  16.0845435  38.0297243  87.5996435  15.1776890  37.7330356  87.6759148
  16.3621416  37.7327061  86.7330721   7.0023375  39.3503607  98.0495481
   6.6826160  38.4968915  97.7569855   6.4556804  39.5652185  98.8053449
  10.7803283  42.0666048 101.7664988  10.9989293  42.9983156 101.7853022
  11.1929057  41.7074022 102.5519792  17.7007501  32.5734133  93.7540676
  16.8908229  32.2281218  94.1295922  18.3891918  32.2641677  94.3428288
  19.6298049  31.6512180  95.3764973  20.1829088  32.0707633  96.0354996
  19.8668135  30.7247928  95.4187929  15.6531148  37.6399254 111.1567737
  15.5527875  38.5893611 111.0879828  15.4352690  37.3117492 110.2843807
  14.8544220  34.8884179  87.7408414  15.7163384  35.2139077  88.0004231
  15.0394564  34.1015675  87.2281480   6.8711635  42.9706518 100.0188603
   6.1775107  42.5560471  99.5058557   7.6184626  43.0127055  99.4222022
  23.0076856  33.7612705  94.8843637  22.4275525  34.4197509  94.5021689
  22.7412789  32.9390050  94.4731054  21.4580422  33.1617763  97.0864957
  21.9580201  33.2734297  96.2779276  22.1016030  32.8578816  97.7265766
  15.5162418  41.0696392 109.9732798  15.0329500  41.8696752 110.1796687
  15.6023357  41.0804337 109.0200242   8.7848378  42.9024772  97.8954618
   8.7619066  43.0012459  96.9436501   9.0949014  43.7489923  98.2171784
  11.4435756  44.9600927 102.0101232  12.3979009  44.9284869 101.9431164
  11.2448279  44.4991551 102.8251458  12.0335138  43.5302043 104.5772030
  12.8528027  44.0246122 104.6006867  12.3071946  42.6134011 104.5489597
  21.7901734  35.9212795  93.9399985  20.9027589  36.2062446  93.7220180
  22.2055723  35.7606559  93.0927262  25.1416270  35.9459316  97.6554324
  25.9176660  36.4355769  97.9278941  24.4164404  36.3717371  98.1126194
  27.5788829  36.6586936  98.7128265  28.1733320  36.4182672  98.0021573
  27.6515413  35.9394066  99.3401801   9.7985985  50.5020547  99.0271430
   9.6640452  49.7420947  98.4609428   9.3818047  51.2261446  98.5600219
  20.9344948  45.6857470  88.0348005  21.6380798  45.8907473  88.6505661
  20.2107596  46.2534232  88.2997089  21.7642758  41.4367331  94.1550275
  21.7077959  41.8935883  93.3157908  22.3171100  40.6758016  93.9773118
  25.5747564  37.2257063  94.9800395  25.3184498  36.8253699  95.8108603
  24.9500432  37.9400857  94.8550534  29.8859902  39.9653136  97.4871686
  29.3259460  40.0346326  98.2603248  29.2803405  39.7894121  96.7671183
  12.9555110  51.3989864  99.2389873  12.8387495  52.3435296  99.1368563
  12.1347557  51.0963425  99.6275672  22.8431645  46.1239999  90.0846465
  23.6777249  45.6921198  89.9023940  22.6815988  45.9522013  91.0123360
  22.4977537  42.6272113  91.4502805  22.4426341  42.4616384  90.5091249
  21.8723592  43.3348146  91.6064994   7.2870052  37.8640177 105.2764227
   7.9328916  37.3539131 105.7651452   7.0787203  38.6008859 105.8507652
  19.8123444  44.9321024 110.7756367  20.6814604  45.1061677 110.4143002
  19.3330196  45.7515441 110.6532097  15.8073663  32.1280222  91.0288123
  15.7952332  33.0722062  91.1856394  16.6997084  31.9450367  90.7347584
  13.9809625  52.0518125 102.4545801  14.8836871  52.0841736 102.7712296
  13.7546995  51.1218576 102.4692137  15.7363227  50.8049112  99.1155880
  14.7858858  50.8050974  99.0020252  16.0395713  50.0581847  98.5991914
  19.6225782  28.7222998  95.2834060  18.8558178  28.1681485  95.4290742
  20.0336487  28.7944867  96.1448211  11.6267543  35.0107794 109.3739241
  12.4899005  34.6544599 109.5842566  11.0532954  34.6721689 110.0614645
  31.4715920  56.6409650 100.1801642  32.1094330  56.5216398  99.4764982
  31.3536763  57.5890494 100.2389594  28.2805626  56.5937079 100.1163167
  27.9424138  56.4778143  99.2283702  29.1495394  56.1928244 100.0964173
  24.1392442  58.4472555  96.1060058  23.5757307  58.3562492  95.3376345
  24.0244837  57.6272459  96.5862550  28.7625409  57.7471930 106.0749372
  28.7514050  57.3524729 105.2029876  28.9246049  57.0138003 106.6683144
  21.6856874  59.9423747  98.9444278  22.4778166  59.6014571  98.5290577
  21.9253524  60.0518722  99.8646431  29.7192001  62.1143523  91.4174523
  29.0679980  62.6997603  91.0308536  30.5136364  62.6449718  91.4769560
  23.6447628  59.2032660  91.8161657  24.4178504  58.6561647  91.6774533
  23.9973027  60.0676909  92.0276118  25.4832670  60.5309042 105.0228556
  25.1922536  61.4354673 104.9075223  26.1189655  60.5725570 105.7372626
  26.4088877  57.9085891 101.6129916  27.0052450  57.6841913 100.8986879
  26.4663849  57.1670636 102.2155364  25.9813906  55.3625326  89.4480107
  26.2339426  54.8406847  88.6863570  25.0438465  55.1991471  89.5506790
  31.0257188  54.3661104  97.2554850  31.8120278  53.9480527  96.9045267
  31.2895893  55.2707196  97.4236498  31.1967266  59.8033955  91.9543507
  30.5613099  59.8768581  92.6664412  30.8664672  60.3927553  91.2762586
  36.4265616  54.3036337  98.1587829  37.1590788  53.7335554  98.3925658
  35.6704971  53.9157938  98.5994334  25.7010194  57.2653432  91.6504482
  25.5846453  56.5898335  92.3185566  25.8112454  56.7785806  90.8336635
  28.0441735  56.7263579  95.3551171  27.6799943  56.1994200  96.0664093
  28.9008851  56.3362048  95.1817656  33.9491036  48.0157912 102.6182437
  33.6174361  48.8853323 102.3943652  33.3536649  47.6994196 103.2976468
  27.6847222  51.7553479  90.3512520  27.8521625  52.6233715  90.7182991
  27.4944391  51.9180760  89.4273809  30.4422556  60.2170458 102.0178350
  30.1423279  61.1195496 101.9094157  30.0973615  59.9502641 102.8699503
  23.8935037  56.6684254  98.0515054  22.9685533  56.5360469  98.2592746
  24.1419450  57.4478474  98.5484997  33.8419699  52.7352998  99.6975787
  32.9336577  52.6668406  99.4034548  33.7907295  53.2124943 100.5257613
  27.6636443  54.2111136  91.3359186  27.5436068  54.6568187  92.1744667
  26.9689032  54.5596454  90.7772725  21.2543848  56.3117528  98.8858843
  21.3836229  56.5652007  99.7998255  20.5741299  56.9045236  98.5663498
  25.4243335  66.9814778  94.9849318  25.3467365  67.9322603  95.0637798
  24.8204979  66.6360650  95.6424244  27.9160565  54.1542643 107.6410685
  27.1393899  54.7136563 107.6313549  28.5551128  54.6399426 108.1625555
  35.7081346  50.9369436 101.4753661  35.0655726  51.2301969 100.8293456
  35.2036274  50.8222356 102.2806858  33.3621509  54.6832609  92.1639520
  34.2739365  54.9159996  91.9887218  32.8531156  55.2669654  91.6014599
  26.1706937  56.9628097 107.2028652  26.9121622  57.5013141 106.9263475
  25.4643923  57.5894385 107.3600203  31.6462277  59.1057237 105.8000813
  32.0545633  58.6639648 105.0555445  30.9239539  58.5309865 106.0535006
  27.9993347  54.0429844 103.1734370  28.8454542  54.4669258 103.3169019
  27.9391985  53.3863468 103.8672933  31.9691092  59.6658428  99.5553102
  31.3399954  59.8304142  98.8529170  31.5816754  60.0800037 100.3264066
  35.8480324  60.6012866  96.9097466  35.1631362  60.9811767  96.3594499
  35.9324173  61.2108192  97.6429413  31.1492792  51.7034212 104.8315544
  30.9053724  52.4576273 104.2949819  31.4252723  52.0819560 105.6662791
  33.1031255  58.2472825 103.5092809  33.3148150  58.8904585 102.8327190
  33.0561003  57.4135141 103.0414739  30.7057484  50.8590645 100.4129381
  29.8441963  51.1571899 100.7046119  30.7319919  51.0761044  99.4810414
  27.5219054  59.4032836  96.8203187  27.9857399  59.6820539  96.0307809
  27.2575852  58.5016280  96.6376278  24.4143135  58.9504317  99.7582950
  24.9844492  59.3791586  99.1200435  25.0051246  58.6686902 100.4567136
  26.4587940  55.5255988  93.6292752  27.1611983  55.9777032  94.0966678
  26.1268568  54.8839807  94.2572645  24.9068301  54.1167745 108.0043962
  24.2766962  54.7984026 108.2379358  24.8004389  54.0050826 107.0597100
  20.2013274  53.7839541  98.9309886  19.4112328  54.0397069  98.4549996
  20.6924521  54.5987879  99.0361926  34.2177083  61.1244780 101.6815167
  35.0394527  60.7224967 101.3997848  34.2139486  61.0213014 102.6331282
  22.1528019  54.1484120  95.8893362  21.3559182  54.2602814  96.4076858
  21.9253611  54.4870772  95.0234253  27.9833687  60.6728823 103.8375877
  28.0478119  61.1349231 104.6734049  27.2744610  60.0426188 103.9658187
  18.4850977  54.0370031 101.3624876  18.7359015  54.9217041 101.6282452
  19.0210525  53.8574633 100.5899968  42.3083076  57.4683529  98.0300138
  41.5546785  56.8990927  97.8744142  42.4430617  57.4346193  98.9770773
  27.6981704  62.3396931  93.7054857  27.5627379  63.1848467  94.1339705
  28.2391517  62.5416209  92.9420791  24.1849044  48.4188511 110.3669213
  23.7915989  47.8654709 111.0416857  25.0015184  48.7299089 110.7575730
  21.1511102  59.8572369  94.2782782  21.6635622  60.6515619  94.4288347
  21.8033814  59.1598659  94.2116384  22.9605986  62.9738125  96.3605536
  23.1372615  63.8956090  96.1726520  23.7562820  62.6596544  96.7899915
  27.1017005  49.8346390 107.9589469  27.8426718  50.4353543 107.8793932
  27.3334928  49.0924028 107.4007512  22.2458343  55.0202757 106.2367699
  22.1311858  54.1188014 106.5374798  21.3902861  55.2666454 105.8852515
  29.3250181  62.9620497 107.8355199  28.8814035  62.1756876 107.5176104
  29.9867394  63.1499648 107.1699090  24.0837302  64.4916299 102.3615878
  24.6344727  64.3633362 101.5892872  23.2448778  64.7911188 102.0110771
  31.4231419  63.2423297 105.8636601  31.4049894  64.0632178 105.3716870
  32.3451339  63.1177373 106.0886742  27.8804473  60.7567427 106.7060109
  28.4132810  59.9955715 106.4759417  27.3518554  60.4641079 107.4484264
  31.0474168  45.8627493 102.2353751  30.7038437  46.7529134 102.1592861
  31.4153130  45.6729150 101.3723336  19.1160018  58.1861023  95.0542353
  19.9535240  58.5958032  94.8376061  19.2938286  57.2460465  95.0242547
  31.0124451  55.8536104  90.7426186  30.4971074  56.6240709  90.9814573
  30.7401759  55.1801240  91.3659247  28.5971562  50.6985805  95.8011424
  27.7413158  50.3092655  95.6217063  29.0098513  50.7777765  94.9411210
  30.1270708  48.2332148 100.2002984  29.6235504  48.1962283  99.3870789
  30.4201315  49.1424891 100.2599641  26.3713594  48.3170878  99.2069166
  27.2366591  48.1213686  98.8475055  26.4391103  48.0881229 100.1338523
  35.9858725  58.6068459  92.6779359  35.2088167  58.2679618  92.2334521
  36.6650206  58.6121082  92.0034324  30.8010754  53.7263196  92.5685967
  30.4960889  54.0409345  93.4196110  31.7541196  53.8044616  92.6113300
  29.2457186  59.8853419  94.2178921  28.7178547  59.1506179  93.9052159
  28.7444688  60.6628096  93.9718889  34.2250032  58.0802440  99.3345967
  33.5673706  58.7701701  99.4226096  35.0290431  58.4698872  99.6779954
  23.9775913  50.5473086  96.5785533  24.5519665  50.3248267  95.8458726
  24.5646896  50.6161780  97.3314134  33.0355490  56.4346812  97.3849909
  33.5487372  57.0676804  97.8871619  33.6856714  55.8348008  97.0193269
  24.3045500  52.5777547  90.5981418  23.4682813  52.9152233  90.9190693
  24.1650270  52.4426526  89.6608555  26.2798581  47.4214334  95.3060602
  25.6262993  47.1063352  94.6817217  26.2379055  46.7990075  96.0320425
  27.3909786  57.7033630  87.2213894  26.4836847  57.4722883  87.4205043
  27.8880818  56.9071249  87.4087876  30.2977865  66.4131137  90.1410580
  29.6239563  66.7162833  90.7495538  30.6843687  67.2160217  89.7916037
  29.5136321  53.9096268  99.6308250  28.5958883  54.1311215  99.4729938
  29.9296465  53.9842578  98.7719957  30.2971369  55.3087684  94.7610930
  31.0443188  55.8209081  94.4518052  30.5662959  54.9871736  95.6215323
  28.5698019  57.8046224  91.7437884  27.6609238  57.5205257  91.8410354
  28.5993103  58.2245303  90.8841191  33.8017287  61.4152814  95.5129052
  33.3479614  60.5743724  95.5694242  33.1711253  62.0514212  95.8503832
  32.7450206  52.3444800  96.7429719  32.0072963  51.8322186  97.0739962
  32.9976980  51.9045182  95.9312996  32.2450226  63.2529311  96.4478870
  32.5373200  63.8134368  95.7291236  32.7548846  63.5457872  97.2032029
  32.8461833  45.1221052  97.3371489  33.1520710  44.2618415  97.0497404
  33.5714438  45.7138672  97.1370482  19.1386190  55.5251739  95.7253086
  18.9410589  54.9321099  95.0004153  18.5832854  55.2203949  96.4429025
  27.1182913  55.4174845  97.8447680  27.1731523  54.4648681  97.7690156
  26.3074115  55.5734284  98.3288978  28.2674107  59.3454968  89.0825963
  27.8293537  58.6290827  88.6231600  29.0084548  59.5731083  88.5211054
  25.0575273  54.0351905  95.6038058  24.2443139  54.3346075  96.0103251
  25.5534267  53.6407594  96.3212541  27.2083851  64.0309662  97.5372323
  27.1660030  64.2570508  96.6080855  28.1246550  63.7973036  97.6858124
  30.6549485  54.4993729 104.4352952  31.0098873  54.7265202 105.2947418
  31.3021616  54.8312106 103.8130208  36.3847222  57.6212165  95.1402281
  36.2465120  57.8113761  94.2123471  36.0283441  58.3831548  95.5970332
  24.5489348  51.6070260 101.2199293  25.1888727  51.4659019 100.5222257
  23.7166878  51.3204774 100.8437895  36.4116601  59.6888692 100.1513553
  36.8453108  59.5963981 100.9996607  37.1248182  59.6646193  99.5133569
  25.3249652  60.9072691  97.3334286  26.1190250  60.4123011  97.1316861
  24.6141344  60.3790554  96.9701991  30.1444496  63.2890786 101.6846653
  30.1981519  63.8581723 102.4524369  29.2759278  63.4592671 101.3200691
  21.6332415  55.0515772  93.4094039  20.7030003  54.9900228  93.6264001
  21.7289887  54.5291725  92.6130680  21.5517964  51.5770585  95.9972280
  21.8124782  52.4915919  95.8881441  22.3735137  51.1095028  96.1468893
  23.0242890  52.9908342 103.1671105  23.6965943  52.7825705 102.5183754
  22.1972676  52.7930428 102.7276337  37.2732151  59.7312393 102.6846438
  37.4668041  60.6358203 102.9305713  37.1732769  59.2719812 103.5185023
  28.9268462  49.6170283 105.1836766  28.2796377  50.3160233 105.0901242
  29.6969477  50.0506427 105.5513014  32.3347260  59.8819136 108.2587319
  32.1832766  59.6529687 107.3417403  32.3251939  60.8389737 108.2718664
  29.1032596  57.4551048 103.2433585  30.0324656  57.6062208 103.0702553
  28.6823626  57.5435069 102.3882232  27.9020928  61.4801713 101.0132123
  27.7632013  61.1120497 101.8858061  27.1135524  61.9949352 100.8416081
  28.4969080  66.5810809  92.3557659  28.6720835  66.1098852  93.1703282
  27.8101868  67.2076575  92.5838920  29.4526143  60.8583315  98.4020961
  29.1175976  60.8184085  99.2978611  28.9530089  60.1928031  97.9291371
  23.4270387  56.2650945 103.9273542  23.2890185  55.5331184 104.5285081
  24.3375310  56.1759846 103.6457730  32.3885335  58.2039350  88.6758020
  31.7714505  57.4786178  88.5791073  31.9201823  58.9648710  88.3325095
  26.0552688  55.9770905 103.4157222  26.7652306  55.3364097 103.3743840
  26.0121996  56.2283800 104.3383402  34.0439466  62.9138258 106.3363801
  33.9852012  62.2297478 105.6694384  34.4458985  63.6557248 105.8844427
  24.7681622  52.9636123 105.2352861  24.2318979  52.5126861 105.8874457
  24.1798330  53.0982031 104.4923325  23.0630165  69.7300172  99.1297520
  23.3026763  70.3618696  99.8076538  22.2199362  69.3788212  99.4162879
  24.1783880  52.4224774  87.7979325  23.3013347  52.3013575  87.4341571
  24.6541634  51.6310852  87.5458213  34.0456874  60.8777842 104.5677780
  33.1583652  60.5403764 104.6904179  34.6155425  60.1460873 104.8046546
  15.6986021  57.2101934  97.8920832  16.3857060  56.8963664  97.3041847
  15.5434149  58.1143298  97.6188083  20.5020743  52.0992130 102.3205856
  20.4178931  51.4917800 101.5856265  19.6803449  52.5901149 102.3215352
  27.5758027  65.5379294 101.5339024  27.5028198  66.3434266 102.0458328
  27.1335420  65.7371260 100.7087045  27.3647807  64.7751064  95.0441845
  26.5815328  65.3172745  95.1380070  28.0640552  65.2925044  95.4436086
  30.6744457  50.5845694  97.6876051  31.1713156  49.8315656  97.3677121
  29.9031438  50.6210011  97.1219260  38.5274214  56.2886059  99.3294342
  38.5164090  57.1710775  98.9588275  37.6591593  55.9357610  99.1348879
  30.0356710  65.4366128 103.6897182  30.7484683  66.0713593 103.6173084
  29.5446739  65.5329994 102.8737184  31.7574237  59.3417381  95.2614474
  30.8230516  59.4618844  95.0919178  31.9350906  58.4389848  94.9974484
  27.2579425  52.7263077  97.4147735  26.8877213  52.1734117  98.1028641
  27.7538518  52.1221210  96.8622735  35.1446789  55.1834700  95.7964508
  35.6107241  56.0162692  95.7224811  35.5954289  54.7179682  96.5009767
  25.0868624  63.1860572 104.5102753  25.7878083  63.8197055 104.6632147
  24.6163739  63.5275303 103.7498392  33.2123020  61.5278522  92.7950660
  33.4882864  61.4135116  93.7044534  32.3427519  61.1296006  92.7562833
  33.1163451  47.5515287  99.8355409  32.2026531  47.7819514 100.0037616
  33.5456553  47.6353731 100.6869442  32.8869910  55.7405179 102.3355303
  32.2341360  55.9881087 101.6807756  33.2650290  54.9269317 102.0017781
  29.8477084  65.7764872  96.4383474  30.0299478  64.9586528  96.9011226
  30.6710070  65.9932565  96.0008364  30.1819249  64.7033058  93.6998522
  30.7107016  64.1925512  93.0868684  30.4447469  64.3875588  94.5644055
  28.9357483  56.4824990 108.8221341  28.2598120  56.3819120 109.4923716
  29.7585117  56.3264204 109.2857338  20.6836342  62.7196927 101.4433856
  21.2689779  61.9740615 101.5761760  20.4861180  63.0300884 102.3270520
  23.5374997  65.7548174  96.4596298  22.8685372  66.2394302  95.9760338
  23.3987867  66.0017395  97.3739677  15.2753997  55.2902527 100.1638299
  15.3138096  54.7566118 100.9575417  14.7694290  54.7637733  99.5449276
  27.6780266  67.7891918 103.0578957  28.2298574  67.9523539 103.8228042
  28.0186459  68.3796356 102.3858981  22.6544759  50.1367068 103.6600841
  22.7186086  50.9981899 103.2478239  22.5911879  49.5241069 102.9273200
  22.1297032  52.2090200 107.3073875  22.7569070  51.8267277 107.9211400
  21.2724950  51.9904402 107.6729568  32.5291140  62.6153175 108.9127611
  33.0731044  63.2283134 108.4182566  31.9477985  63.1732754 109.4294624
  18.9062574  54.0166629  93.2392230  19.2016015  53.1077308  93.1859284
  18.0050610  53.9954369  92.9173233  30.8148653  65.7373893 100.0442639
  30.6899793  64.9363633  99.5353584  31.4727744  66.2320087  99.5556609
  22.4356821  52.0922626  99.2219779  21.7143407  52.7058594  99.0827252
  23.2250077  52.6280391  99.1436425  32.8783561  63.5382913 101.6722189
  31.9313897  63.4188265 101.6000516  33.2266335  62.6505411 101.7548450
  25.2383135  49.4277052 105.4960431  25.7617537  49.6739349 106.2586740
  25.0195468  50.2597087 105.0763568  20.6350416  51.6980727  93.3631555
  20.3063122  50.8178106  93.1806661  20.9889787  51.6428396  94.2507945
  29.8829995  63.3335630  97.8726541  29.7354957  62.4052337  98.0534111
  30.7083488  63.3555720  97.3883616  23.7492239  51.9853697  93.7307033
  24.0888312  52.5139618  93.0085642  24.1964360  52.3234103  94.5065600
  33.4864117  64.1564188  98.9591414  34.4110664  63.9507050  98.8215865
  33.3179420  63.9080590  99.8680755  26.4435680  50.3690747 103.1810101
  26.1032500  49.5698561 103.5830781  25.7374686  50.6692458 102.6086934
  27.0952152  47.4540060 101.6337424  27.9178221  46.9800538 101.5116315
  27.3390215  48.2330544 102.1336111  25.7360386  50.4828318  91.9300326
  26.4568749  50.8609571  91.4264043  25.1125690  51.2017195  92.0335304
  29.8791509  51.1873467  92.8658658  30.0955123  52.0698105  92.5647486
  29.3985576  50.7959681  92.1364300  24.6190730  54.1459181  99.4429403
  24.4735311  54.4599484 100.3353684  24.1415934  54.7644081  98.8900301
  26.4787113  51.1361729  99.4910292  26.4648682  50.2402822  99.1542590
  27.1959541  51.1432392 100.1248578  28.3313244  51.5699069 101.5363420
  28.0731022  52.4916139 101.5347750  27.7998284  51.1729503 102.2263884
  33.2759433  64.6749856  94.3153505  33.4496310  64.1096278  93.5627358
  33.7688324  65.4750751  94.1332995  19.0936393  56.6864525 102.3817064
  18.5489861  57.4624333 102.5137338  19.9715742  57.0335329 102.2236185
  25.8824009  50.0176109  94.7597863  26.0039920  49.0892755  94.9588750
  25.5926052  50.0314795  93.8476178  28.7515200  47.7031019  97.8964582
  28.7736896  47.7670352  96.9416562  29.1683259  46.8635528  98.0905089
  39.1298824  57.4386279  95.9343805  39.5729970  56.6893604  95.5362928
  38.2525334  57.4296415  95.5517537  34.2634605  63.9916620  91.4150403
  34.9585510  64.6123313  91.6337718  34.6057755  63.1411971  91.6902781
  19.8802414  55.8134421 105.2747221  19.1384151  55.9617057 105.8611851
  19.5595159  56.0742687 104.4113970  36.1626028  61.4416326  92.9437734
  36.6877353  61.7803599  92.2187054  36.0748381  60.5063341  92.7600869
  27.8246077  65.3550399 105.0727611  28.1333204  65.1099546 105.9450310
  28.6221559  65.5597038 104.5846481  27.8466689  67.5088309  97.3032987
  27.4071679  67.0164688  97.9965844  28.5974806  66.9661277  97.0625063
  20.3259028  63.6999850  97.3057616  21.1517048  63.4003622  96.9256259
  19.9753080  62.9307472  97.7547404  25.2940561  63.0526318  99.3755289
  24.6720571  62.3897023  99.0757517  25.9645428  63.0787450  98.6928937
  18.5267633  61.6186176  98.2646549  17.6899542  61.1908351  98.0830550
  18.4991279  61.8118620  99.2017340  25.3665089  51.5308106 108.9687795
  25.4153244  52.4070229 108.5865565  25.9087603  50.9885499 108.3959438
  35.8519935  62.0749229 108.2488932  35.0615478  62.0573368 107.7093432
  35.6153289  62.6137523 109.0037969  35.9717810  58.9241696 105.5621661
  36.0215814  58.7591703 106.5037184  35.8631733  58.0568955 105.1719542
  24.8554068  61.6030241  92.8513750  25.0042189  62.2865706  92.1980422
  25.6620512  61.5835332  93.3663205  33.2621572  54.9072624 106.8780967
  34.1631435  54.7679089 106.5864965  33.3369546  55.0727079 107.8179145
  27.5964377  52.2839479 105.7234154  26.7267687  52.5773045 105.4516742
  27.8323858  52.8679924 106.4441417  37.4736006  61.3438637 105.8063682
  37.1820815  61.7068618 106.6427143  36.8608138  60.6305646 105.6277014
  38.6731689  58.9091517  98.3266253  39.5078580  59.3481321  98.4903813
  38.8090817  58.4330170  97.5074498  35.7223195  56.4671252 104.2743740
  36.1977316  56.6598898 103.4662592  34.7988760  56.5230438 104.0287124
  22.6106701  57.6295419  93.8574819  22.3652743  56.7257749  94.0555029
  22.7802616  57.6312570  92.9154297  30.3003411  48.5019095 103.2399574
  30.8185355  49.2380122 102.9146063  29.9458544  48.8083089 104.0746333
  21.8802349  53.3623777  91.3560980  21.1871594  53.4368132  90.7001016
  21.6354101  52.5984120  91.8782497  30.5516005  44.9219378  98.7600471
  30.8317759  44.2542567  99.3860897  31.3366612  45.1148474  98.2475135
  28.3549474  64.0978372  90.3225497  27.7823441  64.7168559  89.8695969
  28.9282267  64.6477734  90.8565419  34.4224864  53.3437012 102.5072046
  35.3742287  53.4435110 102.5284270  34.2528314  52.5515281 103.0170130
  32.4439243  50.4292595 102.6931447  31.8489175  50.7097608 101.9977935
  32.1588940  50.9186496 103.4648188  31.5746734  64.3815522  91.4534079
  32.5077407  64.3161084  91.6566955  31.4869946  65.2171789  90.9948612
  34.2034750  63.6981392  88.4138027  34.1248382  63.3641256  89.3073785
  35.0244417  64.1903160  88.4129499  36.9012941  56.5643132 101.6214346
  36.8689262  55.6259132 101.8074029  37.5113565  56.6427168 100.8880170
  28.7396272  55.4339185  87.6641550  29.6855377  55.3045393  87.7329968
  28.3610517  54.6953847  88.1410978  37.0507430  53.3554175 101.6672629
  36.5346479  52.5712632 101.4802558  37.9347378  53.0272892 101.8319148
  34.7118157  47.0995191  97.6268441  34.5142978  46.7910279  98.5111773
  35.3217862  47.8256830  97.7566371  42.7189491  57.6259139 100.7620382
  43.4492880  57.3644427 101.3228086  42.1096437  56.8887860 100.8022450
  40.8004788  55.7667001 101.3594834  40.0737952  55.6322966 100.7511325
  40.3852075  56.0743830 102.1651552  28.6234965  59.4856931 109.1242207
  29.5437974  59.6635530 109.3182253  28.5884548  58.5412976 108.9721906
  26.9239189  53.3589161  87.5996435  26.0170645  53.0622274  87.6759148
  27.2015170  53.0618979  86.7330721  17.8417130  54.6795524  98.0495481
  17.5219914  53.8260833  97.7569855  17.2950558  54.8944103  98.8053449
  21.6197037  57.3957965 101.7664988  21.8383047  58.3275073 101.7853022
  22.0322811  57.0365940 102.5519792  28.5401255  47.9026051  93.7540676
  27.7301983  47.5573136  94.1295922  29.2285672  47.5933595  94.3428288
  30.4691803  46.9804098  95.3764973  31.0222842  47.3999551  96.0354996
  30.7061890  46.0539846  95.4187929  26.4924903  52.9691171 111.1567737
  26.3921630  53.9185528 111.0879828  26.2746445  52.6409410 110.2843807
  25.6937974  50.2176096  87.7408414  26.5557138  50.5430995  88.0004231
  25.8788318  49.4307592  87.2281480  17.7105390  58.2998436 100.0188603
  17.0168861  57.8852389  99.5058557  18.4578381  58.3418972  99.4222022
  33.8470611  49.0904623  94.8843637  33.2669280  49.7489427  94.5021689
  33.5806543  48.2681967  94.4731054  32.2974177  48.4909680  97.0864957
  32.7973955  48.6026215  96.2779276  32.9409785  48.1870733  97.7265766
  26.3556173  56.3988310 109.9732798  25.8723254  57.1988670 110.1796687
  26.4417112  56.4096255 109.0200242  19.6242132  58.2316690  97.8954618
  19.6012820  58.3304377  96.9436501  19.9342769  59.0781841  98.2171784
  22.2829510  60.2892845 102.0101232  23.2372764  60.2576787 101.9431164
  22.0842034  59.8283469 102.8251458  22.8728892  58.8593961 104.5772030
  23.6921781  59.3538039 104.6006867  23.1465700  57.9425929 104.5489597
  32.6295489  51.2504713  93.9399985  31.7421344  51.5354364  93.7220180
  33.0449478  51.0898476  93.0927262  35.9810025  51.2751234  97.6554324
  36.7570415  51.7647687  97.9278941  35.2558159  51.7009288  98.1126194
  38.4182583  51.9878853  98.7128265  39.0127074  51.7474589  98.0021573
  38.4909167  51.2685984  99.3401801  20.6379739  65.8312464  99.0271430
  20.5034207  65.0712865  98.4609428  20.2211801  66.5553364  98.5600219
  31.7738702  61.0149388  88.0348005  32.4774552  61.2199390  88.6505661
  31.0501351  61.5826150  88.2997089  32.6036512  56.7659249  94.1550275
  32.5471714  57.2227800  93.3157908  33.1564855  56.0049934  93.9773118
  36.4141318  52.5548981  94.9800395  36.1578252  52.1545617  95.8108603
  35.7894186  53.2692775  94.8550534  40.7253656  55.2945054  97.4871686
  40.1653214  55.3638243  98.2603248  40.1197159  55.1186039  96.7671183
  23.7948865  66.7281781  99.2389873  23.6781249  67.6727214  99.1368563
  22.9741311  66.4255343  99.6275672  33.6825399  61.4531917  90.0846465
  34.5171003  61.0213115  89.9023940  33.5209742  61.2813931  91.0123360
  33.3371292  57.9564030  91.4502805  33.2820095  57.7908302  90.5091249
  32.7117347  58.6640063  91.6064994  18.1263807  53.1932095 105.2764227
  18.7722670  52.6831049 105.7651452  17.9180958  53.9300776 105.8507652
  30.6517199  60.2612942 110.7756367  31.5208358  60.4353594 110.4143002
  30.1723950  61.0807359 110.6532097  26.6467417  47.4572139  91.0288123
  26.6346087  48.4013979  91.1856394  27.5390839  47.2742285  90.7347584
  24.8203379  67.3810043 102.4545801  25.7230626  67.4133653 102.7712296
  24.5940749  66.4510494 102.4692137  26.5756981  66.1341030  99.1155880
  25.6252612  66.1342891  99.0020252  26.8789467  65.3873764  98.5991914
  30.4619537  44.0514916  95.2834060  29.6951932  43.4973403  95.4290742
  30.8730241  44.1236785  96.1448211  22.4661298  50.3399712 109.3739241
  23.3292759  49.9836517 109.5842566  21.8926708  50.0013607 110.0614645
  42.3109675  71.9701568 100.1801642  42.9488084  71.8508315  99.4764982
  42.1930517  72.9182412 100.2389594  39.1199381  71.9228996 100.1163167
  38.7817892  71.8070061  99.2283702  39.9889149  71.5220161 100.0964173
  34.9786196  73.7764473  96.1060058  34.4151062  73.6854410  95.3376345
  34.8638592  72.9564377  96.5862550  39.6019164  73.0763848 106.0749372
  39.5907805  72.6816646 105.2029876  39.7639803  72.3429921 106.6683144
  32.5250628  75.2715664  98.9444278  33.3171920  74.9306489  98.5290577
  32.7647279  75.3810639  99.8646431  40.5585755  77.4435440  91.4174523
  39.9073735  78.0289521  91.0308536  41.3530118  77.9741635  91.4769560
  34.4841382  74.5324577  91.8161657  35.2572258  73.9853565  91.6774533
  34.8366781  75.3968827  92.0276118  36.3226425  75.8600960 105.0228556
  36.0316291  76.7646591 104.9075223  36.9583409  75.9017487 105.7372626
  37.2482632  73.2377808 101.6129916  37.8446204  73.0133831 100.8986879
  37.3057603  72.4962554 102.2155364  36.8207660  70.6917244  89.4480107
  37.0733181  70.1698765  88.6863570  35.8832219  70.5283389  89.5506790
  41.8650943  69.6953022  97.2554850  42.6514032  69.2772445  96.9045267
  42.1289647  70.5999114  97.4236498  42.0361020  75.1325872  91.9543507
  41.4006853  75.2060499  92.6664412  41.7058427  75.7219471  91.2762586
  36.5403949  72.5945350  91.6504482  36.4240207  71.9190253  92.3185566
  36.6506209  72.1077723  90.8336635  38.8835490  72.0555497  95.3551171
  38.5193697  71.5286118  96.0664093  39.7402606  71.6653966  95.1817656
  44.7884790  63.3449829 102.6182437  44.4568115  64.2145240 102.3943652
  44.1930404  63.0286113 103.2976468  38.5240977  67.0845396  90.3512520
  38.6915379  67.9525633  90.7182991  38.3338146  67.2472678  89.4273809
  41.2816310  75.5462375 102.0178350  40.9817033  76.4487414 101.9094157
  40.9367370  75.2794558 102.8699503  34.7328791  71.9976172  98.0515054
  33.8079288  71.8652386  98.2592746  34.9813205  72.7770391  98.5484997
  44.6813454  68.0644915  99.6975787  43.7730331  67.9960324  99.4034548
  44.6301050  68.5416860 100.5257613  38.5030198  69.5403054  91.3359186
  38.3829823  69.9860105  92.1744667  37.8082786  69.8888372  90.7772725
  32.0937603  71.6409446  98.8858843  32.2229984  71.8943925  99.7998255
  31.4135054  72.2337154  98.5663498  36.2637090  82.3106696  94.9849318
  36.1861119  83.2614521  95.0637798  35.6598733  81.9652568  95.6424244
  38.7554320  69.4834561 107.6410685  37.9787654  70.0428481 107.6313549
  39.3944883  69.9691344 108.1625555  46.5475100  66.2661354 101.4753661
  45.9049480  66.5593887 100.8293456  46.0430029  66.1514274 102.2806858
  44.2015264  70.0124527  92.1639520  45.1133120  70.2451914  91.9887218
  43.6924911  70.5961571  91.6014599  37.0100692  72.2920014 107.2028652
  37.7515376  72.8305058 106.9263475  36.3037677  72.9186303 107.3600203
  42.4856032  74.4349155 105.8000813  42.8939388  73.9931565 105.0555445
  41.7633293  73.8601782 106.0535006  38.8387102  69.3721762 103.1734370
  39.6848297  69.7961175 103.3169019  38.7785739  68.7155386 103.8672933
  41.9886547  67.0326130 104.8315544  41.7447479  67.7868191 104.2949819
  42.2646477  67.4111478 105.6662791  41.5451239  66.1882563 100.4129381
  40.6835718  66.4863817 100.7046119  41.5713673  66.4052962  99.4810414
  38.3612808  74.7324754  96.8203187  38.8251154  75.0112457  96.0307809
  38.0969606  73.8308198  96.6376278  35.2536889  74.2796235  99.7582950
  35.8238246  74.7083503  99.1200435  35.8445001  73.9978820 100.4567136
  37.2981694  70.8547906  93.6292752  38.0005737  71.3068950  94.0966678
  36.9662323  70.2131725  94.2572645  35.7462056  69.4459663 108.0043962
  35.1160716  70.1275943 108.2379358  35.6398144  69.3342744 107.0597100
  31.0407028  69.1131459  98.9309886  30.2506082  69.3688987  98.4549996
  31.5318275  69.9279796  99.0361926  32.9921773  69.4776038  95.8893362
  32.1952937  69.5894732  96.4076858  32.7647366  69.8162690  95.0234253
  38.8227441  76.0020741 103.8375877  38.8871874  76.4641148 104.6734049
  38.1138365  75.3718106 103.9658187  29.3244731  69.3661949 101.3624876
  29.5752769  70.2508959 101.6282452  29.8604279  69.1866551 100.5899968
  38.5375459  77.6688849  93.7054857  38.4021134  78.5140384  94.1339705
  39.0785271  77.8708126  92.9420791  35.0242798  63.7480428 110.3669213
  34.6309744  63.1946627 111.0416857  35.8408939  64.0591007 110.7575730
  31.9904856  75.1864287  94.2782782  32.5029377  75.9807537  94.4288347
  32.6427569  74.4890577  94.2116384  33.7999741  78.3030043  96.3605536
  33.9766369  79.2248008  96.1726520  34.5956574  77.9888462  96.7899915
  37.9410759  65.1638307 107.9589469  38.6820473  65.7645461 107.8793932
  38.1728682  64.4215945 107.4007512  33.0852097  70.3494675 106.2367699
  32.9705612  69.4479932 106.5374798  32.2296615  70.5958372 105.8852515
  40.1643935  78.2912415 107.8355199  39.7207789  77.5048794 107.5176104
  40.8261149  78.4791566 107.1699090  34.9231056  79.8208217 102.3615878
  35.4738481  79.6925280 101.5892872  34.0842532  80.1203106 102.0110771
  42.2625173  78.5715215 105.8636601  42.2443649  79.3924096 105.3716870
  43.1845093  78.4469290 106.0886742  38.7198227  76.0859344 106.7060109
  39.2526564  75.3247633 106.4759417  38.1912308  75.7932996 107.4484264
  41.8867922  61.1919410 102.2353751  41.5432192  62.0821052 102.1592861
  42.2546885  61.0021068 101.3723336  29.9553773  73.5152941  95.0542353
  30.7928995  73.9249949  94.8376061  30.1332041  72.5752383  95.0242547
  41.8518205  71.1828022  90.7426186  41.3364828  71.9532626  90.9814573
  41.5795513  70.5093158  91.3659247  39.4365316  66.0277722  95.8011424
  38.5806912  65.6384573  95.6217063  39.8492268  66.1069683  94.9411210
  40.9664463  63.5624066 100.2002984  40.4629258  63.5254201  99.3870789
  41.2595070  64.4716808 100.2599641  37.2107349  63.6462795  99.2069166
  38.0760345  63.4505604  98.8475055  37.2784857  63.4173147 100.1338523
  41.6404508  69.0555114  92.5685967  41.3354644  69.3701263  93.4196110
  42.5934950  69.1336534  92.6113300  40.0850940  75.2145337  94.2178921
  39.5572302  74.4798097  93.9052159  39.5838443  75.9920013  93.9718889
  34.8169668  65.8765003  96.5785533  35.3913420  65.6540185  95.8458726
  35.4040650  65.9453698  97.3314134  43.8749245  71.7638730  97.3849909
  44.3881127  72.3968722  97.8871619  44.5250469  71.1639926  97.0193269
  35.1439255  67.9069464  90.5981418  34.3076567  68.2444151  90.9190693
  35.0044024  67.7718444  89.6608555  37.1192335  62.7506252  95.3060602
  36.4656748  62.4355269  94.6817217  37.0772809  62.1281993  96.0320425
  38.2303540  73.0325547  87.2213894  37.3230602  72.8014801  87.4205043
  38.7274572  72.2363166  87.4087876  41.1371619  81.7423054  90.1410580
  40.4633318  82.0454751  90.7495538  41.5237441  82.5452135  89.7916037
  40.3530076  69.2388186  99.6308250  39.4352637  69.4603133  99.4729938
  40.7690219  69.3134496  98.7719957  41.1365123  70.6379601  94.7610930
  41.8836942  71.1500999  94.4518052  41.4056713  70.3163654  95.6215323
  39.4091774  73.1338142  91.7437884  38.5002993  72.8497175  91.8410354
  39.4386857  73.5537221  90.8841191  44.6411041  76.7444732  95.5129052
  44.1873368  75.9035641  95.5694242  44.0105008  77.3806130  95.8503832
  43.0843980  78.5821228  96.4478870  43.3766955  79.1426285  95.7291236
  43.5942601  78.8749789  97.2032029  43.6855588  60.4512970  97.3371489
  43.9914465  59.5910333  97.0497404  44.4108193  61.0430590  97.1370482
  29.9779944  70.8543656  95.7253086  29.7804344  70.2613017  95.0004153
  29.4226608  70.5495866  96.4429025  37.9576668  70.7466763  97.8447680
  38.0125277  69.7940599  97.7690156  37.1467870  70.9026202  98.3288978
  39.1067861  74.6746886  89.0825963  38.6687291  73.9582745  88.6231600
  39.8478302  74.9023001  88.5211054  35.8969028  69.3643822  95.6038058
  35.0836893  69.6637993  96.0103251  36.3928022  68.9699511  96.3212541
  38.0477605  79.3601579  97.5372323  38.0053784  79.5862426  96.6080855
  38.9640304  79.1264954  97.6858124  41.4943239  69.8285647 104.4352952
  41.8492627  70.0557120 105.2947418  42.1415371  70.1604024 103.8130208
  35.3883102  66.9362178 101.2199293  36.0282482  66.7950937 100.5222257
  34.5560633  66.6496691 100.8437895  36.1643406  76.2364608  97.3334286
  36.9584005  75.7414929  97.1316861  35.4535099  75.7082472  96.9701991
  40.9838251  78.6182704 101.6846653  41.0375273  79.1873640 102.4524369
  40.1153032  78.7884589 101.3200691  32.4726170  70.3807690  93.4094039
  31.5423758  70.3192146  93.6264001  32.5683642  69.8583643  92.6130680
  32.3911719  66.9062503  95.9972280  32.6518536  67.8207836  95.8881441
  33.2128891  66.4386946  96.1468893  33.8636644  68.3200260 103.1671105
  34.5359698  68.1117622 102.5183754  33.0366431  68.1222346 102.7276337
  39.7662216  64.9462201 105.1836766  39.1190131  65.6452151 105.0901242
  40.5363232  65.3798345 105.5513014  43.1741014  75.2111053 108.2587319
  43.0226520  74.9821605 107.3417403  43.1645694  76.1681655 108.2718664
  39.9426350  72.7842966 103.2433585  40.8718410  72.9354126 103.0702553
  39.5217380  72.8726987 102.3882232  38.7414682  76.8093630 101.0132123
  38.6025768  76.4412415 101.8858061  37.9529278  77.3241270 100.8416081
  39.3362834  81.9102727  92.3557659  39.5114590  81.4390770  93.1703282
  38.6495622  82.5368493  92.5838920  40.2919897  76.1875233  98.4020961
  39.9569730  76.1476003  99.2978611  39.7923843  75.5219949  97.9291371
  34.2664141  71.5942863 103.9273542  34.1283939  70.8623102 104.5285081
  35.1769065  71.5051763 103.6457730  43.2279089  73.5331267  88.6758020
  42.6108260  72.8078096  88.5791073  42.7595578  74.2940628  88.3325095
  36.8946442  71.3062822 103.4157222  37.6046061  70.6656015 103.3743840
  36.8515750  71.5575717 104.3383402  44.8833221  78.2430176 106.3363801
  44.8245767  77.5589396 105.6694384  45.2852739  78.9849166 105.8844427
  35.6075376  68.2928040 105.2352861  35.0712733  67.8418779 105.8874457
  35.0192084  68.4273949 104.4923325  33.9023920  85.0592090  99.1297520
  34.1420518  85.6910614  99.8076538  33.0593116  84.7080130  99.4162879
  35.0177635  67.7516692  87.7979325  34.1407101  67.6305492  87.4341571
  35.4935388  66.9602770  87.5458213  26.5379775  72.5393851  97.8920832
  27.2250815  72.2255581  97.3041847  26.3827904  73.4435216  97.6188083
  31.3414497  67.4284048 102.3205856  31.2572686  66.8209718 101.5856265
  30.5197204  67.9193066 102.3215352  38.4151781  80.8671212 101.5339024
  38.3421953  81.6726184 102.0458328  37.9729174  81.0663178 100.7087045
  38.2041561  80.1042982  95.0441845  37.4209083  80.6464662  95.1380070
  38.9034306  80.6216962  95.4436086  41.5138211  65.9137612  97.6876051
  42.0106911  65.1607574  97.3677121  40.7425193  65.9501928  97.1219260
  40.8750465  80.7658046 103.6897182  41.5878437  81.4005511 103.6173084
  40.3840494  80.8621912 102.8737184  42.5967992  74.6709299  95.2614474
  41.6624271  74.7910761  95.0919178  42.7744660  73.7681766  94.9974484
  38.0973180  68.0554995  97.4147735  37.7270967  67.5026035  98.1028641
  38.5932272  67.4513128  96.8622735  35.9262378  78.5152490 104.5102753
  36.6271838  79.1488973 104.6632147  35.4557493  78.8567221 103.7498392
  44.0516774  76.8570439  92.7950660  44.3276618  76.7427034  93.7044534
  43.1821273  76.4587924  92.7562833  43.9557206  62.8807205  99.8355409
  43.0420286  63.1111432 100.0037616  44.3850307  62.9645649 100.6869442
  43.7263664  71.0697097 102.3355303  43.0735115  71.3173004 101.6807756
  44.1044044  70.2561235 102.0017781  40.6870838  81.1056790  96.4383474
  40.8693233  80.2878446  96.9011226  41.5103824  81.3224482  96.0008364
  41.0213004  80.0324975  93.6998522  41.5500770  79.5217430  93.0868684
  41.2841223  79.7167506  94.5644055  39.7751237  71.8116908 108.8221341
  39.0991874  71.7111037 109.4923716  40.5978871  71.6556122 109.2857338
  31.5230096  78.0488845 101.4433856  32.1083533  77.3032532 101.5761760
  31.3254935  78.3592801 102.3270520  34.3768752  81.0840092  96.4596298
  33.7079127  81.5686220  95.9760338  34.2381621  81.3309312  97.3739677
  26.1147751  70.6194445 100.1638299  26.1531851  70.0858035 100.9575417
  25.6088044  70.0929650  99.5449276  38.5174020  83.1183835 103.0578957
  39.0692328  83.2815457 103.8228042  38.8580214  83.7088273 102.3858981
  33.4938514  65.4658985 103.6600841  33.5579840  66.3273816 103.2478239
  33.4305634  64.8532987 102.9273200  32.9690786  67.5382118 107.3073875
  33.5962825  67.1559195 107.9211400  32.1118705  67.3196320 107.6729568
  43.3684895  77.9445093 108.9127611  43.9124799  78.5575051 108.4182566
  42.7871739  78.5024671 109.4294624  29.7456329  69.3458547  93.2392230
  30.0409770  68.4369225  93.1859284  28.8444365  69.3246286  92.9173233
  41.6542408  81.0665811 100.0442639  41.5293547  80.2655551  99.5353584
  42.3121499  81.5612004  99.5556609  33.2750576  67.4214544  99.2219779
  32.5537162  68.0350511  99.0827252  34.0643832  67.9572308  99.1436425
  36.0776889  64.7568970 105.4960431  36.6011291  65.0031267 106.2586740
  35.8589223  65.5889005 105.0763568  31.4744170  67.0272645  93.3631555
  31.1456877  66.1470024  93.1806661  31.8283541  66.9720313  94.2507945
  40.7223749  78.6627547  97.8726541  40.5748712  77.7344255  98.0534111
  41.5477243  78.6847638  97.3883616  34.5885994  67.3145614  93.7307033
  34.9282066  67.8431536  93.0085642  35.0358114  67.6526021  94.5065600
  37.2829434  65.6982665 103.1810101  36.9426255  64.8990478 103.5830781
  36.5768441  65.9984376 102.6086934  37.9345906  62.7831978 101.6337424
  38.7571976  62.3092456 101.5116315  38.1783970  63.5622461 102.1336111
  36.5754141  65.8120236  91.9300326  37.2962503  66.1901489  91.4264043
  35.9519445  66.5309113  92.0335304  40.7185264  66.5165385  92.8658658
  40.9348878  67.3990023  92.5647486  40.2379331  66.1251598  92.1364300
  35.4584485  69.4751098  99.4429403  35.3129066  69.7891401 100.3353684
  34.9809689  70.0935999  98.8900301  37.3180868  66.4653646  99.4910292
  37.3042437  65.5694739  99.1542590  38.0353296  66.4724310 100.1248578
  39.1706999  66.8990986 101.5363420  38.9124776  67.8208057 101.5347750
  38.6392039  66.5021421 102.2263884  44.1153187  80.0041773  94.3153505
  44.2890065  79.4388196  93.5627358  44.6082079  80.8042668  94.1332995
  29.9330147  72.0156443 102.3817064  29.3883615  72.7916251 102.5137338
  30.8109497  72.3627247 102.2236185  36.7217764  65.3468026  94.7597863
  36.8433675  64.4184673  94.9588750  36.4319806  65.3606712  93.8476178
  39.5908954  63.0322937  97.8964582  39.6130651  63.0962270  96.9416562
  40.0077013  62.1927446  98.0905089  45.1028360  79.3208538  91.4150403
  45.7979264  79.9415231  91.6337718  45.4451510  78.4703889  91.6902781
  30.7196169  71.1426339 105.2747221  29.9777905  71.2908974 105.8611851
  30.3988913  71.4034604 104.4113970  47.0019783  76.7708243  92.9437734
  47.5271107  77.1095516  92.2187054  46.9142135  75.8355259  92.7600869
  38.6639832  80.6842317 105.0727611  38.9726958  80.4391464 105.9450310
  39.4615314  80.8888956 104.5846481  38.6860444  82.8380227  97.3032987
  38.2465434  82.3456605  97.9965844  39.4368561  82.2953194  97.0625063
  31.1652783  79.0291768  97.3057616  31.9910803  78.7295539  96.9256259
  30.8146835  78.2599390  97.7547404  36.1334316  78.3818236  99.3755289
  35.5114325  77.7188941  99.0757517  36.8039183  78.4079368  98.6928937
  29.3661388  76.9478094  98.2646549  28.5293296  76.5200268  98.0830550
  29.3385033  77.1410537  99.2017340  36.2058843  66.8600024 108.9687795
  36.2546999  67.7362147 108.5865565  36.7481358  66.3177417 108.3959438
  46.6913689  77.4041147 108.2488932  45.9009233  77.3865286 107.7093432
  46.4547044  77.9429441 109.0037969  35.6947823  76.9322159  92.8513750
  35.8435943  77.6157624  92.1980422  36.5014266  76.9127249  93.3663205
  44.1015326  70.2364541 106.8780967  45.0025189  70.0971006 106.5864965
  44.1763301  70.4018996 107.8179145  38.4358132  67.6131396 105.7234154
  37.5661441  67.9064962 105.4516742  38.6717612  68.1971841 106.4441417
  48.3129761  76.6730555 105.8063682  48.0214569  77.0360536 106.6427143
  47.7001892  75.9597563 105.6277014  33.4500456  72.9587337  93.8574819
  33.2046498  72.0549667  94.0555029  33.6196370  72.9604487  92.9154297
  41.1397166  63.8311013 103.2399574  41.6579109  64.5672040 102.9146063
  40.7852298  64.1375006 104.0746333  32.7196103  68.6915694  91.3560980
  32.0265348  68.7660049  90.7001016  32.4747855  67.9276038  91.8782497
  41.3909760  60.2511296  98.7600471  41.6711514  59.5834485  99.3860897
  42.1760367  60.4440391  98.2475135  39.1943228  79.4270290  90.3225497
  38.6217195  80.0460477  89.8695969  39.7676022  79.9769651  90.8565419
  45.2618618  68.6728930 102.5072046  46.2136041  68.7727027 102.5284270
  45.0922069  67.8807198 103.0170130  43.2832998  65.7584513 102.6931447
  42.6882930  66.0389526 101.9977935  42.9982694  66.2478414 103.4648188
  42.4140488  79.7107440  91.4534079  43.3471161  79.6453001  91.6566955
  42.3263701  80.5463707  90.9948612  45.0428505  79.0273310  88.4138027
  44.9642136  78.6933174  89.3073785  45.8638172  79.5195078  88.4129499
  39.5790027  70.7631102  87.6641550  40.5249131  70.6337310  87.7329968
  39.2004272  70.0245764  88.1410978  47.8901184  68.6846093 101.6672629
  47.3740233  67.9004549 101.4802558  48.7741133  68.3564809 101.8319148
  45.5511911  62.4287108  97.6268441  45.3536732  62.1202197  98.5111773
  46.1611617  63.1548747  97.7566371  39.4628719  74.8148848 109.1242207
  40.3831729  74.9927447 109.3182253  39.4278302  73.8704894 108.9721906
  37.7632944  68.6881079  87.5996435  36.8564399  68.3914191  87.6759148
  38.0408925  68.3910897  86.7330721  28.6810884  70.0087442  98.0495481
  28.3613669  69.1552750  97.7569855  28.1344312  70.2236020  98.8053449
  32.4590792  72.7249883 101.7664988  32.6776802  73.6566991 101.7853022
  32.8716566  72.3657858 102.5519792  39.3795010  63.2317968  93.7540676
  38.5695738  62.8865053  94.1295922  40.0679427  62.9225512  94.3428288
  41.3085558  62.3096015  95.3764973  41.8616597  62.7291469  96.0354996
  41.5455644  61.3831763  95.4187929  37.3318657  68.2983089 111.1567737
  37.2315384  69.2477446 111.0879828  37.1140199  67.9701328 110.2843807
  36.5331729  65.5468014  87.7408414  37.3950893  65.8722912  88.0004231
  36.7182073  64.7599510  87.2281480  28.5499144  73.6290354 100.0188603
  27.8562616  73.2144306  99.5058557  29.2972135  73.6710890  99.4222022
  44.6864365  64.4196540  94.8843637  44.1063034  65.0781344  94.5021689
  44.4200298  63.5973885  94.4731054  43.1367931  63.8201598  97.0864957
  43.6367710  63.9318133  96.2779276  43.7803539  63.5162651  97.7265766
  37.1949927  71.7280228 109.9732798  36.7117009  72.5280588 110.1796687
  37.2810866  71.7388173 109.0200242  30.4635887  73.5608607  97.8954618
  30.4406575  73.6596295  96.9436501  30.7736523  74.4073758  98.2171784
  33.1223265  75.6184762 102.0101232  34.0766518  75.5868705 101.9431164
  32.9235788  75.1575386 102.8251458  33.7122647  74.1885878 104.5772030
  34.5315536  74.6829957 104.6006867  33.9859455  73.2717847 104.5489597
  31.4773493  81.1604382  99.0271430  31.3427961  80.4004783  98.4609428
  31.0605556  81.8845282  98.5600219  42.6132456  76.3441305  88.0348005
  43.3168307  76.5491308  88.6505661  41.8895105  76.9118067  88.2997089
  43.4430267  72.0951167  94.1550275  43.3865468  72.5519718  93.3157908
  43.9958609  71.3341851  93.9773118  34.6342619  82.0573699  99.2389873
  34.5175004  83.0019131  99.1368563  33.8135066  81.7547261  99.6275672
  44.5219154  76.7823835  90.0846465  45.3564758  76.3505033  89.9023940
  44.3603497  76.6105848  91.0123360  44.1765046  73.2855948  91.4502805
  44.1213850  73.1200219  90.5091249  43.5511101  73.9931981  91.6064994
  28.9657561  68.5224012 105.2764227  29.6116425  68.0122966 105.7651452
  28.7574712  69.2592694 105.8507652  41.4910953  75.5904860 110.7756367
  42.3602113  75.7645512 110.4143002  41.0117705  76.4099277 110.6532097
  37.4861172  62.7864057  91.0288123  37.4739841  63.7305897  91.1856394
  38.3784593  62.6034202  90.7347584  35.6597133  82.7101961 102.4545801
  36.5624380  82.7425571 102.7712296  35.4334504  81.7802412 102.4692137
  37.4150736  81.4632947  99.1155880  36.4646367  81.4634809  99.0020252
  37.7183222  80.7165682  98.5991914  41.3013291  59.3806834  95.2834060
  40.5345687  58.8265320  95.4290742  41.7123996  59.4528702  96.1448211
  33.3055052  65.6691629 109.3739241  34.1686514  65.3128434 109.5842566
  32.7320463  65.3305524 110.0614645  43.3644383  90.6007582  98.9444278
  44.1565675  90.2598407  98.5290577  43.6041033  90.7102557  99.8646431
  47.6601415  86.0209161  89.4480107  47.9126935  85.4990683  88.6863570
  46.7225974  85.8575307  89.5506790  47.3797703  87.9237267  91.6504482
  47.2633962  87.2482171  92.3185566  47.4899963  87.4369641  90.8336635
  49.3634731  82.4137314  90.3512520  49.5309134  83.2817550  90.7182991
  49.1731900  82.5764596  89.4273809  49.3423952  84.8694972  91.3359186
  49.2223577  85.3152022  92.1744667  48.6476541  85.2180289  90.7772725
  42.9331357  86.9701363  98.8858843  43.0623738  87.2235842  99.7998255
  42.2528808  87.5629071  98.5663498  49.5948074  84.8126479 107.6410685
  48.8181408  85.3720399 107.6313549  50.2338637  85.2983262 108.1625555
  46.5855810  84.7751580 108.0043962  45.9554471  85.4567861 108.2379358
  46.4791898  84.6634662 107.0597100  41.8800783  84.4423376  98.9309886
  41.0899837  84.6980905  98.4549996  42.3712030  85.2571714  99.0361926
  43.8315528  84.8067956  95.8893362  43.0346691  84.9186650  96.4076858
  43.6041120  85.1454608  95.0234253  40.1638486  84.6953867 101.3624876
  40.4146524  85.5800877 101.6282452  40.6998034  84.5158468 100.5899968
  45.8636553  79.0772346 110.3669213  45.4703498  78.5238545 111.0416857
  46.6802693  79.3882925 110.7575730  42.8298611  90.5156204  94.2782782
  43.3423131  91.3099455  94.4288347  43.4821323  89.8182495  94.2116384
  48.7804514  80.4930225 107.9589469  49.5214227  81.0937378 107.8793932
  49.0122437  79.7507863 107.4007512  40.7947527  88.8444859  95.0542353
  41.6322749  89.2541867  94.8376061  40.9725795  87.9044301  95.0242547
  52.6911959  86.5119939  90.7426186  52.1758583  87.2824544  90.9814573
  52.4189268  85.8385075  91.3659247  52.4798263  84.3847031  92.5685967
  52.1748398  84.6993180  93.4196110  53.4328705  84.4628451  92.6113300
  45.6563422  81.2056921  96.5785533  46.2307174  80.9832102  95.8458726
  46.2434405  81.2745615  97.3314134  45.9833009  83.2361382  90.5981418
  45.1470321  83.5736068  90.9190693  45.8437779  83.1010362  89.6608555
  49.0697295  88.3617465  87.2213894  48.1624356  88.1306718  87.4205043
  49.5668327  87.5655084  87.4087876  40.8173699  86.1835574  95.7253086
  40.6198098  85.5904935  95.0004153  40.2620363  85.8787784  96.4429025
  46.7362782  84.6935740  95.6038058  45.9230648  84.9929911  96.0103251
  47.2321776  84.2991429  96.3212541  46.2276857  82.2654096 101.2199293
  46.8676236  82.1242855 100.5222257  45.3954387  81.9788609 100.8437895
  43.3119924  85.7099608  93.4094039  42.3817512  85.6484063  93.6264001
  43.4077396  85.1875561  92.6130680  43.2305473  82.2354421  95.9972280
  43.4912291  83.1499754  95.8881441  44.0522646  81.7678863  96.1468893
  50.6055971  80.2754119 105.1836766  49.9583886  80.9744068 105.0901242
  51.3756986  80.7090263 105.5513014  46.4469131  83.6219958 105.2352861
  45.9106488  83.1710696 105.8874457  45.8585839  83.7565867 104.4923325
  45.8571389  83.0808609  87.7979325  44.9800856  82.9597410  87.4341571
  46.3329143  82.2894688  87.5458213  37.3773530  87.8685769  97.8920832
  38.0644569  87.5547499  97.3041847  37.2221658  88.7727134  97.6188083
  42.1808252  82.7575966 102.3205856  42.0966440  82.1501635 101.5856265
  41.3590958  83.2484984 102.3215352  36.9541506  85.9486362 100.1638299
  36.9925605  85.4149953 100.9575417  36.4481799  85.4221568  99.5449276
  44.3332268  80.7950903 103.6600841  44.3973595  81.6565734 103.2478239
  44.2699388  80.1824905 102.9273200  43.8084541  82.8674036 107.3073875
  44.4356579  82.4851113 107.9211400  42.9512459  82.6488237 107.6729568
  40.5850083  84.6750465  93.2392230  40.8803524  83.7661143  93.1859284
  39.6838119  84.6538204  92.9173233  44.1144330  82.7506461  99.2219779
  43.3930916  83.3642429  99.0827252  44.9037586  83.2864226  99.1436425
  46.9170644  80.0860888 105.4960431  47.4405046  80.3323184 106.2586740
  46.6982977  80.9180923 105.0763568  42.3137925  82.3564562  93.3631555
  41.9850631  81.4761941  93.1806661  42.6677296  82.3012231  94.2507945
  45.4279748  82.6437532  93.7307033  45.7675821  83.1723453  93.0085642
  45.8751869  82.9817938  94.5065600  47.4147895  81.1412154  91.9300326
  48.1356258  81.5193406  91.4264043  46.7913199  81.8601030  92.0335304
  51.5579018  81.8457303  92.8658658  51.7742632  82.7281941  92.5647486
  51.0773085  81.4543516  92.1364300  40.7723902  87.3448360 102.3817064
  40.2277370  88.1208168 102.5137338  41.6503251  87.6919165 102.2236185
  47.5611518  80.6759944  94.7597863  47.6827429  79.7476590  94.9588750
  47.2713561  80.6898630  93.8476178  42.0046537  94.3583685  97.3057616
  42.8304557  94.0587457  96.9256259  41.6540589  93.5891308  97.7547404
  40.2055142  92.2770012  98.2646549  39.3687051  91.8492186  98.0830550
  40.1778788  92.4702455  99.2017340  47.0452598  82.1891942 108.9687795
  47.0940753  83.0654064 108.5865565  47.5875112  81.6469335 108.3959438
  49.2751886  82.9423314 105.7234154  48.4055196  83.2356880 105.4516742
  49.5111367  83.5263759 106.4441417  44.2894210  88.2879254  93.8574819
  44.0440252  87.3841584  94.0555029  44.4590125  88.2896405  92.9154297
  43.5589858  84.0207612  91.3560980  42.8659103  84.0951967  90.7001016
  43.3141610  83.2567956  91.8782497  50.4183781  86.0923020  87.6641550
  51.3642886  85.9629228  87.7329968  50.0398026  85.3537682  88.1410978
  48.6026698  84.0172996  87.5996435  47.6958154  83.7206109  87.6759148
  48.8802679  83.7202814  86.7330721  39.5204639  85.3379360  98.0495481
  39.2007423  84.4844668  97.7569855  38.9738067  85.5527938  98.8053449
  50.2188764  78.5609886  93.7540676  49.4089492  78.2156971  94.1295922
  50.9073181  78.2517430  94.3428288  48.1712412  83.6275007 111.1567737
  48.0709139  84.5769364 111.0879828  47.9533954  83.2993245 110.2843807
  47.3725483  80.8759932  87.7408414  48.2344647  81.2014830  88.0004231
  47.5575827  80.0891428  87.2281480  39.3892899  88.9582271 100.0188603
  38.6956370  88.5436224  99.5058557  40.1365890  89.0002808  99.4222022
  48.0343682  87.0572145 109.9732798  47.5510763  87.8572506 110.1796687
  48.1204621  87.0680090 109.0200242  41.3029641  88.8900525  97.8954618
  41.2800329  88.9888212  96.9436501  41.6130278  89.7365676  98.2171784
  39.8051316  83.8515930 105.2764227  40.4510179  83.3414884 105.7651452
  39.5968467  84.5884612 105.8507652  48.3254926  78.1155975  91.0288123
  48.3133596  79.0597815  91.1856394  49.2178348  77.9326120  90.7347584
  44.1448807  80.9983547 109.3739241  45.0080268  80.6420352 109.5842566
  43.5714217  80.6597442 110.0614645  58.4995169 101.3501079  89.4480107
  58.7520690 100.8282600  88.6863570  57.5619728 101.1867224  89.5506790
  68.9446879 100.2912091  98.1587829  69.6772051  99.7211307  98.3925658
  68.1886235  99.9033691  98.5994334  60.1817707 100.1986889  91.3359186
  60.0617332 100.6443940  92.1744667  59.4870295 100.5472207  90.7772725
  65.8802773 100.6708362  92.1639520  66.7920629 100.9035749  91.9887218
  65.3712420 101.2545407  91.6014599  68.3661587 106.5888619  96.9097466
  67.6812625 106.9687520  96.3594499  68.4505436 107.1983945  97.6429413
  66.7358347 107.1120533 101.6815167  67.5575790 106.7100720 101.3997848
  66.7320749 107.0088767 102.6331282  74.8264340 103.4559282  98.0300138
  74.0728048 102.8866680  97.8744142  74.9611881 103.4221946  98.9770773
  63.9412682 109.2299050 105.8636601  63.9231157 110.0507931 105.3716870
  64.8632602 109.1053126 106.0886742  63.5305714 101.8411857  90.7426186
  63.0152337 102.6116462  90.9814573  63.2583022 101.1676993  91.3659247
  68.5039988 104.5944212  92.6779359  67.7269431 104.2555371  92.2334521
  69.1831469 104.5996835  92.0034324  59.9091049 103.6909383  87.2213894
  59.0018111 103.4598636  87.4205043  60.4062081 102.8947002  87.4087876
  62.8159128 112.4006890  90.1410580  62.1420827 112.7038587  90.7495538
  63.2024950 113.2035970  89.7916037  66.3198550 107.4028567  95.5129052
  65.8660877 106.5619477  95.5694242  65.6892517 108.0389965  95.8503832
  64.7631489 109.2405064  96.4478870  65.0554464 109.8010121  95.7291236
  65.2730110 109.5333625  97.2032029  60.7855370 105.3330721  89.0825963
  60.3474800 104.6166580  88.6231600  61.5265811 105.5606836  88.5211054
  68.9028485 103.6087918  95.1402281  68.7646384 103.7989514  94.2123471
  68.5464704 104.3707301  95.5970332  68.9297865 105.6764445 100.1513553
  69.3634371 105.5839734 100.9996607  69.6429446 105.6521946  99.5133569
  69.7913414 105.7188146 102.6846438  69.9849304 106.6233956 102.9305713
  69.6914033 105.2595565 103.5185023  61.0150343 112.5686562  92.3557659
  61.1902099 112.0974605  93.1703282  60.3283131 113.1952328  92.5838920
  64.9066598 104.1915103  88.6758020  64.2895769 103.4661931  88.5791073
  64.4383087 104.9524463  88.3325095  66.5620730 108.9014011 106.3363801
  66.5033276 108.2173231 105.6694384  66.9640248 109.6433001 105.8844427
  56.6965144  98.4100527  87.7979325  55.8194610  98.2889328  87.4341571
  57.1722897  97.6186605  87.5458213  66.5638137 106.8653595 104.5677780
  65.6764916 106.5279517 104.6904179  67.1336688 106.1336626 104.8046546
  71.0455478 102.2761812  99.3294342  71.0345354 103.1586528  98.9588275
  70.1772857 101.9233363  99.1348879  67.6628052 101.1710453  95.7964508
  68.1288504 102.0038445  95.7224811  68.1135553 100.7055435  96.5009767
  65.7304283 107.5154275  92.7950660  66.0064127 107.4010869  93.7044534
  64.8608782 107.1171760  92.7562833  62.3658347 111.7640626  96.4383474
  62.5480742 110.9462281  96.9011226  63.1891333 111.9808318  96.0008364
  63.3329917 111.7249646 100.0442639  63.2081056 110.9239386  99.5353584
  63.9909008 112.2195840  99.5556609  66.0045380 110.1439941  98.9591414
  66.9291928 109.9382803  98.8215865  65.8360683 109.8956343  99.8680755
  65.7940696 110.6625609  94.3153505  65.9677574 110.0972031  93.5627358
  66.2869588 111.4626504  94.1332995  71.6480087 103.4262032  95.9343805
  72.0911234 102.6769357  95.5362928  70.7706598 103.4172168  95.5517537
  66.7815869 109.9792373  91.4150403  67.4766773 110.5999066  91.6337718
  67.1239019 109.1287724  91.6902781  68.6807292 107.4292079  92.9437734
  69.2058616 107.7679352  92.2187054  68.5929644 106.4939094  92.7600869
  60.3427341 111.3426152 105.0727611  60.6514467 111.0975299 105.9450310
  61.1402823 111.5472791 104.5846481  68.3701198 108.0624982 108.2488932
  67.5796742 108.0449121 107.7093432  68.1334553 108.6013276 109.0037969
  68.4899073 104.9117449 105.5621661  68.5397078 104.7467456 106.5037184
  68.3812996 104.0444708 105.1719542  69.9917270 107.3314390 105.8063682
  69.7002078 107.6944371 106.6427143  69.3789401 106.6181399 105.6277014
  71.1912952 104.8967270  98.3266253  72.0259844 105.3357074  98.4903813
  71.3272081 104.4205923  97.5074498  60.8730737 110.0854125  90.3225497
  60.3004704 110.7044312  89.8695969  61.4463531 110.6353487  90.8565419
  64.0927997 110.3691275  91.4534079  65.0258670 110.3036837  91.6566955
  64.0051210 111.2047542  90.9948612  66.7216014 109.6857145  88.4138027
  66.6429645 109.3517009  89.3073785  67.5425680 110.1778913  88.4129499
  69.4194205 102.5518885 101.6214346  69.3870525 101.6134885 101.8074029
  70.0294829 102.6302921 100.8880170  61.2577536 101.4214938  87.6641550
  62.2036640 101.2921146  87.7329968  60.8791781 100.6829600  88.1410978
  75.2370755 103.6134892 100.7620382  75.9674143 103.3520180 101.3228086
  74.6277700 102.8763614 100.8022450  59.4420453  99.3464914  87.5996435
  58.5351908  99.0498027  87.6759148  59.7196434  99.0494732  86.7330721
  64.2919965 107.0025141  88.0348005  64.9955816 107.2075143  88.6505661
  63.5682614 107.5701903  88.2997089  68.9322582  98.5424734  94.9800395
  68.6759516  98.1421370  95.8108603  68.3075450  99.2568528  94.8550534
  73.2434920 101.2820807  97.4871686  72.6834478 101.3513997  98.2603248
  72.6378423 101.1061792  96.7671183  66.2006663 107.4407670  90.0846465
  67.0352267 107.0088868  89.9023940  66.0391006 107.2689684  91.0123360
  65.8552555 103.9439783  91.4502805  65.8001359 103.7784055  90.5091249
  65.2298610 104.6515816  91.6064994  74.8290938 117.9577321 100.1801642
  75.4669348 117.8384068  99.4764982  74.7111781 118.9058165 100.2389594
  71.6380644 117.9104749 100.1163167  71.2999156 117.7945814  99.2283702
  72.5070412 117.5095914 100.0964173  67.4967460 119.7640226  96.1060058
  66.9332325 119.6730163  95.3376345  67.3819855 118.9440130  96.5862550
  72.1200427 119.0639601 106.0749372  72.1089068 118.6692399 105.2029876
  72.2821067 118.3305674 106.6683144  65.0431892 121.2591417  98.9444278
  65.8353184 120.9182242  98.5290577  65.2828542 121.3686392  99.8646431
  73.0767019 123.4311193  91.4174523  72.4254998 124.0165274  91.0308536
  73.8711381 123.9617388  91.4769560  67.0022646 120.5200331  91.8161657
  67.7753522 119.9729318  91.6774533  67.3548045 121.3844580  92.0276118
  68.8407688 121.8476713 105.0228556  68.5497554 122.7522344 104.9075223
  69.4764673 121.8893240 105.7372626  69.7663895 119.2253561 101.6129916
  70.3627467 119.0009584 100.8986879  69.8238867 118.4838307 102.2155364
  69.3388924 116.6792997  89.4480107  69.5914444 116.1574518  88.6863570
  68.4013483 116.5159142  89.5506790  74.3832206 115.6828775  97.2554850
  75.1695296 115.2648198  96.9045267  74.6470911 116.5874867  97.4236498
  74.5542284 121.1201625  91.9543507  73.9188117 121.1936252  92.6664412
  74.2239690 121.7095224  91.2762586  79.7840634 115.6204008  98.1587829
  80.5165806 115.0503225  98.3925658  79.0279989 115.2325609  98.5994334
  69.0585212 118.5821103  91.6504482  68.9421470 117.9066006  92.3185566
  69.1687472 118.0953477  90.8336635  71.4016753 118.0431250  95.3551171
  71.0374961 117.5161871  96.0664093  72.2583869 117.6529719  95.1817656
  77.3066054 109.3325582 102.6182437  76.9749379 110.2020993 102.3943652
  76.7111667 109.0161866 103.2976468  71.0422240 113.0721149  90.3512520
  71.2096643 113.9401386  90.7182991  70.8519409 113.2348431  89.4273809
  73.7997573 121.5338128 102.0178350  73.4998297 122.4363167 101.9094157
  73.4548633 121.2670311 102.8699503  67.2510055 117.9851925  98.0515054
  66.3260551 117.8528139  98.2592746  67.4994468 118.7646144  98.5484997
  77.1994717 114.0520668  99.6975787  76.2911595 113.9836077  99.4034548
  77.1482313 114.5292613 100.5257613  71.0211461 115.5278807  91.3359186
  70.9011086 115.9735858  92.1744667  70.3264050 115.8764125  90.7772725
  64.6118866 117.6285199  98.8858843  64.7411247 117.8819678  99.7998255
  63.9316317 118.2212907  98.5663498  68.7818353 128.2982449  94.9849318
  68.7042383 129.2490274  95.0637798  68.1779997 127.9528321  95.6424244
  71.2735583 115.4710314 107.6410685  70.4968917 116.0304234 107.6313549
  71.9126146 115.9567097 108.1625555  79.0656364 112.2537107 101.4753661
  78.4230744 112.5469640 100.8293456  78.5611292 112.1390027 102.2806858
  76.7196527 116.0000280  92.1639520  77.6314383 116.2327667  91.9887218
  76.2106174 116.5837324  91.6014599  69.5281955 118.2795767 107.2028652
  70.2696640 118.8180811 106.9263475  68.8218941 118.9062056 107.3600203
  75.0037295 120.4224908 105.8000813  75.4120651 119.9807318 105.0555445
  74.2814556 119.8477535 106.0535006  71.3568365 115.3597515 103.1734370
  72.2029560 115.7836928 103.3169019  71.2967003 114.7031139 103.8672933
  75.3266110 120.9826099  99.5553102  74.6974972 121.1471813  98.8529170
  74.9391772 121.3967708 100.3264066  79.2055342 121.9180536  96.9097466
  78.5206380 122.2979438  96.3594499  79.2899191 122.5275863  97.6429413
  74.5067810 113.0201883 104.8315544  74.2628742 113.7743944 104.2949819
  74.7827741 113.3987231 105.6662791  76.4606273 119.5640495 103.5092809
  76.6723168 120.2072255 102.8327190  76.4136021 118.7302812 103.0414739
  74.0632502 112.1758316 100.4129381  73.2016981 112.4739570 100.7046119
  74.0894937 112.3928715  99.4810414  70.8794072 120.7200507  96.8203187
  71.3432417 120.9988210  96.0307809  70.6150870 119.8183951  96.6376278
  67.7718153 120.2671988  99.7582950  68.3419510 120.6959257  99.1200435
  68.3626264 119.9854573 100.4567136  69.8162958 116.8423659  93.6292752
  70.5187001 117.2944703  94.0966678  69.4843586 116.2007478  94.2572645
  68.2643319 115.4335416 108.0043962  67.6341980 116.1151696 108.2379358
  68.1579407 115.3218497 107.0597100  63.5588292 115.1007212  98.9309886
  62.7687346 115.3564740  98.4549996  64.0499539 115.9155549  99.0361926
  77.5752101 122.4412451 101.6815167  78.3969545 122.0392638 101.3997848
  77.5714504 122.3380685 102.6331282  65.5103037 115.4651791  95.8893362
  64.7134200 115.5770485  96.4076858  65.2828629 115.8038443  95.0234253
  71.3408705 121.9896494 103.8375877  71.4053137 122.4516901 104.6734049
  70.6319628 121.3593859 103.9658187  85.6658094 118.7851199  98.0300138
  84.9121803 118.2158597  97.8744142  85.8005635 118.7513864  98.9770773
  71.0556722 123.6564602  93.7054857  70.9202397 124.5016137  94.1339705
  71.5966535 123.8583879  92.9420791  67.5424062 109.7356181 110.3669213
  67.1491007 109.1822380 111.0416857  68.3590202 110.0466760 110.7575730
  64.5086120 121.1740040  94.2782782  65.0210640 121.9683290  94.4288347
  65.1608832 120.4766330  94.2116384  66.3181004 124.2905796  96.3605536
  66.4947633 125.2123761  96.1726520  67.1137838 123.9764215  96.7899915
  70.4592023 111.1514061 107.9589469  71.2001736 111.7521214 107.8793932
  70.6909946 110.4091698 107.4007512  65.6033361 116.3370428 106.2367699
  65.4886876 115.4355685 106.5374798  64.7477879 116.5834125 105.8852515
  72.6825199 124.2788168 107.8355199  72.2389053 123.4924547 107.5176104
  73.3442412 124.4667319 107.1699090  67.4412320 125.8083970 102.3615878
  67.9919745 125.6801033 101.5892872  66.6023796 126.1078859 102.0110771
  74.7806437 124.5590968 105.8636601  74.7624912 125.3799849 105.3716870
  75.7026357 124.4345043 106.0886742  71.2379491 122.0735098 106.7060109
  71.7707828 121.3123386 106.4759417  70.7093572 121.7808749 107.4484264
  62.4735036 119.5028694  95.0542353  63.3110258 119.9125702  94.8376061
  62.6513304 118.5628136  95.0242547  74.3699468 117.1703775  90.7426186
  73.8546092 117.9408379  90.9814573  74.0976777 116.4968911  91.3659247
  71.9546580 112.0153475  95.8011424  71.0988176 111.6260326  95.6217063
  72.3673531 112.0945436  94.9411210  73.4845726 109.5499819 100.2002984
  72.9810522 109.5129954  99.3870789  73.7776333 110.4592561 100.2599641
  69.7288612 109.6338548  99.2069166  70.5941609 109.4381357  98.8475055
  69.7966121 109.4048900 100.1338523  79.3433743 119.9236129  92.6779359
  78.5663185 119.5847289  92.2334521  80.0225224 119.9288752  92.0034324
  74.1585772 115.0430867  92.5685967  73.8535907 115.3577016  93.4196110
  75.1116214 115.1212287  92.6113300  72.6032204 121.2021090  94.2178921
  72.0753565 120.4673850  93.9052159  72.1019706 121.9795766  93.9718889
  77.5825050 119.3970110  99.3345967  76.9248724 120.0869372  99.4226096
  78.3865449 119.7866542  99.6779954  67.3350931 111.8640756  96.5785533
  67.9094683 111.6415938  95.8458726  67.9221914 111.9329451  97.3314134
  76.3930508 117.7514483  97.3849909  76.9062390 118.3844475  97.8871619
  77.0431732 117.1515679  97.0193269  67.6620518 113.8945217  90.5981418
  66.8257830 114.2319904  90.9190693  67.5225288 113.7594197  89.6608555
  69.6373599 108.7382005  95.3060602  68.9838011 108.4231022  94.6817217
  69.5954073 108.1157746  96.0320425  70.7484804 119.0201300  87.2213894
  69.8411865 118.7890554  87.4205043  71.2455836 118.2238920  87.4087876
  73.6552883 127.7298807  90.1410580  72.9814581 128.0330504  90.7495538
  74.0418705 128.5327888  89.7916037  72.8711339 115.2263939  99.6308250
  71.9533901 115.4478886  99.4729938  73.2871483 115.3010249  98.7719957
  73.6546387 116.6255354  94.7610930  74.4018206 117.1376752  94.4518052
  73.9237976 116.3039407  95.6215323  71.9273037 119.1213895  91.7437884
  71.0184256 118.8372928  91.8410354  71.9568121 119.5412974  90.8841191
  77.1592305 122.7320485  95.5129052  76.7054632 121.8911394  95.5694242
  76.5286271 123.3681883  95.8503832  76.1025224 113.6612471  96.7429719
  75.3647981 113.1489857  97.0739962  76.3551998 113.2212852  95.9312996
  75.6025244 124.5696981  96.4478870  75.8948218 125.1302038  95.7291236
  76.1123864 124.8625542  97.2032029  76.2036851 106.4388723  97.3371489
  76.5095728 105.5786086  97.0497404  76.9289456 107.0306343  97.1370482
  62.4961207 116.8419409  95.7253086  62.2985607 116.2488770  95.0004153
  61.9407871 116.5371619  96.4429025  70.4757931 116.7342516  97.8447680
  70.5306541 115.7816352  97.7690156  69.6649133 116.8901955  98.3288978
  71.6249125 120.6622639  89.0825963  71.1868555 119.9458498  88.6231600
  72.3659566 120.8898754  88.5211054  68.4150291 115.3519575  95.6038058
  67.6018157 115.6513746  96.0103251  68.9109285 114.9575264  96.3212541
  70.5658869 125.3477332  97.5372323  70.5235048 125.5738179  96.6080855
  71.4821568 125.1140707  97.6858124  74.0124503 115.8161400 104.4352952
  74.3673890 116.0432873 105.2947418  74.6596634 116.1479777 103.8130208
  79.7422240 118.9379836  95.1402281  79.6040138 119.1281432  94.2123471
  79.3858459 119.6999219  95.5970332  67.9064366 112.9237931 101.2199293
  68.5463745 112.7826690 100.5222257  67.0741896 112.6372444 100.8437895
  79.7691619 121.0056363 100.1513553  80.2028126 120.9131652 100.9996607
  80.4823200 120.9813863  99.5133569  68.6824670 122.2240361  97.3334286
  69.4765268 121.7290682  97.1316861  67.9716362 121.6958225  96.9701991
  73.5019514 124.6058457 101.6846653  73.5556536 125.1749393 102.4524369
  72.6334296 124.7760342 101.3200691  64.9907433 116.3683443  93.4094039
  64.0605021 116.3067899  93.6264001  65.0864905 115.8459396  92.6130680
  64.9092982 112.8938256  95.9972280  65.1699800 113.8083589  95.8881441
  65.7310155 112.4262699  96.1468893  66.3817908 114.3076013 103.1671105
  67.0540961 114.0993375 102.5183754  65.5547694 114.1098099 102.7276337
  80.6307169 121.0480063 102.6846438  80.8243059 121.9525874 102.9305713
  80.5307787 120.5887483 103.5185023  72.2843480 110.9337954 105.1836766
  71.6371395 111.6327904 105.0901242  73.0544495 111.3674098 105.5513014
  75.6922278 121.1986806 108.2587319  75.5407784 120.9697358 107.3417403
  75.6826957 122.1557408 108.2718664  72.4607614 118.7718719 103.2433585
  73.3899674 118.9229879 103.0702553  72.0398644 118.8602740 102.3882232
  71.2595946 122.7969383 101.0132123  71.1207031 122.4288168 101.8858061
  70.4710542 123.3117023 100.8416081  71.8544098 127.8978480  92.3557659
  72.0295853 127.4266523  93.1703282  71.1676886 128.5244246  92.5838920
  72.8101161 122.1750986  98.4020961  72.4750993 122.1351756  99.2978611
  72.3105107 121.5095702  97.9291371  66.7845405 117.5818616 103.9273542
  66.6465203 116.8498855 104.5285081  67.6950328 117.4927516 103.6457730
  75.7460353 119.5207020  88.6758020  75.1289523 118.7953849  88.5791073
  75.2776841 120.2816381  88.3325095  69.4127706 117.2938575 103.4157222
  70.1227324 116.6531768 103.3743840  69.3697014 117.5451470 104.3383402
  77.4014484 124.2305929 106.3363801  77.3427030 123.5465149 105.6694384
  77.8034003 124.9724919 105.8844427  68.1256639 114.2803793 105.2352861
  67.5893997 113.8294532 105.8874457  67.5373348 114.4149702 104.4923325
  66.4205183 131.0467843  99.1297520  66.6601781 131.6786367  99.8076538
  65.5774379 130.6955883  99.4162879  67.5358898 113.7392445  87.7979325
  66.6588365 113.6181246  87.4341571  68.0116652 112.9478523  87.5458213
  77.4031891 122.1945513 104.5677780  76.5158670 121.8571435 104.6904179
  77.9730443 121.4628544 104.8046546  63.8595761 113.4159801 102.3205856
  63.7753949 112.8085471 101.5856265  63.0378467 113.9068819 102.3215352
  70.9333045 126.8546965 101.5339024  70.8603216 127.6601937 102.0458328
  70.4910438 127.0538931 100.7087045  70.7222824 126.0918735  95.0441845
  69.9390346 126.6340415  95.1380070  71.4215570 126.6092715  95.4436086
  74.0319475 111.9013365  97.6876051  74.5288174 111.1483327  97.3677121
  73.2606456 111.9377681  97.1219260  81.8849232 117.6053730  99.3294342
  81.8739108 118.4878446  98.9588275  81.0166611 117.2525281  99.1348879
  73.3931728 126.7533799 103.6897182  74.1059701 127.3881264 103.6173084
  72.9021757 126.8497665 102.8737184  75.1149255 120.6585052  95.2614474
  74.1805534 120.7786514  95.0919178  75.2925924 119.7557519  94.9974484
  70.6154443 114.0430748  97.4147735  70.2452231 113.4901788  98.1028641
  71.1113536 113.4388881  96.8622735  78.5021807 116.5002371  95.7964508
  78.9682259 117.3330363  95.7224811  78.9529307 116.0347353  96.5009767
  68.4443642 124.5028243 104.5102753  69.1453101 125.1364726 104.6632147
  67.9738757 124.8442974 103.7498392  76.5698038 122.8446192  92.7950660
  76.8457882 122.7302787  93.7044534  75.7002536 122.4463677  92.7562833
  76.4738469 108.8682958  99.8355409  75.5601549 109.0987185 100.0037616
  76.9031571 108.9521402 100.6869442  76.2444928 117.0572850 102.3355303
  75.5916378 117.3048757 101.6807756  76.6225308 116.2436988 102.0017781
  73.2052102 127.0932543  96.4383474  73.3874496 126.2754199  96.9011226
  74.0285088 127.3100235  96.0008364  73.5394267 126.0200728  93.6998522
  74.0682034 125.5093183  93.0868684  73.8022487 125.7043259  94.5644055
  72.2932501 117.7992661 108.8221341  71.6173138 117.6986790 109.4923716
  73.1160135 117.6431875 109.2857338  64.0411360 124.0364598 101.4433856
  64.6264797 123.2908286 101.5761760  63.8436198 124.3468554 102.3270520
  66.8950015 127.0715845  96.4596298  66.2260390 127.5561973  95.9760338
  66.7562885 127.3185065  97.3739677  71.0355284 129.1059589 103.0578957
  71.5873592 129.2691210 103.8228042  71.3761477 129.6964026 102.3858981
  66.0119777 111.4534738 103.6600841  66.0761103 112.3149569 103.2478239
  65.9486897 110.8408740 102.9273200  65.4872050 113.5257871 107.3073875
  66.1144088 113.1434948 107.9211400  64.6299968 113.3072073 107.6729568
  75.8866158 123.9320846 108.9127611  76.4306062 124.5450804 108.4182566
  75.3053003 124.4900424 109.4294624  62.2637592 115.3334300  93.2392230
  62.5591033 114.4244978  93.1859284  61.3625628 115.3122039  92.9173233
  74.1723671 127.0541564 100.0442639  74.0474811 126.2531304  99.5353584
  74.8302762 127.5487757  99.5556609  65.7931839 113.4090297  99.2219779
  65.0718425 114.0226264  99.0827252  66.5825095 113.9448061  99.1436425
  76.2358579 124.8550584 101.6722189  75.2888915 124.7355935 101.6000516
  76.5841353 123.9673082 101.7548450  68.5958153 110.7444723 105.4960431
  69.1192555 110.9907020 106.2586740  68.3770486 111.5764758 105.0763568
  63.9925434 113.0148398  93.3631555  63.6638140 112.1345777  93.1806661
  64.3464805 112.9596066  94.2507945  73.2405013 124.6503300  97.8726541
  73.0929975 123.7220008  98.0534111  74.0658506 124.6723391  97.3883616
  67.1067257 113.3021367  93.7307033  67.4463330 113.8307289  93.0085642
  67.5539378 113.6401774  94.5065600  76.8439135 125.4731859  98.9591414
  77.7685682 125.2674720  98.8215865  76.6754438 125.2248260  99.8680755
  69.8010698 111.6858418 103.1810101  69.4607518 110.8866231 103.5830781
  69.0949704 111.9860129 102.6086934  70.4527170 108.7707731 101.6337424
  71.2753239 108.2968209 101.5116315  70.6965233 109.5498214 102.1336111
  69.0935404 111.7995989  91.9300326  69.8143767 112.1777242  91.4264043
  68.4700708 112.5184866  92.0335304  73.2366527 112.5041138  92.8658658
  73.4530141 113.3865776  92.5647486  72.7560594 112.1127351  92.1364300
  67.9765748 115.4626851  99.4429403  67.8310329 115.7767154 100.3353684
  67.4990952 116.0811752  98.8900301  69.8362131 112.4529399  99.4910292
  69.8223700 111.5570493  99.1542590  70.5534559 112.4600063 100.1248578
  71.6888262 112.8866739 101.5363420  71.4306040 113.8083810 101.5347750
  71.1573302 112.4897174 102.2263884  76.6334451 125.9917527  94.3153505
  76.8071328 125.4263949  93.5627358  77.1263342 126.7918421  94.1332995
  62.4511411 118.0032196 102.3817064  61.9064879 118.7792004 102.5137338
  63.3290760 118.3503000 102.2236185  69.2399027 111.3343779  94.7597863
  69.3614938 110.4060426  94.9588750  68.9501070 111.3482465  93.8476178
  72.1090218 109.0198690  97.8964582  72.1311914 109.0838023  96.9416562
  72.5258277 108.1803199  98.0905089  82.4873842 118.7553949  95.9343805
  82.9304988 118.0061275  95.5362928  81.6100352 118.7464086  95.5517537
  77.6209623 125.3084291  91.4150403  78.3160528 125.9290984  91.6337718
  77.9632773 124.4579642  91.6902781  63.2377432 117.1302092 105.2747221
  62.4959168 117.2784727 105.8611851  62.9170177 117.3910357 104.4113970
  79.5201046 122.7583996  92.9437734  80.0452370 123.0971269  92.2187054
  79.4323399 121.8231012  92.7600869  71.1821095 126.6718070 105.0727611
  71.4908222 126.4267217 105.9450310  71.9796577 126.8764709 104.5846481
  71.2041707 128.8255980  97.3032987  70.7646697 128.3332358  97.9965844
  71.9549824 128.2828947  97.0625063  63.6834046 125.0167521  97.3057616
  64.5092066 124.7171292  96.9256259  63.3328098 124.2475143  97.7547404
  68.6515579 124.3693989  99.3755289  68.0295589 123.7064694  99.0757517
  69.3220446 124.3955121  98.6928937  61.8842651 122.9353847  98.2646549
  61.0474559 122.5076021  98.0830550  61.8566297 123.1286290  99.2017340
  68.7240107 112.8475777 108.9687795  68.7728262 113.7237900 108.5865565
  69.2662621 112.3053170 108.3959438  79.2094952 123.3916900 108.2488932
  78.4190496 123.3741039 107.7093432  78.9728307 123.9305194 109.0037969
  79.3292828 120.2409366 105.5621661  79.3790832 120.0759374 106.5037184
  79.2206751 119.3736626 105.1719542  68.2129086 122.9197912  92.8513750
  68.3617207 123.6033377  92.1980422  69.0195530 122.9003002  93.3663205
  76.6196590 116.2240295 106.8780967  77.5206453 116.0846759 106.5864965
  76.6944564 116.3894749 107.8179145  70.9539395 113.6007149 105.7234154
  70.0842705 113.8940715 105.4516742  71.1898876 114.1847594 106.4441417
  80.8311024 122.6606308 105.8063682  80.5395833 123.0236289 106.6427143
  80.2183156 121.9473316 105.6277014  82.0306707 120.2259188  98.3266253
  82.8653598 120.6648992  98.4903813  82.1665835 119.7497841  97.5074498
  79.0798213 117.7838923 104.2743740  79.5552334 117.9766569 103.4662592
  78.1563778 117.8398108 104.0287124  65.9681719 118.9463090  93.8574819
  65.7227761 118.0425420  94.0555029  66.1377634 118.9480240  92.9154297
  73.6578429 109.8186766 103.2399574  74.1760373 110.5547793 102.9146063
  73.3033562 110.1250759 104.0746333  65.2377367 114.6791447  91.3560980
  64.5446612 114.7535802  90.7001016  64.9929119 113.9151791  91.8782497
  73.9091023 106.2387049  98.7600471  74.1892777 105.5710238  99.3860897
  74.6941630 106.4316144  98.2475135  71.7124492 125.4146043  90.3225497
  71.1398459 126.0336230  89.8695969  72.2857285 125.9645404  90.8565419
  77.7799882 114.6604683 102.5072046  78.7317304 114.7602780 102.5284270
  77.6103332 113.8682951 103.0170130  75.8014261 111.7460266 102.6931447
  75.2064193 112.0265279 101.9977935  75.5163958 112.2354167 103.4648188
  74.9321752 125.6983193  91.4534079  75.8652425 125.6328754  91.6566955
  74.8444964 126.5339460  90.9948612  77.5609768 125.0149063  88.4138027
  77.4823400 124.6808927  89.3073785  78.3819435 125.5070831  88.4129499
  80.2587959 117.8810802 101.6214346  80.2264279 116.9426803 101.8074029
  80.8688583 117.9594839 100.8880170  72.0971290 116.7506855  87.6641550
  73.0430395 116.6213063  87.7329968  71.7185535 116.0121517  88.1410978
  80.4082448 114.6721846 101.6672629  79.8921497 113.8880302 101.4802558
  81.2922396 114.3440562 101.8319148  78.0693175 108.4162861  97.6268441
  77.8717996 108.1077950  98.5111773  78.6792880 109.1424500  97.7566371
  86.0764509 118.9426809 100.7620382  86.8067898 118.6812097 101.3228086
  85.4671455 118.2055531 100.8022450  84.1579806 117.0834672 101.3594834
  83.4312970 116.9490637 100.7511325  83.7427093 117.3911500 102.1651552
  71.9809983 120.8024602 109.1242207  72.9012992 120.9803201 109.3182253
  71.9459566 119.8580647 108.9721906  70.2814207 114.6756832  87.5996435
  69.3745663 114.3789944  87.6759148  70.5590188 114.3786650  86.7330721
  64.9772055 118.7125636 101.7664988  65.1958065 119.6442744 101.7853022
  65.3897829 118.3533611 102.5519792  71.8976273 109.2193721  93.7540676
  71.0877001 108.8740806  94.1295922  72.5860690 108.9101265  94.3428288
  73.8266821 108.2971768  95.3764973  74.3797860 108.7167222  96.0354996
  74.0636908 107.3707516  95.4187929  69.8499921 114.2858842 111.1567737
  69.7496648 115.2353199 111.0879828  69.6321463 113.9577081 110.2843807
  69.0512992 111.5343767  87.7408414  69.9132156 111.8598665  88.0004231
  69.2363336 110.7475263  87.2281480  61.0680408 119.6166107 100.0188603
  60.3743879 119.2020059  99.5058557  61.8153399 119.6586643  99.4222022
  77.2045628 110.4072293  94.8843637  76.6244298 111.0657097  94.5021689
  76.9381561 109.5849638  94.4731054  75.6549195 109.8077351  97.0864957
  76.1548973 109.9193886  96.2779276  76.2984803 109.5038404  97.7265766
  69.7131191 117.7155981 109.9732798  69.2298272 118.5156341 110.1796687
  69.7992130 117.7263926 109.0200242  62.9817150 119.5484360  97.8954618
  62.9587838 119.6472048  96.9436501  63.2917787 120.3949511  98.2171784
  65.6404528 121.6060515 102.0101232  66.5947782 121.5744458 101.9431164
  65.4417052 121.1451139 102.8251458  66.2303910 120.1761632 104.5772030
  67.0496799 120.6705710 104.6006867  66.5040718 119.2593600 104.5489597
  75.9870507 112.5672384  93.9399985  75.0996362 112.8522034  93.7220180
  76.4024496 112.4066147  93.0927262  79.3385043 112.5918905  97.6554324
  80.1145433 113.0815357  97.9278941  78.6133177 113.0176959  98.1126194
  81.7757601 113.3046524  98.7128265  82.3702092 113.0642260  98.0021573
  81.8484185 112.5853655  99.3401801  63.9954757 127.1480135  99.0271430
  63.8609225 126.3880536  98.4609428  63.5786819 127.8721035  98.5600219
  75.1313720 122.3317058  88.0348005  75.8349570 122.5367061  88.6505661
  74.4076369 122.8993820  88.2997089  75.9611530 118.0826920  94.1550275
  75.9046732 118.5395471  93.3157908  76.5139873 117.3217604  93.9773118
  79.7716336 113.8716652  94.9800395  79.5153270 113.4713287  95.8108603
  79.1469204 114.5860446  94.8550534  84.0828674 116.6112725  97.4871686
  83.5228232 116.6805914  98.2603248  83.4772177 116.4353709  96.7671183
  67.1523883 128.0449452  99.2389873  67.0356267 128.9894884  99.1368563
  66.3316329 127.7423014  99.6275672  77.0400417 122.7699588  90.0846465
  77.8746021 122.3380786  89.9023940  76.8784760 122.5981601  91.0123360
  76.6946310 119.2731701  91.4502805  76.6395113 119.1075972  90.5091249
  76.0692365 119.9807734  91.6064994  61.4838825 114.5099765 105.2764227
  62.1297688 113.9998719 105.7651452  61.2755976 115.2468447 105.8507652
  74.0092217 121.5780613 110.7756367  74.8783376 121.7521265 110.4143002
  73.5298968 122.3975030 110.6532097  70.0042435 108.7739810  91.0288123
  69.9921105 109.7181650  91.1856394  70.8965857 108.5909955  90.7347584
  68.1778397 128.6977714 102.4545801  69.0805644 128.7301324 102.7712296
  67.9515767 127.7678165 102.4692137  69.9331999 127.4508700  99.1155880
  68.9827630 127.4510562  99.0020252  70.2364485 126.7041435  98.5991914
  73.8194554 105.3682587  95.2834060  73.0526950 104.8141073  95.4290742
  74.2305259 105.4404455  96.1448211  65.8236316 111.6567382 109.3739241
  66.6867777 111.3004187 109.5842566  65.2501726 111.3181277 110.0614645
  85.6684692 133.2869239 100.1801642  86.3063102 133.1675986  99.4764982
  85.5505535 134.2350083 100.2389594  82.4774399 133.2396667 100.1163167
  82.1392910 133.1237732  99.2283702  83.3464167 132.8387832 100.0964173
  78.3361214 135.0932143  96.1060058  77.7726080 135.0022080  95.3376345
  78.2213609 134.2732048  96.5862550  82.9594182 134.3931519 106.0749372
  82.9482823 133.9984317 105.2029876  83.1214821 133.6597591 106.6683144
  75.8825646 136.5883335  98.9444278  76.6746938 136.2474160  98.5290577
  76.1222297 136.6978310  99.8646431  83.9160773 138.7603111  91.4174523
  83.2648753 139.3457191  91.0308536  84.7105136 139.2909306  91.4769560
  77.8416400 135.8492248  91.8161657  78.6147276 135.3021235  91.6774533
  78.1941799 136.7136497  92.0276118  79.6801443 137.1768630 105.0228556
  79.3891309 138.0814261 104.9075223  80.3158427 137.2185158 105.7372626
  80.6057650 134.5545479 101.6129916  81.2021222 134.3301501 100.8986879
  80.6632621 133.8130224 102.2155364  80.1782678 132.0084914  89.4480107
  80.4308199 131.4866436  88.6863570  79.2407237 131.8451060  89.5506790
  85.2225961 131.0120693  97.2554850  86.0089050 130.5940116  96.9045267
  85.4864665 131.9166785  97.4236498  85.3936038 136.4493543  91.9543507
  84.7581871 136.5228169  92.6664412  85.0633445 137.0387142  91.2762586
  90.6234388 130.9495926  98.1587829  91.3559560 130.3795143  98.3925658
  89.8673744 130.5617526  98.5994334  79.8978967 133.9113020  91.6504482
  79.7815225 133.2357924  92.3185566  80.0081227 133.4245394  90.8336635
  82.2410508 133.3723167  95.3551171  81.8768715 132.8453788  96.0664093
  83.0977624 132.9821636  95.1817656  88.1459808 124.6617500 102.6182437
  87.8143133 125.5312911 102.3943652  87.5505422 124.3453784 103.2976468
  81.8815995 128.4013067  90.3512520  82.0490397 129.2693303  90.7182991
  81.6913164 128.5640349  89.4273809  84.6391328 136.8630046 102.0178350
  84.3392051 137.7655085 101.9094157  84.2942387 136.5962229 102.8699503
  78.0903809 133.3143843  98.0515054  77.1654306 133.1820057  98.2592746
  78.3388223 134.0938062  98.5484997  88.0388472 129.3812586  99.6975787
  87.1305349 129.3127995  99.4034548  87.9876068 129.8584531 100.5257613
  81.8605216 130.8570725  91.3359186  81.7404841 131.3027775  92.1744667
  81.1657804 131.2056042  90.7772725  75.4512620 132.9577116  98.8858843
  75.5805002 133.2111595  99.7998255  74.7710072 133.5504824  98.5663498
  79.6212108 143.6274366  94.9849318  79.5436137 144.5782191  95.0637798
  79.0173751 143.2820239  95.6424244  82.1129338 130.8002232 107.6410685
  81.3362672 131.3596152 107.6313549  82.7519901 131.2859015 108.1625555
  89.9050118 127.5829025 101.4753661  89.2624498 127.8761558 100.8293456
  89.4005047 127.4681945 102.2806858  87.5590282 131.3292198  92.1639520
  88.4708138 131.5619584  91.9887218  87.0499929 131.9129242  91.6014599
  80.3675710 133.6087685 107.2028652  81.1090394 134.1472729 106.9263475
  79.6612695 134.2353974 107.3600203  85.8431049 135.7516826 105.8000813
  86.2514406 135.3099236 105.0555445  85.1208311 135.1769453 106.0535006
  82.1962120 130.6889432 103.1734370  83.0423315 131.1128846 103.3169019
  82.1360757 130.0323057 103.8672933  86.1659864 136.3118016  99.5553102
  85.5368727 136.4763730  98.8529170  85.7785526 136.7259626 100.3264066
  90.0449096 137.2472454  96.9097466  89.3600134 137.6271355  96.3594499
  90.1292945 137.8567781  97.6429413  85.3461565 128.3493801 104.8315544
  85.1022497 129.1035861 104.2949819  85.6221495 128.7279148 105.6662791
  87.3000028 134.8932413 103.5092809  87.5116923 135.5364173 102.8327190
  87.2529776 134.0594730 103.0414739  84.9026257 127.5050234 100.4129381
  84.0410736 127.8031487 100.7046119  84.9288691 127.7220633  99.4810414
  81.7187826 136.0492424  96.8203187  82.1826172 136.3280127  96.0307809
  81.4544624 135.1475869  96.6376278  78.6111907 135.5963906  99.7582950
  79.1813264 136.0251174  99.1200435  79.2020019 135.3146491 100.4567136
  80.6556712 132.1715577  93.6292752  81.3580755 132.6236620  94.0966678
  80.3237341 131.5299396  94.2572645  79.1037074 130.7627333 108.0043962
  78.4735734 131.4443614 108.2379358  78.9973161 130.6510415 107.0597100
  74.3982046 130.4299129  98.9309886  73.6081100 130.6856658  98.4549996
  74.8893293 131.2447467  99.0361926  88.4145856 137.7704368 101.6815167
  89.2363299 137.3684556 101.3997848  88.4108258 137.6672603 102.6331282
  76.3496791 130.7943709  95.8893362  75.5527955 130.9062403  96.4076858
  76.1222384 131.1330361  95.0234253  82.1802459 137.3188412 103.8375877
  82.2446892 137.7808819 104.6734049  81.4713383 136.6885777 103.9658187
  72.6819749 130.6829620 101.3624876  72.9327787 131.5676630 101.6282452
  73.2179297 130.5034221 100.5899968  96.5051849 134.1143117  98.0300138
  95.7515557 133.5450515  97.8744142  96.6399390 134.0805781  98.9770773
  81.8950477 138.9856519  93.7054857  81.7596151 139.8308055  94.1339705
  82.4360289 139.1875797  92.9420791  78.3817816 125.0648099 110.3669213
  77.9884762 124.5114298 111.0416857  79.1983957 125.3758678 110.7575730
  75.3479874 136.5031957  94.2782782  75.8604395 137.2975208  94.4288347
  76.0002587 135.8058248  94.2116384  77.1574759 139.6197714  96.3605536
  77.3341387 140.5415678  96.1726520  77.9531592 139.3056133  96.7899915
  81.2985777 126.4805978 107.9589469  82.0395491 127.0813131 107.8793932
  81.5303700 125.7383616 107.4007512  76.4427115 131.6662345 106.2367699
  76.3280630 130.7647603 106.5374798  75.5871633 131.9126042 105.8852515
  83.5218953 139.6080086 107.8355199  83.0782807 138.8216464 107.5176104
  84.1836167 139.7959236 107.1699090  78.2806074 141.1375887 102.3615878
  78.8313499 141.0092951 101.5892872  77.4417550 141.4370776 102.0110771
  85.6200191 139.8882886 105.8636601  85.6018666 140.7091767 105.3716870
  86.5420111 139.7636961 106.0886742  82.0773245 137.4027015 106.7060109
  82.6101582 136.6415303 106.4759417  81.5487326 137.1100667 107.4484264
  85.2442940 122.5087081 102.2353751  84.9007210 123.3988723 102.1592861
  85.6121903 122.3188739 101.3723336  73.3128791 134.8320612  95.0542353
  74.1504013 135.2417620  94.8376061  73.4907059 133.8920054  95.0242547
  85.2093223 132.4995692  90.7426186  84.6939846 133.2700297  90.9814573
  84.9370531 131.8260828  91.3659247  82.7940334 127.3445393  95.8011424
  81.9381930 126.9552243  95.6217063  83.2067286 127.4237354  94.9411210
  84.3239481 124.8791736 100.2002984  83.8204276 124.8421871  99.3870789
  84.6170088 125.7884479 100.2599641  80.5682367 124.9630466  99.2069166
  81.4335363 124.7673275  98.8475055  80.6359875 124.7340818 100.1338523
  90.1827497 135.2528047  92.6779359  89.4056940 134.9139206  92.2334521
  90.8618978 135.2580670  92.0034324  84.9979526 130.3722784  92.5685967
  84.6929662 130.6868934  93.4196110  85.9509968 130.4504204  92.6113300
  83.4425958 136.5313008  94.2178921  82.9147320 135.7965767  93.9052159
  82.9413461 137.3087684  93.9718889  88.4218804 134.7262028  99.3345967
  87.7642478 135.4161290  99.4226096  89.2259203 135.1158460  99.6779954
  78.1744686 127.1932674  96.5785533  78.7488438 126.9707855  95.8458726
  78.7615668 127.2621368  97.3314134  87.2324263 133.0806401  97.3849909
  87.7456145 133.7136393  97.8871619  87.8825487 132.4807596  97.0193269
  78.5014273 129.2237135  90.5981418  77.6651585 129.5611822  90.9190693
  78.3619042 129.0886115  89.6608555  80.4767353 124.0673923  95.3060602
  79.8231766 123.7522940  94.6817217  80.4347827 123.4449663  96.0320425
  81.5878558 134.3493218  87.2213894  80.6805620 134.1182471  87.4205043
  82.0849590 133.5530837  87.4087876  84.4946637 143.0590725  90.1410580
  83.8208336 143.3622422  90.7495538  84.8812459 143.8619805  89.7916037
  83.7105094 130.5555856  99.6308250  82.7927655 130.7770803  99.4729938
  84.1265237 130.6302167  98.7719957  84.4940141 131.9547272  94.7610930
  85.2411960 132.4668669  94.4518052  84.7631731 131.6331325  95.6215323
  82.7666792 134.4505813  91.7437884  81.8578011 134.1664846  91.8410354
  82.7961875 134.8704891  90.8841191  87.9986059 138.0612402  95.5129052
  87.5448386 137.2203312  95.5694242  87.3680026 138.6973801  95.8503832
  86.9418979 128.9904388  96.7429719  86.2041735 128.4781775  97.0739962
  87.1945752 128.5504770  95.9312996  86.4418998 139.8988899  96.4478870
  86.7341973 140.4593956  95.7291236  86.9517619 140.1917460  97.2032029
  87.0430606 121.7680640  97.3371489  87.3489483 120.9078004  97.0497404
  87.7683211 122.3598261  97.1370482  73.3354962 132.1711327  95.7253086
  73.1379362 131.5780688  95.0004153  72.7801626 131.8663537  96.4429025
  81.3151686 132.0634433  97.8447680  81.3700295 131.1108270  97.7690156
  80.5042888 132.2193872  98.3288978  82.4642879 135.9914556  89.0825963
  82.0262309 135.2750415  88.6231600  83.2053320 136.2190671  88.5211054
  79.2544046 130.6811493  95.6038058  78.4411911 130.9805664  96.0103251
  79.7503040 130.2867182  96.3212541  81.4052623 140.6769250  97.5372323
  81.3628802 140.9030096  96.6080855  82.3215322 140.4432625  97.6858124
  84.8518257 131.1453318 104.4352952  85.2067645 131.3724791 105.2947418
  85.4990388 131.4771694 103.8130208  90.5815994 134.2671753  95.1402281
  90.4433893 134.4573349  94.2123471  90.2252213 135.0291136  95.5970332
  78.7458120 128.2529849 101.2199293  79.3857500 128.1118608 100.5222257
  77.9135651 127.9664362 100.8437895  90.6085374 136.3348281 100.1513553
  91.0421880 136.2423570 100.9996607  91.3216954 136.3105781  99.5133569
  79.5218424 137.5532279  97.3334286  80.3159023 137.0582599  97.1316861
  78.8110117 137.0250142  96.9701991  84.3413269 139.9350375 101.6846653
  84.3950291 140.5041311 102.4524369  83.4728050 140.1052260 101.3200691
  75.8301188 131.6975361  93.4094039  74.8998776 131.6359816  93.6264001
  75.9258660 131.1751314  92.6130680  75.7486737 128.2230174  95.9972280
  76.0093554 129.1375507  95.8881441  76.5703909 127.7554616  96.1468893
  77.2211662 129.6367931 103.1671105  77.8934716 129.4285293 102.5183754
  76.3941449 129.4390017 102.7276337  91.4700923 136.3771981 102.6846438
  91.6636813 137.2817792 102.9305713  91.3701542 135.9179400 103.5185023
  83.1237234 126.2629872 105.1836766  82.4765149 126.9619821 105.0901242
  83.8938249 126.6966016 105.5513014  86.5316032 136.5278724 108.2587319
  86.3801538 136.2989276 107.3417403  86.5220712 137.4849325 108.2718664
  83.3001368 134.1010637 103.2433585  84.2293428 134.2521796 103.0702553
  82.8792398 134.1894657 102.3882232  82.0989700 138.1261301 101.0132123
  81.9600786 137.7580085 101.8858061  81.3104296 138.6408940 100.8416081
  82.6937852 143.2270398  92.3557659  82.8689608 142.7558441  93.1703282
  82.0070640 143.8536164  92.5838920  83.6494915 137.5042904  98.4020961
  83.3144748 137.4643674  99.2978611  83.1498861 136.8387620  97.9291371
  77.6239159 132.9110534 103.9273542  77.4858957 132.1790773 104.5285081
  78.5344083 132.8219434 103.6457730  86.5854107 134.8498938  88.6758020
  85.9683278 134.1245766  88.5791073  86.1170595 135.6108298  88.3325095
  80.2521460 132.6230493 103.4157222  80.9621079 131.9823685 103.3743840
  80.2090768 132.8743388 104.3383402  88.2408239 139.5597846 106.3363801
  88.1820785 138.8757067 105.6694384  88.6427757 140.3016836 105.8844427
  78.9650394 129.6095711 105.2352861  78.4287751 129.1586449 105.8874457
  78.3767102 129.7441620 104.4923325  77.2598937 146.3759760  99.1297520
  77.4995536 147.0078284  99.8076538  76.4168134 146.0247800  99.4162879
  78.3752653 129.0684362  87.7979325  77.4982119 128.9473163  87.4341571
  78.8510406 128.2770441  87.5458213  88.2425646 137.5237430 104.5677780
  87.3552425 137.1863352 104.6904179  88.8124197 136.7920462 104.8046546
  69.8954793 133.8561522  97.8920832  70.5825833 133.5423252  97.3041847
  69.7402922 134.7602887  97.6188083  74.6989515 128.7451719 102.3205856
  74.6147704 128.1377388 101.5856265  73.8772222 129.2360737 102.3215352
  81.7726799 142.1838883 101.5339024  81.6996971 142.9893854 102.0458328
  81.3304192 142.3830849 100.7087045  81.5616579 141.4210653  95.0441845
  80.7784101 141.9632333  95.1380070  82.2609324 141.9384632  95.4436086
  84.8713229 127.2305282  97.6876051  85.3681929 126.4775245  97.3677121
  84.1000211 127.2669599  97.1219260  92.7242986 132.9345648  99.3294342
  92.7132863 133.8170363  98.9588275  91.8560366 132.5817199  99.1348879
  84.2325483 142.0825717 103.6897182  84.9453455 142.7173182 103.6173084
  83.7415512 142.1789583 102.8737184  85.9543010 135.9876969  95.2614474
  85.0199289 136.1078432  95.0919178  86.1319678 135.0849436  94.9974484
  81.4548198 129.3722665  97.4147735  81.0845985 128.8193706  98.1028641
  81.9507290 128.7680799  96.8622735  89.3415561 131.8294289  95.7964508
  89.8076013 132.6622280  95.7224811  89.7923062 131.3639270  96.5009767
  79.2837396 139.8320160 104.5102753  79.9846856 140.4656643 104.6632147
  78.8132511 140.1734892 103.7498392  87.4091792 138.1738110  92.7950660
  87.6851636 138.0594705  93.7044534  86.5396291 137.7755595  92.7562833
  87.3132224 124.1974876  99.8355409  86.3995304 124.4279103 100.0037616
  87.7425325 124.2813320 100.6869442  87.0838682 132.3864768 102.3355303
  86.4310133 132.6340675 101.6807756  87.4619062 131.5728906 102.0017781
  84.0445856 142.4224461  96.4383474  84.2268251 141.6046117  96.9011226
  84.8678842 142.6392153  96.0008364  84.3788022 141.3492646  93.6998522
  84.9075788 140.8385101  93.0868684  84.6416241 141.0335176  94.5644055
  83.1326255 133.1284579 108.8221341  82.4566892 133.0278708 109.4923716
  83.9553889 132.9723792 109.2857338  74.8805114 139.3656515 101.4433856
  75.4658551 138.6200203 101.5761760  74.6829953 139.6760472 102.3270520
  77.7343770 142.4007763  96.4596298  77.0654145 142.8853890  95.9760338
  77.5956639 142.6476983  97.3739677  69.4722769 131.9362116 100.1638299
  69.5106869 131.4025706 100.9575417  68.9663062 131.4097321  99.5449276
  81.8749038 144.4351506 103.0578957  82.4267346 144.5983128 103.8228042
  82.2155232 145.0255944 102.3858981  76.8513531 126.7826656 103.6600841
  76.9154858 127.6441487 103.2478239  76.7880652 126.1700658 102.9273200
  76.3265804 128.8549789 107.3073875  76.9537843 128.4726866 107.9211400
  75.4693723 128.6363990 107.6729568  86.7259913 139.2612764 108.9127611
  87.2699817 139.8742722 108.4182566  86.1446757 139.8192342 109.4294624
  73.1031347 130.6626218  93.2392230  73.3984788 129.7536896  93.1859284
  72.2019383 130.6413957  92.9173233  85.0117426 142.3833482 100.0442639
  84.8868565 141.5823222  99.5353584  85.6696517 142.8779675  99.5556609
  76.6325594 128.7382214  99.2219779  75.9112180 129.3518182  99.0827252
  77.4218850 129.2739979  99.1436425  87.0752334 140.1842502 101.6722189
  86.1282669 140.0647853 101.6000516  87.4235107 139.2965000 101.7548450
  79.4351907 126.0736641 105.4960431  79.9586309 126.3198937 106.2586740
  79.2164241 126.9056676 105.0763568  74.8319188 128.3440315  93.3631555
  74.5031895 127.4637694  93.1806661  75.1858559 128.2887984  94.2507945
  84.0798767 139.9795218  97.8726541  83.9323730 139.0511925  98.0534111
  84.9052261 140.0015309  97.3883616  77.9461012 128.6313285  93.7307033
  78.2857084 129.1599206  93.0085642  78.3933132 128.9693691  94.5065600
  87.6832889 140.8023777  98.9591414  88.6079437 140.5966638  98.8215865
  87.5148192 140.5540178  99.8680755  80.6404452 127.0150336 103.1810101
  80.3001273 126.2158149 103.5830781  79.9343459 127.3152047 102.6086934
  81.2920924 124.0999648 101.6337424  82.1146993 123.6260126 101.5116315
  81.5358988 124.8790132 102.1336111  79.9329159 127.1287907  91.9300326
  80.6537521 127.5069159  91.4264043  79.3094463 127.8476784  92.0335304
  84.0760282 127.8333056  92.8658658  84.2923896 128.7157694  92.5647486
  83.5954349 127.4419269  92.1364300  78.8159503 130.7918769  99.4429403
  78.6704084 131.1059072 100.3353684  78.3384707 131.4103669  98.8900301
  80.6755886 127.7821317  99.4910292  80.6617455 126.8862410  99.1542590
  81.3928314 127.7891981 100.1248578  82.5282017 128.2158657 101.5363420
  82.2699794 129.1375728 101.5347750  81.9967057 127.8189092 102.2263884
  87.4728205 141.3209444  94.3153505  87.6465083 140.7555867  93.5627358
  87.9657097 142.1210339  94.1332995  73.2905165 133.3324113 102.3817064
  72.7458633 134.1083921 102.5137338  74.1684515 133.6794918 102.2236185
  80.0792782 126.6635697  94.7597863  80.2008693 125.7352343  94.9588750
  79.7894824 126.6774383  93.8476178  82.9483972 124.3490608  97.8964582
  82.9705669 124.4129941  96.9416562  83.3652031 123.5095116  98.0905089
  93.3267596 134.0845867  95.9343805  93.7698742 133.3353192  95.5362928
  92.4494107 134.0756004  95.5517537  88.4603378 140.6376209  91.4150403
  89.1554282 141.2582901  91.6337718  88.8026528 139.7871560  91.6902781
  74.0771187 132.4594010 105.2747221  73.3352923 132.6076645 105.8611851
  73.7563931 132.7202275 104.4113970  90.3594801 138.0875914  92.9437734
  90.8846125 138.4263187  92.2187054  90.2717153 137.1522929  92.7600869
  82.0214850 142.0009988 105.0727611  82.3301976 141.7559135 105.9450310
  82.8190332 142.2056626 104.5846481  82.0435462 144.1547897  97.3032987
  81.6040452 143.6624276  97.9965844  82.7943579 143.6120865  97.0625063
  74.5227801 140.3459438  97.3057616  75.3485821 140.0463210  96.9256259
  74.1721853 139.5767061  97.7547404  79.4909334 139.6985907  99.3755289
  78.8689343 139.0356612  99.0757517  80.1614201 139.7247038  98.6928937
  72.7236406 138.2645765  98.2646549  71.8868314 137.8367939  98.0830550
  72.6960051 138.4578208  99.2017340  79.5633861 128.1767695 108.9687795
  79.6122017 129.0529817 108.5865565  80.1056375 127.6345088 108.3959438
  90.0488707 138.7208818 108.2488932  89.2584251 138.7032957 107.7093432
  89.8122062 139.2597111 109.0037969  90.1686582 135.5701284 105.5621661
  90.2184587 135.4051292 106.5037184  90.0600505 134.7028543 105.1719542
  79.0522841 138.2489830  92.8513750  79.2010961 138.9325294  92.1980422
  79.8589284 138.2294920  93.3663205  87.4590344 131.5532212 106.8780967
  88.3600207 131.4138677 106.5864965  87.5338319 131.7186667 107.8179145
  81.7933150 128.9299067 105.7234154  80.9236459 129.2232633 105.4516742
  82.0292630 129.5139512 106.4441417  91.6704779 137.9898226 105.8063682
  91.3789587 138.3528206 106.6427143  91.0576910 137.2765234 105.6277014
  92.8700461 135.5551105  98.3266253  93.7047353 135.9940910  98.4903813
  93.0059590 135.0789759  97.5074498  89.9191967 133.1130840 104.2743740
  90.3946089 133.3058487 103.4662592  88.9957532 133.1690026 104.0287124
  76.8075474 134.2755007  93.8574819  76.5621516 133.3717337  94.0555029
  76.9771388 134.2772158  92.9154297  84.4972184 125.1478684 103.2399574
  85.0154127 125.8839711 102.9146063  84.1427316 125.4542677 104.0746333
  76.0771121 130.0083365  91.3560980  75.3840366 130.0827720  90.7001016
  75.8322873 129.2443709  91.8782497  84.7484778 121.5678966  98.7600471
  85.0286531 120.9002155  99.3860897  85.5335385 121.7608062  98.2475135
  82.5518246 140.7437960  90.3225497  81.9792213 141.3628147  89.8695969
  83.1251040 141.2937322  90.8565419  88.6193636 129.9896600 102.5072046
  89.5711059 130.0894698 102.5284270  88.4497086 129.1974869 103.0170130
  86.6408016 127.0752184 102.6931447  86.0457948 127.3557196 101.9977935
  86.3557712 127.5646085 103.4648188  85.7715506 141.0275110  91.4534079
  86.7046179 140.9620672  91.6566955  85.6838719 141.8631377  90.9948612
  88.4003523 140.3440981  88.4138027  88.3217154 140.0100844  89.3073785
  89.2213189 140.8362749  88.4129499  91.0981714 133.2102720 101.6214346
  91.0658034 132.2718721 101.8074029  91.7082338 133.2886757 100.8880170
  82.9365045 132.0798773  87.6641550  83.8824149 131.9504981  87.7329968
  82.5579290 131.3413435  88.1410978  91.2476202 130.0013764 101.6672629
  90.7315251 129.2172220 101.4802558  92.1316151 129.6732480 101.8319148
  88.9086929 123.7454779  97.6268441  88.7111750 123.4369867  98.5111773
  89.5186635 124.4716418  97.7566371  96.9158264 134.2718727 100.7620382
  97.6461652 134.0104015 101.3228086  96.3065209 133.5347449 100.8022450
  94.9973561 132.4126590 101.3594834  94.2706724 132.2782554 100.7511325
  94.5820848 132.7203418 102.1651552  82.8203737 136.1316519 109.1242207
  83.7406747 136.3095118 109.3182253  82.7853320 135.1872565 108.9721906
  81.1207962 130.0048749  87.5996435  80.2139417 129.7081862  87.6759148
  81.3983943 129.7078568  86.7330721  72.0385902 131.3255113  98.0495481
  71.7188687 130.4720421  97.7569855  71.4919330 131.5403691  98.8053449
  75.8165810 134.0417554 101.7664988  76.0351820 134.9734662 101.7853022
  76.2291584 133.6825528 102.5519792  82.7370028 124.5485639  93.7540676
  81.9270756 124.2032724  94.1295922  83.4254445 124.2393183  94.3428288
  84.6660576 123.6263686  95.3764973  85.2191614 124.0459139  96.0354996
  84.9030662 122.6999434  95.4187929  80.6893675 129.6150760 111.1567737
  80.5890402 130.5645117 111.0879828  80.4715217 129.2868999 110.2843807
  79.8906747 126.8635685  87.7408414  80.7525910 127.1890583  88.0004231
  80.0757091 126.0767181  87.2281480  71.9074162 134.9458024 100.0188603
  71.2137634 134.5311977  99.5058557  72.6547153 134.9878561  99.4222022
  88.0439383 125.7364211  94.8843637  87.4638052 126.3949015  94.5021689
  87.7775316 124.9141556  94.4731054  86.4942949 125.1369269  97.0864957
  86.9942728 125.2485803  96.2779276  87.1378557 124.8330322  97.7265766
  80.5524945 133.0447898 109.9732798  80.0692027 133.8448259 110.1796687
  80.6385884 133.0555843 109.0200242  73.8210905 134.8776278  97.8954618
  73.7981593 134.9763965  96.9436501  74.1311541 135.7241429  98.2171784
  76.4798283 136.9352433 102.0101232  77.4341536 136.9036375 101.9431164
  76.2810806 136.4743057 102.8251458  77.0697665 135.5053549 104.5772030
  77.8890554 135.9997628 104.6006867  77.3434473 134.5885517 104.5489597
  86.8264261 127.8964302  93.9399985  85.9390116 128.1813952  93.7220180
  87.2418250 127.7358065  93.0927262  90.1778797 127.9210822  97.6554324
  90.9539187 128.4107275  97.9278941  89.4526931 128.3468877  98.1126194
  92.6151356 128.6338442  98.7128265  93.2095847 128.3934178  98.0021573
  92.6877939 127.9145572  99.3401801  74.8348511 142.4772053  99.0271430
  74.7002979 141.7172454  98.4609428  74.4180574 143.2012952  98.5600219
  85.9707474 137.6608976  88.0348005  86.6743325 137.8658979  88.6505661
  85.2470123 138.2285738  88.2997089  86.8005285 133.4118837  94.1550275
  86.7440486 133.8687389  93.3157908  87.3533627 132.6509522  93.9773118
  90.6110091 129.2008569  94.9800395  90.3547025 128.8005205  95.8108603
  89.9862959 129.9152363  94.8550534  94.9222429 131.9404643  97.4871686
  94.3621986 132.0097832  98.2603248  94.3165932 131.7645627  96.7671183
  77.9917637 143.3741370  99.2389873  77.8750021 144.3186802  99.1368563
  77.1710084 143.0714931  99.6275672  87.8794172 138.0991505  90.0846465
  88.7139776 137.6672704  89.9023940  87.7178515 137.9273519  91.0123360
  87.5340064 134.6023619  91.4502805  87.4788868 134.4367890  90.5091249
  86.9086119 135.3099652  91.6064994  72.3232579 129.8391683 105.2764227
  72.9691443 129.3290637 105.7651452  72.1149730 130.5760365 105.8507652
  84.8485971 136.9072531 110.7756367  85.7177131 137.0813183 110.4143002
  84.3692723 137.7266947 110.6532097  80.8436190 124.1031728  91.0288123
  80.8314859 125.0473568  91.1856394  81.7359611 123.9201873  90.7347584
  79.0172151 144.0269632 102.4545801  79.9199398 144.0593242 102.7712296
  78.7909522 143.0970083 102.4692137  80.7725753 142.7800618  99.1155880
  79.8221384 142.7802480  99.0020252  81.0758240 142.0333353  98.5991914
  84.6588309 120.6974504  95.2834060  83.8920705 120.1432991  95.4290742
  85.0699014 120.7696373  96.1448211  76.6630070 126.9859300 109.3739241
  77.5261532 126.6296105 109.5842566  76.0895481 126.6473195 110.0614645
  96.5078447 148.6161156 100.1801642  97.1456857 148.4967904  99.4764982
  96.3899290 149.5642000 100.2389594  93.3168153 148.5688585 100.1163167
  92.9786665 148.4529649  99.2283702  94.1857921 148.1679750 100.0964173
  89.1754969 150.4224061  96.1060058  88.6119834 150.3313998  95.3376345
  89.0607364 149.6023965  96.5862550  86.7219401 151.9175253  98.9444278
  87.5140693 151.5766077  98.5290577  86.9616051 152.0270228  99.8646431
  94.7554528 154.0895029  91.4174523  94.1042507 154.6749109  91.0308536
  95.5498890 154.6201224  91.4769560  88.6810155 151.1784166  91.8161657
  89.4541031 150.6313153  91.6774533  89.0335554 152.0428415  92.0276118
  91.4451404 149.8837397 101.6129916  92.0414976 149.6593419 100.8986879
  91.5026376 149.1422142 102.2155364  91.0176433 147.3376832  89.4480107
  91.2701953 146.8158353  88.6863570  90.0800992 147.1742977  89.5506790
  96.0619715 146.3412610  97.2554850  96.8482805 145.9232034  96.9045267
  96.3258420 147.2458703  97.4236498  96.2329793 151.7785461  91.9543507
  95.5975626 151.8520087  92.6664412  95.9027199 152.3679059  91.2762586
 101.4628143 146.2787844  98.1587829 102.1953315 145.7087060  98.3925658
 100.7067498 145.8909444  98.5994334  90.7372721 149.2404938  91.6504482
  90.6208979 148.5649841  92.3185566  90.8474981 148.7537312  90.8336635
  93.0804262 148.7015085  95.3551171  92.7162470 148.1745706  96.0664093
  93.9371378 148.3113554  95.1817656  98.9853563 139.9909418 102.6182437
  98.6536888 140.8604829 102.3943652  98.3899176 139.6745702 103.2976468
  92.7209749 143.7304985  90.3512520  92.8884152 144.5985221  90.7182991
  92.5306918 143.8932266  89.4273809  95.4785082 152.1921964 102.0178350
  95.1785806 153.0947002 101.9094157  95.1336142 151.9254147 102.8699503
  88.9297564 148.6435760  98.0515054  88.0048060 148.5111975  98.2592746
  89.1781977 149.4229980  98.5484997  98.8782226 144.7104504  99.6975787
  97.9699104 144.6419912  99.4034548  98.8269822 145.1876449 100.5257613
  92.6998970 146.1862642  91.3359186  92.5798595 146.6319693  92.1744667
  92.0051559 146.5347960  90.7772725  86.2906375 148.2869034  98.8858843
  86.4198756 148.5403513  99.7998255  85.6103826 148.8796742  98.5663498
 100.7443873 142.9120942 101.4753661 100.1018253 143.2053475 100.8293456
 100.2398801 142.7973863 102.2806858  98.3984036 146.6584115  92.1639520
  99.3101892 146.8911502  91.9887218  97.8893683 147.2421160  91.6014599
  91.2069464 148.9379603 107.2028652  91.9484149 149.4764647 106.9263475
  90.5006450 149.5645892 107.3600203  93.0355874 146.0181350 103.1734370
  93.8817069 146.4420764 103.3169019  92.9754512 145.3614974 103.8672933
  97.0053619 151.6409934  99.5553102  96.3762481 151.8055648  98.8529170
  96.6179281 152.0551543 100.3264066  96.1855319 143.6785718 104.8315544
  95.9416251 144.4327779 104.2949819  96.4615250 144.0571066 105.6662791
  98.1393782 150.2224331 103.5092809  98.3510677 150.8656091 102.8327190
  98.0923530 149.3886647 103.0414739  95.7420011 142.8342151 100.4129381
  94.8804490 143.1323405 100.7046119  95.7682446 143.0512550  99.4810414
  92.5581580 151.3784342  96.8203187  93.0219926 151.6572045  96.0307809
  92.2938379 150.4767787  96.6376278  89.4505662 150.9255823  99.7582950
  90.0207019 151.3543092  99.1200435  90.0413773 150.6438408 100.4567136
  91.4950467 147.5007494  93.6292752  92.1974510 147.9528538  94.0966678
  91.1631095 146.8591313  94.2572645  89.9430828 146.0919251 108.0043962
  89.3129489 146.7735532 108.2379358  89.8366916 145.9802333 107.0597100
  85.2375801 145.7591047  98.9309886  84.4474854 146.0148576  98.4549996
  85.7287048 146.5739385  99.0361926  87.1890546 146.1235626  95.8893362
  86.3921709 146.2354320  96.4076858  86.9616138 146.4622278  95.0234253
  83.5213503 146.0121537 101.3624876  83.7721542 146.8968547 101.6282452
  84.0573052 145.8326139 100.5899968  92.7344231 154.3148437  93.7054857
  92.5989906 155.1599973  94.1339705  93.2754044 154.5167715  92.9420791
  89.2211571 140.3940017 110.3669213  88.8278516 139.8406215 111.0416857
  90.0377711 140.7050595 110.7575730  86.1873629 151.8323875  94.2782782
  86.6998149 152.6267125  94.4288347  86.8396341 151.1350165  94.2116384
  92.1379532 141.8097896 107.9589469  92.8789245 142.4105049 107.8793932
  92.3697455 141.0675534 107.4007512  87.2820870 146.9954263 106.2367699
  87.1674385 146.0939520 106.5374798  86.4265388 147.2417960 105.8852515
  96.0836695 137.8378999 102.2353751  95.7400964 138.7280641 102.1592861
  96.4515657 137.6480656 101.3723336  84.1522545 150.1612529  95.0542353
  84.9897767 150.5709538  94.8376061  84.3300813 149.2211971  95.0242547
  96.0486977 147.8287610  90.7426186  95.5333601 148.5992215  90.9814573
  95.7764286 147.1552746  91.3659247  93.6334088 142.6737311  95.8011424
  92.7775685 142.2844161  95.6217063  94.0461040 142.7529272  94.9411210
  95.1633235 140.2083654 100.2002984  94.6598031 140.1713789  99.3870789
  95.4563842 141.1176397 100.2599641  91.4076121 140.2922384  99.2069166
  92.2729118 140.0965192  98.8475055  91.4753630 140.0632735 100.1338523
 101.0221252 150.5819965  92.6779359 100.2450694 150.2431124  92.2334521
 101.7012733 150.5872588  92.0034324  95.8373281 145.7014702  92.5685967
  95.5323416 146.0160851  93.4196110  96.7903723 145.7796122  92.6113300
  94.2819712 151.8604925  94.2178921  93.7541074 151.1257685  93.9052159
  93.7807215 152.6379602  93.9718889  99.2612559 150.0553946  99.3345967
  98.6036233 150.7453207  99.4226096 100.0652958 150.4450378  99.6779954
  89.0138440 142.5224592  96.5785533  89.5882192 142.2999773  95.8458726
  89.6009423 142.5913286  97.3314134  98.0718017 148.4098319  97.3849909
  98.5849899 149.0428310  97.8871619  98.7219241 147.8099514  97.0193269
  89.3408027 144.5529053  90.5981418  88.5045339 144.8903739  90.9190693
  89.2012797 144.4178032  89.6608555  91.3161108 139.3965841  95.3060602
  90.6625520 139.0814858  94.6817217  91.2741582 138.7741581  96.0320425
  92.4272313 149.6785136  87.2213894  91.5199374 149.4474389  87.4205043
  92.9243345 148.8822755  87.4087876  94.5498848 145.8847774  99.6308250
  93.6321410 146.1062721  99.4729938  94.9658992 145.9594085  98.7719957
  95.3333896 147.2839190  94.7610930  96.0805715 147.7960587  94.4518052
  95.6025485 146.9623242  95.6215323  93.6060546 149.7797730  91.7437884
  92.6971765 149.4956763  91.8410354  93.6355630 150.1996809  90.8841191
  98.8379814 153.3904320  95.5129052  98.3842141 152.5495230  95.5694242
  98.2073780 154.0265718  95.8503832  97.7812733 144.3196306  96.7429719
  97.0435490 143.8073692  97.0739962  98.0339507 143.8796688  95.9312996
  97.8824360 137.0972558  97.3371489  98.1883237 136.2369921  97.0497404
  98.6076965 137.6890178  97.1370482  84.1748716 147.5003245  95.7253086
  83.9773116 146.9072605  95.0004153  83.6195380 147.1955455  96.4429025
  92.1545440 147.3926351  97.8447680  92.2094050 146.4400187  97.7690156
  91.3436642 147.5485790  98.3288978  93.3036634 151.3206474  89.0825963
  92.8656064 150.6042333  88.6231600  94.0447075 151.5482589  88.5211054
  90.0937800 146.0103411  95.6038058  89.2805666 146.3097581  96.0103251
  90.5896794 145.6159100  96.3212541  95.6912012 146.4745235 104.4352952
  96.0461399 146.7016708 105.2947418  96.3384143 146.8063612 103.8130208
 101.4209749 149.5963671  95.1402281 101.2827647 149.7865267  94.2123471
 101.0645967 150.3583054  95.5970332  89.5851875 143.5821766 101.2199293
  90.2251254 143.4410525 100.5222257  88.7529405 143.2956280 100.8437895
 101.4479128 151.6640198 100.1513553 101.8815635 151.5715487 100.9996607
 102.1610709 151.6397699  99.5133569  90.3612179 152.8824197  97.3334286
  91.1552777 152.3874517  97.1316861  89.6503871 152.3542060  96.9701991
  86.6694942 147.0267278  93.4094039  85.7392530 146.9651734  93.6264001
  86.7652414 146.5043231  92.6130680  86.5880491 143.5522091  95.9972280
  86.8487309 144.4667425  95.8881441  87.4097664 143.0846534  96.1468893
  88.0605417 144.9659849 103.1671105  88.7328470 144.7577211 102.5183754
  87.2335203 144.7681934 102.7276337  93.9630989 141.5921789 105.1836766
  93.3158904 142.2911739 105.0901242  94.7332004 142.0257933 105.5513014
  94.1395123 149.4302554 103.2433585  95.0687183 149.5813714 103.0702553
  93.7186153 149.5186575 102.3882232  92.9383455 153.4553219 101.0132123
  92.7994540 153.0872003 101.8858061  92.1498051 153.9700858 100.8416081
  94.4888670 152.8334821  98.4020961  94.1538502 152.7935591  99.2978611
  93.9892616 152.1679537  97.9291371  88.4632914 148.2402451 103.9273542
  88.3252712 147.5082690 104.5285081  89.3737837 148.1511352 103.6457730
  97.4247862 150.1790856  88.6758020  96.8077032 149.4537684  88.5791073
  96.9564350 150.9400216  88.3325095  91.0915214 147.9522411 103.4157222
  91.8014833 147.3115603 103.3743840  91.0484523 148.2035306 104.3383402
  89.8044148 144.9387629 105.2352861  89.2681505 144.4878367 105.8874457
  89.2160857 145.0733538 104.4923325  89.2146407 144.3976280  87.7979325
  88.3375874 144.2765081  87.4341571  89.6904160 143.6062358  87.5458213
  80.7348548 149.1853440  97.8920832  81.4219587 148.8715170  97.3041847
  80.5796676 150.0894804  97.6188083  85.5383270 144.0743636 102.3205856
  85.4541458 143.4669306 101.5856265  84.7165976 144.5652655 102.3215352
  95.7106984 142.5597200  97.6876051  96.2075683 141.8067162  97.3677121
  94.9393965 142.5961517  97.1219260 103.5636741 148.2637565  99.3294342
 103.5526617 149.1462281  98.9588275 102.6954120 147.9109116  99.1348879
  96.7936764 151.3168887  95.2614474  95.8593043 151.4370350  95.0919178
  96.9713433 150.4141354  94.9974484  92.2941952 144.7014583  97.4147735
  91.9239740 144.1485623  98.1028641  92.7901045 144.0972716  96.8622735
 100.1809316 147.1586206  95.7964508 100.6469768 147.9914198  95.7224811
 100.6316816 146.6931188  96.5009767  98.2485547 153.5030028  92.7950660
  98.5245391 153.3886622  93.7044534  97.3790045 153.1047513  92.7562833
  98.1525978 139.5266793  99.8355409  97.2389058 139.7571020 100.0037616
  98.5819080 139.6105237 100.6869442  97.9232437 147.7156685 102.3355303
  97.2703887 147.9632593 101.6807756  98.3012817 146.9020824 102.0017781
  80.3116524 147.2654033 100.1638299  80.3500623 146.7317624 100.9575417
  79.8056817 146.7389239  99.5449276  87.6907286 142.1118574 103.6600841
  87.7548612 142.9733405 103.2478239  87.6274406 141.4992575 102.9273200
  87.1659559 144.1841706 107.3073875  87.7931597 143.8018784 107.9211400
  86.3087477 143.9655908 107.6729568  83.9425101 145.9918135  93.2392230
  84.2378542 145.0828814  93.1859284  83.0413137 145.9705875  92.9173233
  87.4719348 144.0674132  99.2219779  86.7505934 144.6810100  99.0827252
  88.2612604 144.6031897  99.1436425  90.2745662 141.4028558 105.4960431
  90.7980064 141.6490855 106.2586740  90.0557995 142.2348593 105.0763568
  85.6712943 143.6732233  93.3631555  85.3425649 142.7929612  93.1806661
  86.0252314 143.6179902  94.2507945  94.9192522 155.3087136  97.8726541
  94.7717484 154.3803843  98.0534111  95.7446015 155.3307226  97.3883616
  88.7854766 143.9605203  93.7307033  89.1250839 144.4891124  93.0085642
  89.2326886 144.2985609  94.5065600  91.4798207 142.3442254 103.1810101
  91.1395027 141.5450067 103.5830781  90.7737213 142.6443964 102.6086934
  92.1314679 139.4291566 101.6337424  92.9540748 138.9552044 101.5116315
  92.3752742 140.2082050 102.1336111  90.7722913 142.4579824  91.9300326
  91.4931276 142.8361077  91.4264043  90.1488217 143.1768701  92.0335304
  94.9154036 143.1624973  92.8658658  95.1317650 144.0449611  92.5647486
  94.4348103 142.7711187  92.1364300  89.6553257 146.1210687  99.4429403
  89.5097838 146.4350990 100.3353684  89.1778461 146.7395587  98.8900301
  91.5149640 143.1113235  99.4910292  91.5011209 142.2154328  99.1542590
  92.2322068 143.1183898 100.1248578  93.3675771 143.5450575 101.5363420
  93.1093549 144.4667645 101.5347750  92.8360811 143.1481009 102.2263884
  84.1298920 148.6616031 102.3817064  83.5852388 149.4375839 102.5137338
  85.0078269 149.0086835 102.2236185  90.9186536 141.9927615  94.7597863
  91.0402447 141.0644261  94.9588750  90.6288579 142.0066301  93.8476178
  93.7877727 139.6782525  97.8964582  93.8099423 139.7421858  96.9416562
  94.2045786 138.8387034  98.0905089 104.1661351 149.4137785  95.9343805
 104.6092497 148.6645110  95.5362928 103.2887861 149.4047921  95.5517537
  84.9164941 147.7885927 105.2747221  84.1746677 147.9368563 105.8611851
  84.5957686 148.0494193 104.4113970  90.4027616 143.5059612 108.9687795
  90.4515771 144.3821735 108.5865565  90.9450130 142.9637005 108.3959438
  89.8916595 153.5781748  92.8513750  90.0404716 154.2617212  92.1980422
  90.6983039 153.5586838  93.3663205  92.6326904 144.2590985 105.7234154
  91.7630214 144.5524551 105.4516742  92.8686385 144.8431430 106.4441417
  87.6469228 149.6046925  93.8574819  87.4015270 148.7009255  94.0555029
  87.8165143 149.6064076  92.9154297  95.3365938 140.4770602 103.2399574
  95.8547882 141.2131628 102.9146063  94.9821071 140.7834595 104.0746333
  86.9164876 145.3375283  91.3560980  86.2234121 145.4119638  90.7001016
  86.6716628 144.5735626  91.8782497  95.5878532 136.8970884  98.7600471
  95.8680286 136.2294073  99.3860897  96.3729139 137.0899980  98.2475135
  99.4587391 145.3188518 102.5072046 100.4104813 145.4186616 102.5284270
  99.2890841 144.5266787 103.0170130  97.4801770 142.4044101 102.6931447
  96.8851702 142.6849114 101.9977935  97.1951467 142.8938002 103.4648188
 101.9375468 148.5394638 101.6214346 101.9051788 147.6010638 101.8074029
 102.5476092 148.6178674 100.8880170  93.7758799 147.4090691  87.6641550
  94.7217904 147.2796899  87.7329968  93.3973044 146.6705353  88.1410978
 102.0869957 145.3305681 101.6672629 101.5709005 144.5464138 101.4802558
 102.9709905 145.0024398 101.8319148  99.7480684 139.0746697  97.6268441
  99.5505505 138.7661785  98.5111773 100.3580389 139.8008336  97.7566371
 105.8367315 147.7418507 101.3594834 105.1100479 147.6074472 100.7511325
 105.4214602 148.0495336 102.1651552  91.9601716 145.3340667  87.5996435
  91.0533172 145.0373780  87.6759148  92.2377697 145.0370485  86.7330721
  82.8779657 146.6547031  98.0495481  82.5582441 145.8012339  97.7569855
  82.3313085 146.8695609  98.8053449  86.6559564 149.3709472 101.7664988
  86.8745574 150.3026579 101.7853022  87.0685338 149.0117446 102.5519792
  93.5763782 139.8777557  93.7540676  92.7664510 139.5324642  94.1295922
  94.2648199 139.5685101  94.3428288  95.5054330 138.9555604  95.3764973
  96.0585369 139.3751057  96.0354996  95.7424417 138.0291352  95.4187929
  90.7300501 142.1927602  87.7408414  91.5919665 142.5182501  88.0004231
  90.9150845 141.4059098  87.2281480  82.7467917 150.2749942 100.0188603
  82.0531388 149.8603895  99.5058557  83.4940908 150.3170479  99.4222022
  98.8833137 141.0656129  94.8843637  98.3031807 141.7240933  94.5021689
  98.6169070 140.2433473  94.4731054  97.3336704 140.4661187  97.0864957
  97.8336482 140.5777721  96.2779276  97.9772312 140.1622239  97.7265766
  84.6604659 150.2068196  97.8954618  84.6375347 150.3055883  96.9436501
  84.9705296 151.0533347  98.2171784  87.3192037 152.2644351 102.0101232
  88.2735291 152.2328293 101.9431164  87.1204561 151.8034975 102.8251458
  87.9091419 150.8345467 104.5772030  88.7284308 151.3289546 104.6006867
  88.1828227 149.9177435 104.5489597  97.6658015 143.2256219  93.9399985
  96.7783871 143.5105870  93.7220180  98.0812005 143.0649983  93.0927262
 101.0172552 143.2502740  97.6554324 101.7932942 143.7399193  97.9278941
 100.2920686 143.6760794  98.1126194 103.4545110 143.9630359  98.7128265
 104.0489601 143.7226095  98.0021573 103.5271694 143.2437490  99.3401801
  96.8101229 152.9900894  88.0348005  97.5137079 153.1950896  88.6505661
  96.0863878 153.5577656  88.2997089  97.6399039 148.7410755  94.1550275
  97.5834241 149.1979307  93.3157908  98.1927382 147.9801440  93.9773118
 101.4503845 144.5300487  94.9800395 101.1940779 144.1297123  95.8108603
 100.8256713 145.2444281  94.8550534 105.7616183 147.2696560  97.4871686
 105.2015741 147.3389750  98.2603248 105.1559686 147.0937545  96.7671183
  98.7187926 153.4283423  90.0846465  99.5533530 152.9964622  89.9023940
  98.5572269 153.2565437  91.0123360  98.3733819 149.9315536  91.4502805
  98.3182622 149.7659808  90.5091249  97.7479874 150.6391569  91.6064994
  83.1626334 145.1683601 105.2764227  83.8085197 144.6582555 105.7651452
  82.9543485 145.9052282 105.8507652  91.6829944 139.4323645  91.0288123
  91.6708614 140.3765485  91.1856394  92.5753366 139.2493791  90.7347584
  95.4982063 136.0266422  95.2834060  94.7314459 135.4724909  95.4290742
  95.9092768 136.0988291  96.1448211  87.5023825 142.3151218 109.3739241
  88.3655286 141.9588023 109.5842566  86.9289235 141.9765113 110.0614645
  20.6322167  18.3179855  86.9046949  21.2700577  18.1986603  86.2010289
  20.5143010  19.2660699  86.9634901  17.4411873  18.2707283  86.8408473
  17.1030385  18.1548348  85.9529008  18.3101641  17.8698449  86.8209480
  13.2998689  20.1242760  82.8305364  12.7363554  20.0332697  82.0621652
  13.1851084  19.3042664  83.3107857  17.9231656  19.4242135  92.7994679
  17.9120297  19.0294933  91.9275183  18.0852296  18.6908208  93.3928450
  10.8463121  21.6193951  85.6689585  11.6384413  21.2784776  85.2535884
  11.0859771  21.7288927  86.5891738  18.8798247  23.7913728  78.1419829
  18.2286227  24.3767808  77.7553843  19.6742610  24.3219922  78.2014867
  12.8053875  20.8802865  78.5406964  13.5784751  20.3331852  78.4019839
  13.1579274  21.7447114  78.7521425  14.6438917  22.2079247  91.7473863
  14.3528783  23.1124878  91.6320529  15.2795902  22.2495775  92.4617932
  15.5695124  19.5856096  88.3375223  16.1658696  19.3612118  87.6232185
  15.6270096  18.8440841  88.9400670  15.1420152  17.0395531  76.1725413
  15.3945673  16.5177052  75.4108876  14.2044712  16.8761676  76.2752097
  20.1863435  16.0431309  83.9800157  20.9726525  15.6250732  83.6290574
  20.4502140  16.9477401  84.1481805  20.3573513  21.4804160  78.6788814
  19.7219346  21.5538786  79.3909718  20.0270919  22.0697758  78.0007893
  25.5871862  15.9806542  84.8833135  26.3197034  15.4105759  85.1170965
  24.8311218  15.5928143  85.3239641  14.8616441  18.9423637  78.3749788
  14.7452699  18.2668540  79.0430873  14.9718701  18.4556011  77.5581941
  17.2047982  18.4033784  82.0796478  16.8406189  17.8764405  82.7909399
  18.0615098  18.0132253  81.9062963  23.1097283   9.6928117  89.3427744
  22.7780608  10.5623527  89.1188959  22.5142896   9.3764401  90.0221774
  16.8453469  13.4323684  77.0757826  17.0127871  14.3003920  77.4428297
  16.6550638  13.5950965  76.1519115  19.6028802  21.8940662  88.7423657
  19.3029525  22.7965701  88.6339464  19.2579862  21.6272846  89.5944809
  13.0541284  18.3454459  84.7760361  12.1291780  18.2130673  84.9838053
  13.3025697  19.1248679  85.2730303  23.0025946  14.4123203  86.4221094
  22.0942823  14.3438611  86.1279855  22.9513542  14.8895148  87.2502919
  16.8242690  15.8881341  78.0604493  16.7042315  16.3338392  78.8989973
  16.1295278  16.2366659  77.5018031  10.4150095  17.9887733  85.6104150
  10.5442476  18.2422212  86.5243562   9.7347546  18.5815441  85.2908805
  14.5849582  28.6584983  81.7094624  14.5073612  29.6092808  81.7883105
  13.9811226  28.3130855  82.3669551  17.0766812  15.8312848  94.3655991
  16.3000146  16.3906768  94.3558856  17.7157375  16.3169631  94.8870861
  24.8687592  12.6139641  88.1998968  24.2261973  12.9072174  87.5538762
  24.3642521  12.4992561  89.0052164  22.5227756  16.3602814  78.8884827
  23.4345612  16.5930201  78.7132525  22.0137403  16.9439858  78.3259906
  15.3313184  18.6398302  93.9273958  16.0727869  19.1783346  93.6508782
  14.6250170  19.2664590  94.0845510  20.8068524  20.7827442  92.5246120
  21.2151880  20.3409853  91.7800752  20.0845785  20.2080070  92.7780313
  17.1599594  15.7200049  89.8979677  18.0060789  16.1439462  90.0414326
  17.0998232  15.0633673  90.5918240  21.1297338  21.3428633  86.2798409
  20.5006201  21.5074347  85.5774476  20.7423001  21.7570242  87.0509373
  25.0086570  22.2783071  83.6342772  24.3237608  22.6581972  83.0839806
  25.0930420  22.8878397  84.3674720  20.3099039  13.3804417  91.5560850
  20.0659971  14.1346478  91.0195126  20.5858970  13.7589765  92.3908097
  22.2637502  19.9243030  90.2338116  22.4754397  20.5674789  89.5572497
  22.2167250  19.0905346  89.7660046  19.8663731  12.5360850  87.1374688
  19.0048210  12.8342104  87.4291426  19.8926166  12.7531249  86.2055721
  16.6825300  21.0803041  83.5448494  17.1463646  21.3590744  82.7553116
  16.4182098  20.1786485  83.3621584  13.5749381  20.6274522  86.4828257
  14.1450738  21.0561791  85.8445741  14.1657493  20.3457107  87.1812443
  15.6194186  17.2026193  80.3538059  16.3218230  17.6547237  80.8211985
  15.2874815  16.5610012  80.9817952  14.0674548  15.7937950  94.7289268
  13.4373208  16.4754231  94.9624665  13.9610636  15.6821031  93.7842406
   9.3619520  15.4609746  85.6555192   8.5718574  15.7167274  85.1795303
   9.8530768  16.2758084  85.7607233  23.3783330  22.8014985  88.4060473
  24.2000774  22.3995172  88.1243155  23.3745733  22.6983219  89.3576589
  11.3134266  15.8254325  82.6138669  10.5165429  15.9373019  83.1322165
  11.0859858  16.1640977  81.7479560  17.1439933  22.3499028  90.5621184
  17.2084366  22.8119436  91.3979356  16.4350857  21.7196393  90.6903494
  31.4689323  19.1453733  84.7545445  30.7153031  18.5761132  84.5989449
  31.6036864  19.1116398  85.7016079  16.8587951  24.0167136  80.4300164
  16.7233626  24.8618672  80.8585012  17.3997763  24.2186413  79.6666098
  10.3117348  21.5342574  81.0028089  10.8241869  22.3285824  81.1533654
  10.9640061  20.8368864  80.9361691  12.1212233  24.6508330  83.0850842
  12.2978861  25.5726295  82.8971826  12.9169067  24.3366749  83.5145222
  16.2623252  11.5116595  94.6834776  17.0032965  12.1123748  94.6039238
  16.4941174  10.7694233  94.1252818  11.4064590  16.6972962  92.9613005
  11.2918105  15.7958219  93.2620104  10.5509107  16.9436659  92.6097822
  18.4856427  24.6390702  94.5600506  18.0420282  23.8527081  94.2421411
  19.1473641  24.8269853  93.8944397  13.2443549  26.1686504  89.0861185
  13.7950974  26.0403567  88.3138179  12.4055024  26.4681393  88.7356077
  20.5837665  24.9193502  92.5881907  20.5656141  25.7402383  92.0962177
  21.5057585  24.7947577  92.8132049  17.0410720  22.4337632  93.4305416
  17.5739056  21.6725920  93.2004724  16.5124801  22.1411284  94.1729570
  20.2080415   7.5397698  88.9599057  19.8644684   8.4299339  88.8838168
  20.5759377   7.3499355  88.0968642   8.2766265  19.8631228  81.7787660
   9.1141487  20.2728237  81.5621367   8.4544533  18.9230670  81.7487853
  20.1730697  17.5306309  77.4671493  19.6577321  18.3010913  77.7059880
  19.9008006  16.8571445  78.0904554  17.7577808  12.3756010  82.5256731
  16.9019405  11.9862860  82.3462370  18.1704760  12.4547970  81.6656516
  19.2876955   9.9102353  86.9248291  18.7841751   9.8732488  86.1116096
  19.5807562  10.8195096  86.9844947  25.1464971  20.2838663  79.4024666
  24.3694414  19.9449823  78.9579828  25.8256452  20.2891287  78.7279631
  19.9617000  15.4033401  79.2931274  19.6567136  15.7179550  80.1441417
  20.9147443  15.4814821  79.3358607  18.4063432  21.5623624  80.9424228
  17.8784794  20.8276384  80.6297465  17.9050935  22.3398301  80.6964196
  23.3856278  19.7572645  86.0591274  22.7279953  20.4471906  86.1471403
  24.1896678  20.1469077  86.4025260  22.1961737  18.1117017  84.1095216
  22.7093619  18.7447009  84.6116926  22.8462961  17.5118213  83.7438576
  13.4651747  14.2547752  77.3226725  12.6289059  14.5922438  77.6435999
  13.3256517  14.1196731  76.3853861  16.5516032  19.3803834  73.9459201
  15.6443094  19.1493088  74.1450350  17.0487064  18.5841454  74.1333182
  19.4584111  28.0901342  76.8655887  18.7845810  28.3933038  77.4740845
  19.8449933  28.8930422  76.5161344  18.6742568  15.5866473  86.3553556
  17.7565129  15.8081420  86.1975244  19.0902712  15.6612783  85.4965264
  19.4577616  16.9857889  81.4856237  20.2049435  17.4979286  81.1763359
  19.7269205  16.6641941  82.3460630  17.7304266  19.4816429  78.4683191
  16.8215485  19.1975462  78.5655661  17.7599350  19.9015508  77.6086498
  22.9623533  23.0923019  82.2374358  22.5085860  22.2513929  82.2939549
  22.3317500  23.7284417  82.5749139  21.9056453  14.0215005  83.4675026
  21.1679210  13.5092391  83.7985268  22.1583226  13.5815386  82.6558303
  21.4056473  24.9299516  83.1724177  21.6979447  25.4904573  82.4536542
  21.9155093  25.2228077  83.9277336  22.0068080   6.7991257  84.0616795
  22.3126957   5.9388620  83.7742710  22.7320685   7.3908877  83.8615789
   8.2992436  17.2021943  82.4498393   8.1016836  16.6091304  81.7249460
   7.7439100  16.8974154  83.1674332  16.2789160  17.0945050  84.5692986
  16.3337770  16.1418886  84.4935463  15.4680362  17.2504489  85.0534285
  17.4280354  21.0225173  75.8071269  16.9899784  20.3061032  75.3476907
  18.1690795  21.2501288  75.2456361  14.2181520  15.7122110  82.3283365
  13.4049385  16.0116280  82.7348557  14.7140514  15.3177798  83.0457847
  16.3690098  25.7079867  84.2617630  16.3266277  25.9340713  83.3326162
  17.2852797  25.4743241  84.4103431  19.8155732  16.1763934  91.1598259
  20.1705119  16.4035407  92.0192725  20.4627863  16.5082311  90.5375514
  25.5453469  19.2982370  81.8647588  25.4071367  19.4883966  80.9368777
  25.1889687  20.0601753  82.3215639  13.7095595  13.2840465  87.9444600
  14.3494974  13.1429224  87.2467563  12.8773125  12.9974979  87.5683202
  25.5722848  21.3658897  86.8758860  26.0059355  21.2734186  87.7241914
  26.2854429  21.3416398  86.2378876  14.4855899  22.5842896  84.0579592
  15.2796497  22.0893216  83.8562167  13.7747591  22.0560759  83.6947298
  19.3050743  24.9660991  88.4091960  19.3587765  25.5351927  89.1769676
  18.4365524  25.1362876  88.0445997  10.7938662  16.7285977  80.1339345
   9.8636250  16.6670433  80.3509307  10.8896134  16.2061930  79.3375986
  12.1849136  14.6678547  89.8916411  12.8572190  14.4595909  89.2429060
  11.3578923  14.4700633  89.4521644  26.4338398  21.4082598  89.4091745
  26.6274288  22.3128408  89.6551020  26.3339016  20.9490017  90.2430330
  18.0874708  11.2940488  91.9082072  17.4402623  11.9930438  91.8146549
  18.8575724  11.7276632  92.2758320  21.4953506  21.5589340  94.9832626
  21.3439013  21.3299892  94.0662709  21.4858186  22.5159942  94.9963971
  18.2638843  19.1321253  89.9678892  19.1930903  19.2832413  89.7947859
  17.8429873  19.2205274  89.1127538  17.0627175  23.1571918  87.7377430
  16.9238260  22.7890702  88.6103368  16.2741771  23.6719557  87.5661387
  17.6575327  28.2581014  79.0802966  17.8327082  27.7869057  79.8948589
  16.9708115  28.8846780  79.3084227  18.6132390  22.5353520  85.1266267
  18.2782222  22.4954290  86.0223917  18.1136335  21.8698236  84.6536678
  12.5876634  17.9421150  90.6518849  12.4496432  17.2101389  91.2530388
  13.4981557  17.8530050  90.3703036  21.5491581  19.8809555  75.4003327
  20.9320752  19.1556383  75.3036380  21.0808070  20.6418915  75.0570401
  15.2158934  17.6541110  90.1402528  15.9258553  17.0134302  90.0989147
  15.1728242  17.9054005  91.0628709  23.2045713  24.5908463  93.0609107
  23.1458259  23.9067683  92.3939690  23.6065231  25.3327453  92.6089733
  13.9287868  14.6406328  91.9598168  13.3925225  14.1897066  92.6119764
  13.3404577  14.7752236  91.2168632  12.2236412  31.4070377  85.8542826
  12.4633010  32.0388901  86.5321845  11.3805608  31.0558417  86.1408186
  13.3390127  14.0994979  74.5224631  12.4619594  13.9783780  74.1586878
  13.8147880  13.3081057  74.2703520  23.2063120  22.5548047  91.2923087
  22.3189899  22.2173969  91.4149486  23.7761671  21.8231078  91.5291852
   4.8592267  18.8872139  84.6166138   5.5463307  18.5733869  84.0287154
   4.7040396  19.7913503  84.3433390  16.7364274  27.2149499  88.2584330
  16.6634445  28.0204471  88.7703635  16.2941667  27.4141465  87.4332352
  16.5254053  26.4521269  81.7687152  15.7421575  26.9942950  81.8625376
  17.2246798  26.9695249  82.1681393  19.8350703  12.2615899  84.4121357
  20.3319403  11.5085861  84.0922427  19.0637685  12.2980215  83.8464567
  27.6880461  17.9656264  86.0539649  27.6770337  18.8480980  85.6833582
  26.8197840  17.6127815  85.8594186  19.1962957  27.1136333  90.4142489
  19.9090929  27.7483798  90.3418390  18.7052986  27.2100199  89.5982491
  20.9180484  21.0187586  81.9859781  19.9836763  21.1389048  81.8164485
  21.0957153  20.1160053  81.7219790  16.4185672  14.4033282  84.1393042
  16.0483460  13.8504322  84.8273947  16.9144765  13.7991415  83.5868042
  24.3053035  16.8604905  82.5209815  24.7713488  17.6932897  82.4470117
  24.7560536  16.3949887  83.2255073  14.2474871  24.8630777  91.2348060
  14.9484330  25.4967260  91.3877454  13.7769986  25.2045508  90.4743699
  22.3729267  23.2048727  79.5195967  22.6489110  23.0905321  80.4289841
  21.5033765  22.8066211  79.4808140  22.2769698   9.2285492  86.5600716
  21.3632778   9.4589719  86.7282923  22.7062800   9.3123936  87.4114748
  22.0476157  17.4175384  89.0600610  21.3947607  17.6651292  88.4053063
  22.4256537  16.6039522  88.7263087  19.0083331  27.4535077  83.1628780
  19.1905725  26.6356733  83.6256533  19.8316317  27.6702770  82.7253670
  19.3425496  26.3803263  80.4243829  19.8713262  25.8695717  79.8113991
  19.6053716  26.0645793  81.2889362  18.0963730  18.1595195  95.5466647
  17.4204367  18.0589325  96.2169022  18.9191364  18.0034409  96.0102644
   9.8442589  24.3967132  88.1679162  10.4296026  23.6510820  88.3007067
   9.6467427  24.7071089  89.0515826  12.6981244  27.4318379  83.1841605
  12.0291619  27.9164507  82.7005645  12.5594114  27.6787600  84.0984983
  16.8386513  29.4662123  89.7824263  17.3904821  29.6293744  90.5473348
  17.1792706  30.0566561  89.1104288  21.6897387  24.2923380  95.6372918
  22.2337291  24.9053339  95.1427872  21.1084232  24.8502959  96.1539931
  19.9754900  27.4144098  86.7687945  19.8506039  26.6133838  86.2598891
  20.6333991  27.9090292  86.2801915  11.5963068  13.7692831  85.9465086
  10.8749654  14.3828798  85.8072559  12.3856324  14.3050596  85.8681731
  22.0389808  25.2153118  88.3967495  21.0920144  25.0958470  88.3245822
  22.3872581  24.3275616  88.4793757  19.0436242  25.0105835  84.5971848
  18.8961204  24.0822542  84.7779418  19.8689735  25.0325925  84.1128923
  12.9098486  13.6623902  80.4552340  13.2494558  14.1909823  79.7330948
  13.3570606  14.0004308  81.2310906  22.6470363  25.8334393  85.6836720
  23.5716911  25.6277255  85.5461172  22.4785667  25.5850794  86.5926062
  15.6041927  12.0460952  89.9055408  15.2638747  11.2468765  90.3076088
  14.8980933  12.3462663  89.3332241  14.8966633  12.1598523  78.6545633
  15.6174995  12.5379776  78.1509349  14.2731937  12.8787400  78.7580610
  19.0397756  12.8643672  79.5903965  19.2561370  13.7468310  79.2892793
  18.5591823  12.4729886  78.8609607  13.7796977  15.8229385  86.1674709
  13.6341558  16.1369689  87.0598991  13.3022181  16.4414286  85.6145608
  15.6393360  12.8131933  86.2155599  15.6254929  11.9173027  85.8787897
  16.3565788  12.8202597  86.8493885  17.4919491  13.2469274  88.2608726
  17.2337269  14.1686344  88.2593057  16.9604531  12.8499708  88.9509191
  22.4365680  26.3520061  81.0398812  22.6102557  25.7866483  80.2872664
  22.9294571  27.1520956  80.8578302   8.2542639  18.3634730  89.1062371
   7.7096107  19.1394538  89.2382645   9.1321989  18.7105534  88.9481492
  28.2905071  19.1156484  82.6589112  28.7336217  18.3663809  82.2608235
  27.4131581  19.1066620  82.2762844  23.4240852  25.6686825  78.1395710
  24.1191757  26.2893518  78.3583025  23.7664002  24.8182176  78.4148088
   9.0408661  17.4904626  91.9992528   8.2990397  17.6387261  92.5857158
   8.7201406  17.7512892  91.1359277  25.3232275  23.1186531  79.6683041
  25.8483599  23.4573803  78.9432361  25.2354628  22.1833546  79.4846176
  16.9852324  27.0320604  91.7972918  17.2939450  26.7869751  92.6695617
  17.7827806  27.2367243  91.3091788  17.0072936  29.1858514  84.0278294
  16.5677926  28.6934893  84.7211151  17.7581053  28.6431482  83.7870369
   9.4865275  25.3770055  84.0302922  10.3123295  25.0773827  83.6501566
   9.1359327  24.6077677  84.4792711  14.4546808  24.7296523  86.1000596
  13.8326817  24.0667228  85.8002824  15.1251675  24.7557655  85.4174244
   7.6873880  23.2956381  84.9891856   6.8505788  22.8678556  84.8075857
   7.6597525  23.4888825  85.9262647  14.5271336  13.2078311  95.6933102
  14.5759491  14.0840434  95.3110871  15.0693850  12.6655704  95.1204745
  25.0126181  23.7519434  94.9734239  24.2221725  23.7343573  94.4338738
  24.7759536  24.2907728  95.7283275  25.1324056  20.6011901  92.2866967
  25.1822061  20.4361908  93.2282490  25.0237980  19.7339160  91.8964848
  14.0160315  23.2800446  79.5759056  14.1648435  23.9635911  78.9225729
  14.8226758  23.2605536  80.0908512  22.4227819  16.5842829  93.6026274
  23.3237681  16.4449294  93.3110272  22.4975793  16.7497284  94.5424452
  16.7570624  13.9609683  92.4479460  15.8873933  14.2543250  92.1762049
  16.9930104  14.5450128  93.1686724  26.6342253  23.0208842  92.5308989
  26.3427061  23.3838823  93.3672450  26.0214384  22.3075850  92.3522321
  27.8337935  20.5861722  85.0511559  28.6684827  21.0251526  85.2149120
  27.9697064  20.1100375  84.2319805  24.8829441  18.1441457  90.9989047
  25.3583563  18.3369103  90.1907898  23.9595007  18.2000643  90.7532431
  11.7712948  19.3065624  80.5820125  11.5258990  18.4027954  80.7800335
  11.9408863  19.3082774  79.6399603  19.4609658  10.1789300  89.9644881
  19.9791602  10.9150327  89.6391369  19.1064791  10.4853294  90.7991640
  11.0408596  15.0393982  78.0806287  10.3477840  15.1138337  77.4246323
  10.7960347  14.2754325  78.6027804  17.5155721  25.7748577  77.0470804
  16.9429688  26.3938764  76.5941276  18.0888514  26.3247939  77.5810726
  23.5831110  15.0207217  89.2317353  24.5348533  15.1205315  89.2529577
  23.4134561  14.2285485  89.7415437  21.6045490  12.1062800  89.4176753
  21.0095422  12.3867813  88.7223242  21.3195187  12.5956701  90.1893495
  20.7352980  26.0585727  78.1779386  21.6683653  25.9931289  78.3812262
  20.6476193  26.8941994  77.7193919  23.3640997  25.3751597  75.1383334
  23.2854629  25.0411461  76.0319091  24.1850664  25.8673365  75.1374806
  26.0619188  18.2413337  88.3459652  26.0295508  17.3029337  88.5319336
  26.6719812  18.3197373  87.6125477  17.9002519  17.1109390  74.3886856
  18.8461624  16.9815598  74.4575274  17.5216764  16.3724051  74.8656284
  26.2113677  15.0324380  88.3917935  25.6952725  14.2482837  88.2047864
  27.0953625  14.7043097  88.5564455  23.8724404   8.7765396  84.3513748
  23.6749225   8.4680484  85.2357080  24.4824109   9.5027035  84.4811678
  31.8795738  19.3029343  87.4865689  32.6099127  19.0414632  88.0473392
  31.2702684  18.5658065  87.5267757  29.9611035  17.4437206  88.0840140
  29.2344199  17.3093171  87.4756632  29.5458322  17.7514035  88.8896858
  17.7841212  21.1627136  95.8487513  18.7044221  21.3405735  96.0427560
  17.7490795  20.2183181  95.6967212  16.0845436  15.0359366  74.3241741
  15.1776892  14.7392479  74.4004455  16.3621417  14.7389184  73.4576028
  10.7803284  19.0728170  88.4910294  10.9989294  20.0045278  88.5098328
  11.1929058  18.7136145  89.2765098  19.6298050   8.6574303  82.1010279
  20.1829089   9.0769756  82.7600302  19.8668137   7.7310051  82.1433235
  15.6531149  14.6461376  97.8813043  15.5527876  15.5955733  97.8125134
  15.4352691  14.3179615  97.0089113  14.8544221  11.8946301  74.4653721
  15.7163385  12.2201200  74.7249538  15.0394565  11.1077797  73.9526786
   6.8711637  19.9768641  86.7433909   6.1775108  19.5622594  86.2303864
   7.6184628  20.0189177  86.1467328  23.0076857  10.7674828  81.6088944
  22.4275526  11.4259632  81.2266996  22.7412790   9.9452172  81.1976361
  21.4580424  10.1679885  83.8110264  21.9580202  10.2796420  83.0024583
  22.1016032   9.8640938  84.4511072  15.5162419  18.0758515  96.6978105
  15.0329501  18.8758875  96.9041994  15.6023359  18.0866460  95.7445549
   8.7848379  19.9086895  84.6199924   8.7619067  20.0074582  83.6681807
   9.0949016  20.7552045  84.9417090  11.4435757  21.9663050  88.7346539
  12.3979011  21.9346992  88.6676470  11.2448281  21.5053673  89.5496765
  12.0335139  20.5364166  91.3017336  12.8528028  21.0308244  91.3252174
  12.3071947  19.6196134  91.2734904  21.7901735  12.9274918  80.6645292
  20.9027590  13.2124569  80.4465487  22.2055724  12.7668681  79.8172569
  25.1416271  12.9521439  84.3799631  25.9176662  13.4417891  84.6524248
  24.4164406  13.3779493  84.8371501  27.5788830  13.6649058  85.4373572
  28.1733321  13.4244794  84.7266880  27.6515414  12.9456189  86.0647108
   9.7985986  27.5082669  85.7516737   9.6640454  26.7483070  85.1854735
   9.3818048  28.2323569  85.2845525  20.9344949  22.6919593  74.7593312
  21.6380799  22.8969595  75.3750967  20.2107598  23.2596355  75.0242395
  21.7642759  18.4429454  80.8795582  21.7077960  18.8998005  80.0403214
  22.3171102  17.6820139  80.7018425  25.5747565  14.2319186  81.7045702
  25.3184499  13.8315822  82.5353909  24.9500433  14.9462980  81.5795841
  29.8859903  16.9715259  84.2116993  29.3259461  17.0408448  84.9848555
  29.2803406  16.7956244  83.4916489  12.9555112  28.4051986  85.9635179
  12.8387496  29.3497419  85.8613869  12.1347558  28.1025548  86.3520978
  22.8431646  23.1302122  76.8091772  23.6777250  22.6983320  76.6269247
  22.6815989  22.9584136  77.7368666  22.4977538  19.6334235  78.1748111
  22.4426342  19.4678507  77.2336555  21.8723594  20.3410268  78.3310301
  19.8123446  21.9383147  97.5001674  20.6814605  22.1123799  97.1388309
  19.3330197  22.7577564  97.3777403  13.9809626  29.0580248  89.1791108
  14.8836872  29.0903858  89.4957603  13.7546996  28.1280699  89.1937443
  15.7363228  27.8111235  85.8401186  14.7858859  27.8113096  85.7265559
  16.0395714  27.0643969  85.3237221  31.4715921  33.6471773  86.9046949
  32.1094331  33.5278520  86.2010289  31.3536764  34.5952617  86.9634901
  28.2805628  33.5999201  86.8408473  27.9424139  33.4840266  85.9529008
  29.1495396  33.1990366  86.8209480  24.1392443  35.4534678  82.8305364
  23.5757308  35.3624614  82.0621652  24.0244838  34.6334582  83.3107857
  28.7625411  34.7534053  92.7994679  28.7514051  34.3586851  91.9275183
  28.9246050  34.0200125  93.3928450  21.6856875  36.9485869  85.6689585
  22.4778167  36.6076694  85.2535884  21.9253525  37.0580844  86.5891738
  29.7192002  39.1205645  78.1419829  29.0679982  39.7059726  77.7553843
  30.5136365  39.6511840  78.2014867  23.6447629  36.2094782  78.5406964
  24.4178505  35.6623769  78.4019839  23.9973028  37.0739032  78.7521425
  25.4832672  37.5371165  91.7473863  25.1922538  38.4416796  91.6320529
  26.1189656  37.5787692  92.4617932  26.4088879  34.9148013  88.3375223
  27.0052451  34.6904036  87.6232185  26.4663850  34.1732759  88.9400670
  25.9813907  32.3687449  76.1725413  26.2339428  31.8468970  75.4108876
  25.0438466  32.2053594  76.2752097  31.0257190  31.3723227  83.9800157
  31.8120279  30.9542650  83.6290574  31.2895894  32.2769319  84.1481805
  31.1967267  36.8096077  78.6788814  30.5613100  36.8830704  79.3909718
  30.8664674  37.3989676  78.0007893  36.4265617  31.3098460  84.8833135
  37.1590789  30.7397677  85.1170965  35.6704973  30.9220061  85.3239641
  25.7010196  34.2715554  78.3749788  25.5846454  33.5960458  79.0430873
  25.8112456  33.7847928  77.5581941  28.0441737  33.7325702  82.0796478
  27.6799944  33.2056323  82.7909399  28.9008853  33.3424171  81.9062963
  33.9491037  25.0220034  89.3427744  33.6174362  25.8915445  89.1188959
  33.3536651  24.7056318  90.0221774  27.6847224  28.7615601  77.0757826
  27.8521626  29.6295838  77.4428297  27.4944393  28.9242883  76.1519115
  30.4422557  37.2232580  88.7423657  30.1423280  38.1257619  88.6339464
  30.0973616  36.9564763  89.5944809  23.8935038  33.6746377  84.7760361
  22.9685535  33.5422591  84.9838053  24.1419451  34.4540596  85.2730303
  33.8419701  29.7415120  86.4221094  32.9336578  29.6730529  86.1279855
  33.7907296  30.2187065  87.2502919  27.6636444  31.2173259  78.0604493
  27.5436070  31.6630310  78.8989973  26.9689033  31.5658576  77.5018031
  21.2543849  33.3179651  85.6104150  21.3836230  33.5714129  86.5243562
  20.5741301  33.9107359  85.2908805  25.4243337  43.9876901  81.7094624
  25.3467366  44.9384726  81.7883105  24.8204980  43.6422773  82.3669551
  27.9160566  31.1604766  94.3655991  27.1393900  31.7198686  94.3558856
  28.5551129  31.6461549  94.8870861  35.7081347  27.9431559  88.1998968
  35.0655727  28.2364092  87.5538762  35.2036275  27.8284479  89.0052164
  33.3621511  31.6894732  78.8884827  34.2739367  31.9222119  78.7132525
  32.8531158  32.2731776  78.3259906  26.1706939  33.9690219  93.9273958
  26.9121623  34.5075263  93.6508782  25.4643924  34.5956508  94.0845510
  31.6462278  36.1119360  92.5246120  32.0545634  35.6701770  91.7800752
  30.9239540  35.5371987  92.7780313  27.9993348  31.0491967  89.8979677
  28.8454544  31.4731380  90.0414326  27.9391986  30.3925591  90.5918240
  31.9691093  36.6720550  86.2798409  31.3399955  36.8366265  85.5774476
  31.5816755  37.0862160  87.0509373  35.8480325  37.6074988  83.6342772
  35.1631363  37.9873890  83.0839806  35.9324174  38.2170315  84.3674720
  31.1492794  28.7096335  91.5560850  30.9053726  29.4638395  91.0195126
  31.4252724  29.0881683  92.3908097  33.1031256  35.2534947  90.2338116
  33.3148152  35.8966707  89.5572497  33.0561005  34.4197264  89.7660046
  30.7057485  27.8652768  87.1374688  29.8441964  28.1634021  87.4291426
  30.7319920  28.0823167  86.2055721  27.5219055  36.4094958  83.5448494
  27.9857400  36.6882661  82.7553116  27.2575853  35.5078403  83.3621584
  24.4143136  35.9566440  86.4828257  24.9844493  36.3853708  85.8445741
  25.0051248  35.6749025  87.1812443  26.4587941  32.5318111  80.3538059
  27.1611984  32.9839155  80.8211985  26.1268569  31.8901930  80.9817952
  24.9068302  31.1229867  94.7289268  24.2766963  31.8046148  94.9624665
  24.8004390  31.0112949  93.7842406  20.2013275  30.7901664  85.6555192
  19.4112329  31.0459192  85.1795303  20.6924522  31.6050001  85.7607233
  34.2177084  38.1306903  88.4060473  35.0394528  37.7287090  88.1243155
  34.2139487  38.0275137  89.3576589  22.1528020  31.1546243  82.6138669
  21.3559183  31.2664937  83.1322165  21.9253612  31.4932895  81.7479560
  27.9833688  37.6790946  90.5621184  28.0478120  38.1411353  91.3979356
  27.2744612  37.0488311  90.6903494  18.4850978  31.0432154  88.0870183
  18.7359016  31.9279164  88.3527759  19.0210526  30.8636755  87.3145275
  42.3083077  34.4745651  84.7545445  41.5546786  33.9053049  84.5989449
  42.4430619  34.4408316  85.7016079  27.6981705  39.3459053  80.4300164
  27.5627380  40.1910589  80.8585012  28.2391518  39.5478331  79.6666098
  24.1849045  25.4250633  97.0914519  23.7915991  24.8716832  97.7662163
  25.0015185  25.7361212  97.4821037  21.1511103  36.8634492  81.0028089
  21.6635623  37.6577742  81.1533654  21.8033816  36.1660782  80.9361691
  22.9605988  39.9800248  83.0850842  23.1372616  40.9018212  82.8971826
  23.7562821  39.6658667  83.5145222  27.1017006  26.8408512  94.6834776
  27.8426719  27.4415666  94.6039238  27.3334929  26.0986150  94.1252818
  22.2458344  32.0264880  92.9613005  22.1311859  31.1250137  93.2620104
  21.3902862  32.2728576  92.6097822  29.3250182  39.9682620  94.5600506
  28.8814036  39.1818999  94.2421411  29.9867395  40.1561770  93.8944397
  24.0837303  41.4978422  89.0861185  24.6344728  41.3695485  88.3138179
  23.2448779  41.7973311  88.7356077  31.4231420  40.2485420  92.5881907
  31.4049895  41.0694301  92.0962177  32.3451340  40.1239495  92.8132049
  27.8804474  37.7629549  93.4305416  28.4132811  37.0017838  93.2004724
  27.3518555  37.4703201  94.1729570  31.0474169  22.8689615  88.9599057
  30.7038438  23.7591257  88.8838168  31.4153132  22.6791273  88.0968642
  19.1160020  35.1923146  81.7787660  19.9535242  35.6020154  81.5621367
  19.2938287  34.2522588  81.7487853  31.0124452  32.8598226  77.4671493
  30.4971075  33.6302831  77.7059880  30.7401760  32.1863363  78.0904554
  28.5971563  27.7047927  82.5256731  27.7413159  27.3154778  82.3462370
  29.0098515  27.7839888  81.6656516  30.1270709  25.2394271  86.9248291
  29.6235505  25.2024406  86.1116096  30.4201316  26.1487013  86.9844947
  26.3713595  25.3233000  85.9314472  27.2366592  25.1275809  85.5720362
  26.4391104  25.0943352  86.8583829  35.9858726  35.6130581  79.4024666
  35.2088169  35.2741741  78.9579828  36.6650207  35.6183204  78.7279631
  30.8010755  30.7325319  79.2931274  30.4960891  31.0471468  80.1441417
  31.7541197  30.8106738  79.3358607  29.2457187  36.8915542  80.9424228
  28.7178548  36.1568301  80.6297465  28.7444690  37.6690218  80.6964196
  34.2250033  35.0864562  86.0591274  33.5673707  35.7763824  86.1471403
  35.0290432  35.4760994  86.4025260  23.9775914  27.5535208  83.3030839
  24.5519666  27.3310390  82.5704032  24.5646897  27.6223903  84.0559441
  33.0355492  33.4408935  84.1095216  33.5487373  34.0738927  84.6116926
  33.6856715  32.8410131  83.7438576  24.3045502  29.5839669  77.3226725
  23.4682814  29.9214356  77.6435999  24.1650271  29.4488649  76.3853861
  26.2798582  24.4276457  82.0305909  25.6262994  24.1125474  81.4062523
  26.2379056  23.8052198  82.7565732  27.3909787  34.7095752  73.9459201
  26.4836849  34.4785006  74.1450350  27.8880819  33.9133371  74.1333182
  30.2977866  43.4193259  76.8655887  29.6239565  43.7224956  77.4740845
  30.6843688  44.2222340  76.5161344  29.5136322  30.9158391  86.3553556
  28.5958884  31.1373338  86.1975244  29.9296466  30.9904701  85.4965264
  30.2971370  32.3149806  81.4856237  31.0443189  32.8271204  81.1763359
  30.5662960  31.9933859  82.3460630  28.5698020  34.8108347  78.4683191
  27.6609240  34.5267380  78.5655661  28.5993104  35.2307426  77.6086498
  33.8017288  38.4214937  82.2374358  33.3479615  37.5805846  82.2939549
  33.1711255  39.0576335  82.5749139  32.7450207  29.3506923  83.4675026
  32.0072964  28.8384309  83.7985268  32.9976981  28.9107304  82.6558303
  32.2450227  40.2591433  83.1724177  32.5373201  40.8196490  82.4536542
  32.7548848  40.5519994  83.9277336  32.8461835  22.1283175  84.0616795
  33.1520712  21.2680538  83.7742710  33.5714440  22.7200795  83.8615789
  19.1386191  32.5313861  82.4498393  18.9410591  31.9383222  81.7249460
  18.5832855  32.2266071  83.1674332  27.1182914  32.4236968  84.5692986
  27.1731524  31.4710804  84.4935463  26.3074116  32.5796407  85.0534285
  28.2674108  36.3517091  75.8071269  27.8293538  35.6352950  75.3476907
  29.0084549  36.5793205  75.2456361  25.0575274  31.0414027  82.3283365
  24.2443140  31.3408198  82.7348557  25.5534269  30.6469716  83.0457847
  27.2083852  41.0371784  84.2617630  27.1660031  41.2632631  83.3326162
  28.1246551  40.8035159  84.4103431  30.6549486  31.5055852  91.1598259
  31.0098874  31.7327325  92.0192725  31.3021617  31.8374229  90.5375514
  36.3847223  34.6274288  81.8647588  36.2465122  34.8175884  80.9368777
  36.0283442  35.3893671  82.3215639  24.5489349  28.6132383  87.9444600
  25.1888728  28.4721142  87.2467563  23.7166880  28.3266896  87.5683202
  36.4116603  36.6950815  86.8758860  36.8453109  36.6026104  87.7241914
  37.1248183  36.6708315  86.2378876  25.3249653  37.9134813  84.0579592
  26.1190252  37.4185133  83.8562167  24.6141345  37.3852676  83.6947298
  30.1444498  40.2952909  88.4091960  30.1981520  40.8643845  89.1769676
  29.2759279  40.4654794  88.0445997  21.6332417  32.0577895  80.1339345
  20.7030005  31.9962351  80.3509307  21.7289888  31.5353848  79.3375986
  21.5517966  28.5832708  82.7217587  21.8124783  29.4978041  82.6126747
  22.3735138  28.1157150  82.8714200  23.0242891  29.9970465  89.8916411
  23.6965944  29.7887827  89.2429060  22.1972677  29.7992551  89.4521644
  37.2732152  36.7374515  89.4091745  37.4668042  37.6420326  89.6551020
  37.1732770  36.2781934  90.2430330  28.9268463  26.6232406  91.9082072
  28.2796378  27.3222356  91.8146549  29.6969478  27.0568550  92.2758320
  32.3347261  36.8881258  94.9832626  32.1832767  36.6591810  94.0662709
  32.3251940  37.8451860  94.9963971  29.1032597  34.4613171  89.9678892
  30.0324657  34.6124330  89.7947859  28.6823627  34.5497192  89.1127538
  27.9020929  38.4863835  87.7377430  27.7632015  38.1182620  88.6103368
  27.1135525  39.0011475  87.5661387  28.4969081  43.5872932  79.0802966
  28.6720837  43.1160975  79.8948589  27.8101869  44.2138698  79.3084227
  29.4526144  37.8645438  85.1266267  29.1175977  37.8246208  86.0223917
  28.9530090  37.1990154  84.6536678  23.4270388  33.2713068  90.6518849
  23.2890186  32.5393307  91.2530388  24.3375312  33.1821968  90.3703036
  32.3885336  35.2101472  75.4003327  31.7714506  34.4848300  75.3036380
  31.9201824  35.9710833  75.0570401  26.0552689  32.9833027  90.1402528
  26.7652307  32.3426220  90.0989147  26.0121997  33.2345922  91.0628709
  34.0439467  39.9200381  93.0609107  33.9852014  39.2359601  92.3939690
  34.4458986  40.6619371  92.6089733  24.7681623  29.9698245  91.9598168
  24.2318980  29.5188984  92.6119764  24.1798331  30.1044154  91.2168632
  23.0630166  46.7362295  85.8542826  23.3026765  47.3680819  86.5321845
  22.2199363  46.3850335  86.1408186  24.1783882  29.4286897  74.5224631
  23.3013348  29.3075697  74.1586878  24.6541635  28.6372975  74.2703520
  34.0456875  37.8839965  91.2923087  33.1583654  37.5465886  91.4149486
  34.6155426  37.1522996  91.5291852  15.6986022  34.2164056  84.6166138
  16.3857062  33.9025786  84.0287154  15.5434151  35.1205421  84.3433390
  20.5020744  29.1054253  89.0451162  20.4178933  28.4979922  88.3101572
  19.6803450  29.5963271  89.0460658  27.5758028  42.5441417  88.2584330
  27.5028200  43.3496388  88.7703635  27.1335421  42.7433383  87.4332352
  27.3647808  41.7813187  81.7687152  26.5815330  42.3234867  81.8625376
  28.0640553  42.2987167  82.1681393  30.6744458  27.5907816  84.4121357
  31.1713157  26.8377779  84.0922427  29.9031439  27.6272133  83.8464567
  38.5274215  33.2948182  86.0539649  38.5164092  34.1772897  85.6833582
  37.6591595  32.9419733  85.8594186  30.0356712  42.4428251  90.4142489
  30.7484684  43.0775716  90.3418390  29.5446740  42.5392117  89.5982491
  31.7574239  36.3479504  81.9859781  30.8230517  36.4680966  81.8164485
  31.9350907  35.4451970  81.7219790  27.2579427  29.7325199  84.1393042
  26.8877214  29.1796240  84.8273947  27.7538519  29.1283333  83.5868042
  35.1446790  32.1896823  82.5209815  35.6107242  33.0224815  82.4470117
  35.5954290  31.7241805  83.2255073  25.0868625  40.1922694  91.2348060
  25.7878085  40.8259177  91.3877454  24.6163740  40.5337426  90.4743699
  33.2123021  38.5340644  79.5195967  33.4882865  38.4197239  80.4289841
  32.3427520  38.1358129  79.4808140  33.1163453  24.5577410  86.5600716
  32.2026532  24.7881637  86.7282923  33.5456554  24.6415854  87.4114748
  32.8869911  32.7467302  89.0600610  32.2341361  32.9943209  88.4053063
  33.2650291  31.9331440  88.7263087  29.8477085  42.7826995  83.1628780
  30.0299480  41.9648651  83.6256533  30.6710071  42.9994687  82.7253670
  30.1819251  41.7095180  80.4243829  30.7107017  41.1987635  79.8113991
  30.4447470  41.3937710  81.2889362  28.9357484  33.4887113  95.5466647
  28.2598121  33.3881242  96.2169022  29.7585118  33.3326327  96.0102644
  20.6836343  39.7259049  88.1679162  21.2689780  38.9802737  88.3007067
  20.4861182  40.0363006  89.0515826  23.5374998  42.7610297  83.1841605
  22.8685374  43.2456425  82.7005645  23.3987868  43.0079517  84.0984983
  15.2753998  32.2964650  86.8883606  15.3138098  31.7628240  87.6820724
  14.7694291  31.7699855  86.2694583  27.6780267  44.7954040  89.7824263
  28.2298575  44.9585662  90.5473348  28.0186461  45.3858478  89.1104288
  22.6544760  27.1429190  90.3846148  22.7186087  28.0044021  89.9723546
  22.5911881  26.5303192  89.6518506  22.1297033  29.2152323  94.0319182
  22.7569072  28.8329400  94.6456706  21.2724952  28.9966525  94.3974875
  32.5291141  39.6215298  95.6372918  33.0731045  40.2345256  95.1427872
  31.9477986  40.1794876  96.1539931  18.9062576  31.0228752  79.9637537
  19.2016017  30.1139430  79.9104591  18.0050611  31.0016491  79.6418539
  30.8148654  42.7436016  86.7687945  30.6899794  41.9425756  86.2598891
  31.4727745  43.2382209  86.2801915  22.4356823  29.0984748  85.9465086
  21.7143408  29.7120716  85.8072559  23.2250078  29.6342513  85.8681731
  32.8783563  40.5445036  88.3967495  31.9313898  40.4250387  88.3245822
  33.2266336  39.6567534  88.4793757  25.2383136  26.4339175  92.2205737
  25.7617538  26.6801471  92.9832047  25.0195469  27.2659210  91.8008875
  20.6350417  28.7042850  80.0876862  20.3063123  27.8240228  79.9051968
  20.9889788  28.6490518  80.9753251  29.8829996  40.3397752  84.5971848
  29.7354958  39.4114460  84.7779418  30.7083490  40.3617843  84.1128923
  23.7492240  28.9915819  80.4552340  24.0888313  29.5201741  79.7330948
  24.1964361  29.3296225  81.2310906  33.4864118  41.1626311  85.6836720
  34.4110665  40.9569172  85.5461172  33.3179421  40.9142712  86.5926062
  26.4435681  27.3752870  89.9055408  26.1032502  26.5760683  90.3076088
  25.7374687  27.6754581  89.3332241  27.0952153  24.4602182  88.3582731
  27.9178222  23.9862661  88.2361621  27.3390217  25.2392666  88.8581417
  25.7360387  27.4890441  78.6545633  26.4568750  27.8671694  78.1509349
  25.1125692  28.2079318  78.7580610  29.8791510  28.1935590  79.5903965
  30.0955125  29.0760228  79.2892793  29.3985577  27.8021803  78.8609607
  24.6190732  31.1521303  86.1674709  24.4735312  31.4661606  87.0598991
  24.1415935  31.7706203  85.6145608  26.4787115  28.1423851  86.2155599
  26.4648683  27.2464944  85.8787897  27.1959543  28.1494515  86.8493885
  28.3313245  28.5761191  88.2608726  28.0731023  29.4978262  88.2593057
  27.7998286  28.1791626  88.9509191  33.2759434  41.6811978  81.0398812
  33.4496312  41.1158401  80.2872664  33.7688325  42.4812873  80.8578302
  19.0936394  33.6926648  89.1062371  18.5489862  34.4686455  89.2382645
  19.9715744  34.0397452  88.9481492  25.8824011  27.0238231  81.4843169
  26.0039922  26.0954878  81.6834057  25.5926053  27.0376917  80.5721485
  28.7515201  24.7093142  84.6209889  28.7736898  24.7732475  83.6661869
  29.1683260  23.8697650  84.8150395  39.1298825  34.4448401  82.6589112
  39.5729971  33.6955727  82.2608235  38.2525336  34.4358538  82.2762844
  34.2634607  40.9978743  78.1395710  34.9585511  41.6185436  78.3583025
  34.6057757  40.1474094  78.4148088  19.8802416  32.8196544  91.9992528
  19.1384152  32.9679179  92.5857158  19.5595160  33.0804809  91.1359277
  36.1626030  38.4478448  79.6683041  36.6877354  38.7865721  78.9432361
  36.0748382  37.5125464  79.4846176  27.8246078  42.3612522  91.7972918
  28.1333205  42.1161669  92.6695617  28.6221560  42.5659160  91.3091788
  27.8466690  44.5150432  84.0278294  27.4071681  44.0226810  84.7211151
  28.5974807  43.9723399  83.7870369  20.3259029  40.7061972  84.0302922
  21.1517049  40.4065744  83.6501566  19.9753081  39.9369595  84.4792711
  25.2940563  40.0588441  86.1000596  24.6720572  39.3959146  85.8002824
  25.9645429  40.0849573  85.4174244  18.5267634  38.6248299  84.9891856
  17.6899543  38.1970473  84.8075857  18.4991280  38.8180742  85.9262647
  25.3665090  28.5370229  95.6933102  25.4153246  29.4132352  95.3110871
  25.9087604  27.9947622  95.1204745  35.8519936  39.0811352  94.9734239
  35.0615479  39.0635491  94.4338738  35.6153290  39.6199646  95.7283275
  35.9717811  35.9303818  92.2866967  36.0215816  35.7653826  93.2282490
  35.8631734  35.0631077  91.8964848  24.8554069  38.6092364  79.5759056
  25.0042190  39.2927828  78.9225729  25.6620513  38.5897454  80.0908512
  33.2621573  31.9134746  93.6026274  34.1631436  31.7741211  93.3110272
  33.3369548  32.0789201  94.5424452  27.5964379  29.2901601  92.4479460
  26.7267688  29.5835167  92.1762049  27.8323859  29.8742046  93.1686724
  37.4736008  38.3500760  92.5308989  37.1820816  38.7130740  93.3672450
  36.8608139  37.6367768  92.3522321  38.6731690  35.9153640  85.0511559
  39.5078581  36.3543444  85.2149120  38.8090819  35.4392293  84.2319805
  35.7223196  33.4733375  90.9989047  36.1977317  33.6661021  90.1907898
  34.7988761  33.5292560  90.7532431  22.6106702  34.6357542  80.5820125
  22.3652744  33.7319872  80.7800335  22.7802617  34.6374692  79.6399603
  30.3003412  25.5081218  89.9644881  30.8185356  26.2442245  89.6391369
  29.9458545  25.8145211  90.7991640  21.8802350  30.3685899  78.0806287
  21.1871595  30.4430254  77.4246323  21.6354102  29.6046243  78.6027804
  30.5516007  21.9281501  85.4845777  30.8317760  21.2604690  86.1106204
  31.3366613  22.1210596  84.9720441  28.3549475  41.1040495  77.0470804
  27.7823442  41.7230682  76.5941276  28.9282269  41.6539856  77.5810726
  34.4224865  30.3499135  89.2317353  35.3742288  30.4497232  89.2529577
  34.2528315  29.5577403  89.7415437  32.4439244  27.4354718  89.4176753
  31.8489176  27.7159731  88.7223242  32.1588941  27.9248619  90.1893495
  31.5746735  41.3877645  78.1779386  32.5077408  41.3223206  78.3812262
  31.4869948  42.2233911  77.7193919  34.2034751  40.7043515  75.1383334
  34.1248383  40.3703379  76.0319091  35.0244418  41.1965283  75.1374806
  36.9012943  33.5705254  88.3459652  36.8689263  32.6321255  88.5319336
  37.5113566  33.6489291  87.6125477  28.7396274  32.4401307  74.3886856
  29.6855378  32.3107515  74.4575274  28.3610518  31.7015969  74.8656284
  37.0507431  30.3616298  88.3917935  36.5346480  29.5774754  88.2047864
  37.9347380  30.0335014  88.5564455  34.7118158  24.1057313  84.3513748
  34.5142979  23.7972401  85.2357080  35.3217864  24.8318952  84.4811678
  42.7189493  34.6321261  87.4865689  43.4492881  34.3706549  88.0473392
  42.1096438  33.8949983  87.5267757  40.8004790  32.7729124  88.0840140
  40.0737953  32.6385089  87.4756632  40.3852077  33.0805952  88.8896858
  28.6234966  36.4919053  95.8487513  29.5437976  36.6697652  96.0427560
  28.5884549  35.5475099  95.6967212  26.9239191  30.3651284  74.3241741
  26.0170646  30.0684396  74.4004455  27.2015172  30.0681102  73.4576028
  17.8417131  31.6857647  84.7740788  17.5219915  30.8322955  84.4815162
  17.2950559  31.9006225  85.5298755  21.6197039  34.4020088  88.4910294
  21.8383048  35.3337196  88.5098328  22.0322812  34.0428062  89.2765098
  28.5401256  24.9088173  80.4785983  27.7301985  24.5635258  80.8541229
  29.2285673  24.5995717  81.0673594  30.4691805  23.9866220  82.1010279
  31.0222843  24.4061674  82.7600302  30.7061891  23.0601968  82.1433235
  26.4924904  29.9753294  97.8813043  26.3921631  30.9247651  97.8125134
  26.2746446  29.6471533  97.0089113  25.6937975  27.2238219  74.4653721
  26.5557139  27.5493117  74.7249538  25.8788319  26.4369715  73.9526786
  17.7105391  35.3060559  86.7433909  17.0168862  34.8914511  86.2303864
  18.4578382  35.3481095  86.1467328  33.8470612  26.0966745  81.6088944
  33.2669281  26.7551549  81.2266996  33.5806544  25.2744090  81.1976361
  32.2974178  25.4971803  83.8110264  32.7973957  25.6088338  83.0024583
  32.9409786  25.1932856  84.4511072  26.3556174  33.4050433  96.6978105
  25.8723256  34.2050793  96.9041994  26.4417113  33.4158378  95.7445549
  19.6242134  35.2378812  84.6199924  19.6012822  35.3366500  83.6681807
  19.9342770  36.0843963  84.9417090  22.2829511  37.2954967  88.7346539
  23.2372765  37.2638910  88.6676470  22.0842035  36.8345591  89.5496765
  22.8728894  35.8656083  91.3017336  23.6921783  36.3600162  91.3252174
  23.1465701  34.9488052  91.2734904  32.6295490  28.2566836  80.6645292
  31.7421345  28.5416486  80.4465487  33.0449479  28.0960599  79.8172569
  35.9810026  28.2813357  84.3799631  36.7570416  28.7709809  84.6524248
  35.2558160  28.7071411  84.8371501  38.4182585  28.9940976  85.4373572
  39.0127075  28.7536712  84.7266880  38.4909168  28.2748106  86.0647108
  20.6379740  42.8374587  85.7516737  20.5034208  42.0774988  85.1854735
  20.2211803  43.5615487  85.2845525  31.7738703  38.0211510  74.7593312
  32.4774553  38.2261513  75.3750967  31.0501352  38.5888272  75.0242395
  32.6036514  33.7721372  80.8795582  32.5471715  34.2289923  80.0403214
  33.1564856  33.0112056  80.7018425  36.4141319  29.5611104  81.7045702
  36.1578254  29.1607739  82.5353909  35.7894187  30.2754897  81.5795841
  40.7253657  32.3007177  84.2116993  40.1653215  32.3700366  84.9848555
  40.1197161  32.1248161  83.4916489  23.7948866  43.7343904  85.9635179
  23.6781250  44.6789336  85.8613869  22.9741312  43.4317465  86.3520978
  33.6825401  38.4594040  76.8091772  34.5171005  38.0275238  76.6269247
  33.5209744  38.2876053  77.7368666  33.3371293  34.9626153  78.1748111
  33.2820097  34.7970424  77.2336555  32.7117348  35.6702186  78.3310301
  18.1263808  30.1994217  92.0009533  18.7722671  29.6893171  92.4896759
  17.9180959  30.9362899  92.5752959  30.6517200  37.2675065  97.5001674
  31.5208360  37.4415717  97.1388309  30.1723952  38.0869482  97.3777403
  26.6467418  24.4634262  77.7533430  26.6346088  25.4076102  77.9101700
  27.5390840  24.2804407  77.4592891  24.8203380  44.3872166  89.1791108
  25.7230627  44.4195776  89.4957603  24.5940750  43.4572617  89.1937443
  26.5756982  43.1403152  85.8401186  25.6252613  43.1405014  85.7265559
  26.8789468  42.3935887  85.3237221  30.4619538  21.0577039  82.0079366
  29.6951934  20.5035525  82.1536049  30.8730243  21.1298907  82.8693518
  22.4661299  27.3461834  96.0984548  23.3292760  26.9898639  96.3087872
  21.8926709  27.0075729  96.7859952  34.9786198  50.7826595  82.8305364
  34.4151063  50.6916532  82.0621652  34.8638593  49.9626500  83.3107857
  39.6019165  50.0825971  92.7994679  39.5907806  49.6878769  91.9275183
  39.7639805  49.3492043  93.3928450  32.5250630  52.2777787  85.6689585
  33.3171922  51.9368611  85.2535884  32.7647280  52.3872762  86.5891738
  40.5585756  54.4497563  78.1419829  39.9073736  55.0351643  77.7553843
  41.3530119  54.9803758  78.2014867  34.4841384  51.5386700  78.5406964
  35.2572260  50.9915687  78.4019839  34.8366782  52.4030949  78.7521425
  36.3226426  52.8663082  91.7473863  36.0316292  53.7708713  91.6320529
  36.9583411  52.9079610  92.4617932  37.2482633  50.2439931  88.3375223
  37.8446205  50.0195953  87.6232185  37.3057605  49.5024676  88.9400670
  36.8207661  47.6979366  76.1725413  37.0733182  47.1760887  75.4108876
  35.8832221  47.5345512  76.2752097  47.2659371  46.6390378  84.8833135
  47.9984543  46.0689595  85.1170965  46.5098727  46.2511978  85.3239641
  36.5403950  49.6007472  78.3749788  36.4240208  48.9252376  79.0430873
  36.6506210  49.1139846  77.5581941  44.7884792  40.3511952  89.3427744
  44.4568117  41.2207363  89.1188959  44.1930405  40.0348236  90.0221774
  38.5240978  44.0907519  77.0757826  38.6915380  44.9587755  77.4428297
  38.3338147  44.2534801  76.1519115  34.7328793  49.0038295  84.7760361
  33.8079289  48.8714509  84.9838053  34.9813206  49.7832514  85.2730303
  44.6813455  45.0707038  86.4221094  43.7730332  45.0022446  86.1279855
  44.6301051  45.5478983  87.2502919  38.5030199  46.5465176  78.0604493
  38.3829824  46.9922227  78.8989973  37.8082787  46.8950494  77.5018031
  32.0937604  48.6471568  85.6104150  32.2229985  48.9006047  86.5243562
  31.4135055  49.2399276  85.2908805  36.2637091  59.3168818  81.7094624
  36.1861121  60.2676643  81.7883105  35.6598735  58.9714691  82.3669551
  38.7554321  46.4896684  94.3655991  37.9787655  47.0490604  94.3558856
  39.3944884  46.9753467  94.8870861  46.5475101  43.2723476  88.1998968
  45.9049482  43.5656010  87.5538762  46.0430030  43.1576397  89.0052164
  37.0100693  49.2982137  93.9273958  37.7515378  49.8367181  93.6508782
  36.3037679  49.9248426  94.0845510  42.4856033  51.4411277  92.5246120
  42.8939389  50.9993688  91.7800752  41.7633294  50.8663905  92.7780313
  38.8387103  46.3783884  89.8979677  39.6848298  46.8023298  90.0414326
  38.7785740  45.7217509  90.5918240  41.9886548  44.0388253  91.5560850
  41.7447480  44.7930313  91.0195126  42.2646479  44.4173600  92.3908097
  41.5451240  43.1944686  87.1374688  40.6835719  43.4925939  87.4291426
  41.5713675  43.4115084  86.2055721  38.3612809  51.7386876  83.5448494
  38.8251155  52.0174579  82.7553116  38.0969607  50.8370321  83.3621584
  35.2536890  51.2858358  86.4828257  35.8238247  51.7145626  85.8445741
  35.8445002  51.0040942  87.1812443  37.2981695  47.8610029  80.3538059
  38.0005739  48.3131072  80.8211985  36.9662324  47.2193847  80.9817952
  35.7462057  46.4521785  94.7289268  35.1160717  47.1338066  94.9624665
  35.6398145  46.3404867  93.7842406  31.0407029  46.1193581  85.6555192
  30.2506083  46.3751110  85.1795303  31.5318277  46.9341919  85.7607233
  32.9921775  46.4838160  82.6138669  32.1952938  46.5956855  83.1322165
  32.7647367  46.8224813  81.7479560  38.8227442  53.0082864  90.5621184
  38.8871875  53.4703271  91.3979356  38.1138366  52.3780229  90.6903494
  29.3244732  46.3724072  88.0870183  29.5752771  47.2571082  88.3527759
  29.8604281  46.1928673  87.3145275  38.5375460  54.6750971  80.4300164
  38.4021135  55.5202507  80.8585012  39.0785272  54.8770249  79.6666098
  35.0242800  40.7542551  97.0914519  34.6309745  40.2008750  97.7662163
  35.8408940  41.0653129  97.4821037  31.9904857  52.1926409  81.0028089
  32.5029378  52.9869659  81.1533654  32.6427570  51.4952700  80.9361691
  33.7999742  55.3092165  83.0850842  33.9766370  56.2310130  82.8971826
  34.5956576  54.9950585  83.5145222  37.9410761  42.1700430  94.6834776
  38.6820474  42.7707583  94.6039238  38.1728683  41.4278068  94.1252818
  33.0852099  47.3556797  92.9613005  32.9705614  46.4542055  93.2620104
  32.2296616  47.6020494  92.6097822  40.1643936  55.2974538  94.5600506
  39.7207791  54.5110916  94.2421411  40.8261150  55.4853688  93.8944397
  34.9231058  56.8270339  89.0861185  35.4738483  56.6987403  88.3138179
  34.0842533  57.1265228  88.7356077  42.2625174  55.5777338  92.5881907
  42.2443650  56.3986219  92.0962177  43.1845094  55.4531413  92.8132049
  38.7198229  53.0921467  93.4305416  39.2526565  52.3309755  93.2004724
  38.1912310  52.7995119  94.1729570  41.8867924  38.1981533  88.9599057
  41.5432193  39.0883175  88.8838168  42.2546886  38.0083191  88.0968642
  29.9553774  50.5215063  81.7787660  30.7928996  50.9312072  81.5621367
  30.1332042  49.5814506  81.7487853  41.8518206  48.1890144  77.4671493
  41.3364830  48.9594749  77.7059880  41.5795515  47.5155280  78.0904554
  39.4365317  43.0339845  82.5256731  38.5806914  42.6446695  82.3462370
  39.8492269  43.1131806  81.6656516  40.9664464  40.5686188  86.9248291
  40.4629260  40.5316323  86.1116096  41.2595071  41.4778931  86.9844947
  37.2107350  40.6524918  85.9314472  38.0760347  40.4567727  85.5720362
  37.2784859  40.4235270  86.8583829  41.6404509  46.0617236  79.2931274
  41.3354645  46.3763385  80.1441417  42.5934952  46.1398656  79.3358607
  34.8169669  42.8827126  83.3030839  35.3913421  42.6602307  82.5704032
  35.4040651  42.9515820  84.0559441  35.1439256  44.9131587  77.3226725
  34.3076568  45.2506273  77.6435999  35.0044026  44.7780567  76.3853861
  37.1192337  39.7568375  82.0305909  36.4656749  39.4417392  81.4062523
  37.0772811  39.1344115  82.7565732  38.2303541  50.0387670  73.9459201
  37.3230603  49.8076923  74.1450350  38.7274573  49.2425289  74.1333182
  39.4091775  50.1400265  78.4683191  38.5002994  49.8559298  78.5655661
  39.4386859  50.5599343  77.6086498  43.6855589  37.4575092  84.0616795
  43.9914466  36.5972456  83.7742710  44.4108194  38.0492712  83.8615789
  29.9779945  47.8605779  82.4498393  29.7804345  47.2675140  81.7249460
  29.4226609  47.5557989  83.1674332  39.1067863  51.6809008  75.8071269
  38.6687293  50.9644867  75.3476907  39.8478304  51.9085123  75.2456361
  35.8969029  46.3705945  82.3283365  35.0836894  46.6700116  82.7348557
  36.3928023  45.9761634  83.0457847  38.0477607  56.3663702  84.2617630
  38.0053786  56.5924548  83.3326162  38.9640306  56.1327077  84.4103431
  41.4943241  46.8347770  91.1598259  41.8492628  47.0619243  92.0192725
  42.1415372  47.1666146  90.5375514  35.3883104  43.9424301  87.9444600
  36.0282483  43.8013060  87.2467563  34.5560634  43.6558814  87.5683202
  36.1643408  53.2426731  84.0579592  36.9584006  52.7477051  83.8562167
  35.4535100  52.7144594  83.6947298  32.4726171  47.3869813  80.1339345
  31.5423759  47.3254268  80.3509307  32.5683643  46.8645765  79.3375986
  32.3911720  43.9124626  82.7217587  32.6518537  44.8269959  82.6126747
  33.2128892  43.4449068  82.8714200  33.8636645  45.3262383  89.8916411
  34.5359699  45.1179745  89.2429060  33.0366432  45.1284469  89.4521644
  39.7662217  41.9524324  91.9082072  39.1190132  42.6514273  91.8146549
  40.5363233  42.3860468  92.2758320  43.1741015  52.2173176  94.9832626
  43.0226522  51.9883727  94.0662709  43.1645695  53.1743777  94.9963971
  39.9426352  49.7905089  89.9678892  40.8718412  49.9416248  89.7947859
  39.5217382  49.8789109  89.1127538  34.2664143  48.6004986  90.6518849
  34.1283941  47.8685225  91.2530388  35.1769066  48.5113886  90.3703036
  43.2279090  50.5393390  75.4003327  42.6108261  49.8140218  75.3036380
  42.7595579  51.3002750  75.0570401  36.8946443  48.3124945  90.1402528
  37.6046062  47.6718137  90.0989147  36.8515751  48.5637840  91.0628709
  35.6075377  45.2990163  91.9598168  35.0712734  44.8480901  92.6119764
  35.0192086  45.4336072  91.2168632  33.9023921  62.0654212  85.8542826
  34.1420519  62.6972736  86.5321845  33.0593117  61.7142252  86.1408186
  35.0177636  44.7578814  74.5224631  34.1407103  44.6367615  74.1586878
  35.4935389  43.9664893  74.2703520  26.5379776  49.5455974  84.6166138
  27.2250816  49.2317704  84.0287154  26.3827905  50.4497339  84.3433390
  31.3414499  44.4346171  89.0451162  31.2572687  43.8271840  88.3101572
  30.5197205  44.9255189  89.0460658  38.4151783  57.8733335  88.2584330
  38.3421954  58.6788306  88.7703635  37.9729176  58.0725300  87.4332352
  38.2041562  57.1105105  81.7687152  37.4209084  57.6526785  81.8625376
  38.9034307  57.6279084  82.1681393  41.5138212  42.9199734  84.4121357
  42.0106912  42.1669696  84.0922427  40.7425194  42.9564051  83.8464567
  40.8750466  57.7720169  90.4142489  41.5878438  58.4067633  90.3418390
  40.3840495  57.8684035  89.5982491  38.0973181  45.0617117  84.1393042
  37.7270969  44.5088157  84.8273947  38.5932274  44.4575251  83.5868042
  45.9840544  47.5188741  82.5209815  46.4500997  48.3516732  82.4470117
  46.4348045  47.0533722  83.2255073  35.9262380  55.5214612  91.2348060
  36.6271839  56.1551095  91.3877454  35.4557495  55.8629344  90.4743699
  43.9557207  39.8869328  86.5600716  43.0420287  40.1173554  86.7282923
  44.3850309  39.9707772  87.4114748  40.6870840  58.1118913  83.1628780
  40.8693234  57.2940569  83.6256533  41.5103826  58.3286605  82.7253670
  39.7751239  48.8179031  95.5466647  39.0991876  48.7173160  96.2169022
  40.5978873  48.6618244  96.0102644  31.5230098  55.0550967  88.1679162
  32.1083535  54.3094655  88.3007067  31.3254936  55.3654924  89.0515826
  34.3768753  58.0902215  83.1841605  33.7079128  58.5748342  82.7005645
  34.2381623  58.3371435  84.0984983  26.1147752  47.6256567  86.8883606
  26.1531852  47.0920158  87.6820724  25.6088045  47.0991773  86.2694583
  38.5174022  60.1245958  89.7824263  39.0692330  60.2877580  90.5473348
  38.8580215  60.7150396  89.1104288  33.4938515  42.4721108  90.3846148
  33.5579841  43.3335939  89.9723546  33.4305635  41.8595110  89.6518506
  32.9690787  44.5444240  94.0319182  33.5962826  44.1621318  94.6456706
  32.1118706  44.3258442  94.3974875  43.3684896  54.9507216  95.6372918
  43.9124800  55.5637174  95.1427872  42.7871741  55.5086794  96.1539931
  29.7456330  46.3520670  79.9637537  30.0409771  45.4431348  79.9104591
  28.8444366  46.3308409  79.6418539  33.2750577  44.4276666  85.9465086
  32.5537163  45.0412634  85.8072559  34.0643833  44.9634431  85.8681731
  36.0776891  41.7631093  92.2205737  36.6011292  42.0093389  92.9832047
  35.8589224  42.5951127  91.8008875  31.4744172  44.0334767  80.0876862
  31.1456878  43.1532146  79.9051968  31.8283542  43.9782436  80.9753251
  34.5885995  44.3207737  80.4552340  34.9282067  44.8493658  79.7330948
  35.0358115  44.6588143  81.2310906  37.2829436  42.7044788  89.9055408
  36.9426256  41.9052601  90.3076088  36.5768442  43.0046499  89.3332241
  37.9345907  39.7894100  88.3582731  38.7571977  39.3154578  88.2361621
  38.1783971  40.5684584  88.8581417  36.5754142  42.8182359  78.6545633
  37.2962504  43.1963611  78.1509349  35.9519446  43.5371235  78.7580610
  40.7185265  43.5227508  79.5903965  40.9348879  44.4052145  79.2892793
  40.2379332  43.1313721  78.8609607  35.4584486  46.4813221  86.1674709
  35.3129067  46.7953524  87.0598991  34.9809690  47.0998121  85.6145608
  37.3180869  43.4715769  86.2155599  37.3042438  42.5756862  85.8787897
  38.0353297  43.4786433  86.8493885  39.1707000  43.9053109  88.2608726
  38.9124778  44.8270180  88.2593057  38.6392040  43.5083544  88.9509191
  29.9330148  49.0218565  89.1062371  29.3883616  49.7978373  89.2382645
  30.8109498  49.3689370  88.9481492  36.7217765  42.3530149  81.4843169
  36.8433676  41.4246795  81.6834057  36.4319807  42.3668835  80.5721485
  39.5908955  40.0385059  84.6209889  39.6130652  40.1024393  83.6661869
  40.0077014  39.1989568  84.8150395  30.7196170  48.1488461  91.9992528
  29.9777906  48.2971097  92.5857158  30.3988915  48.4096727  91.1359277
  38.6639833  57.6904440  91.7972918  38.9726959  57.4453586  92.6695617
  39.4615315  57.8951078  91.3091788  38.6860445  59.8442349  84.0278294
  38.2465435  59.3518728  84.7211151  39.4368562  59.3015317  83.7870369
  31.1652784  56.0353890  84.0302922  31.9910804  55.7357662  83.6501566
  30.8146836  55.2661513  84.4792711  36.1334317  55.3880358  86.1000596
  35.5114326  54.7251063  85.8002824  36.8039184  55.4141490  85.4174244
  29.3661389  53.9540217  84.9891856  28.5293297  53.5262391  84.8075857
  29.3385034  54.1472660  85.9262647  36.2058845  43.8662146  95.6933102
  36.2547000  44.7424269  95.3110871  36.7481359  43.3239539  95.1204745
  35.6947824  53.9384282  79.5759056  35.8435944  54.6219746  78.9225729
  36.5014267  53.9189372  80.0908512  44.1015328  47.2426664  93.6026274
  45.0025190  47.1033129  93.3110272  44.1763302  47.4081119  94.5424452
  38.4358133  44.6193519  92.4479460  37.5661442  44.9127085  92.1762049
  38.6717613  45.2033964  93.1686724  46.5616950  48.8025292  90.9989047
  47.0371072  48.9952939  90.1907898  45.6382516  48.8584478  90.7532431
  33.4500457  49.9649459  80.5820125  33.2046499  49.0611789  80.7800335
  33.6196372  49.9666610  79.6399603  41.1397167  40.8373136  89.9644881
  41.6579111  41.5734163  89.6391369  40.7852300  41.1437129  90.7991640
  32.7196105  45.6977817  78.0806287  32.0265349  45.7722172  77.4246323
  32.4747856  44.9338161  78.6027804  41.3909761  37.2573418  85.4845777
  41.6711515  36.5896607  86.1106204  42.1760368  37.4502514  84.9720441
  39.1943230  56.4332412  77.0470804  38.6217197  57.0522599  76.5941276
  39.7676023  56.9831774  77.5810726  45.2618619  45.6791052  89.2317353
  46.2136042  45.7789150  89.2529577  45.0922070  44.8869321  89.7415437
  43.2832999  42.7646635  89.4176753  42.6882931  43.0451648  88.7223242
  42.9982696  43.2540536  90.1893495  39.5790028  47.7693225  74.3886856
  40.5249133  47.6399433  74.4575274  39.2004273  47.0307887  74.8656284
  47.8901186  45.6908215  88.3917935  47.3740234  44.9066672  88.2047864
  48.7741134  45.3626932  88.5564455  45.5511913  39.4349231  84.3513748
  45.3536734  39.1264319  85.2357080  46.1611618  40.1610870  84.4811678
  39.4628721  51.8210971  95.8487513  40.3831730  51.9989570  96.0427560
  39.4278304  50.8767016  95.6967212  37.7632945  45.6943201  74.3241741
  36.8564401  45.3976314  74.4004455  38.0408926  45.3973019  73.4576028
  28.6810886  47.0149565  84.7740788  28.3613670  46.1614873  84.4815162
  28.1344314  47.2298143  85.5298755  32.4590793  49.7312006  88.4910294
  32.6776803  50.6629114  88.5098328  32.8716567  49.3719980  89.2765098
  39.3795011  40.2380091  80.4785983  38.5695739  39.8927176  80.8541229
  40.0679428  39.9287635  81.0673594  41.3085559  39.3158138  82.1010279
  41.8616598  39.7353591  82.7600302  41.5455646  38.3893886  82.1433235
  37.3318658  45.3045211  97.8813043  37.2315385  46.2539568  97.8125134
  37.1140200  44.9763450  97.0089113  36.5331730  42.5530137  74.4653721
  37.3950894  42.8785035  74.7249538  36.7182074  41.7661632  73.9526786
  28.5499146  50.6352476  86.7433909  27.8562617  50.2206429  86.2303864
  29.2972137  50.6773013  86.1467328  44.6864366  41.4258663  81.6088944
  44.1063035  42.0843467  81.2266996  44.4200299  40.6036008  81.1976361
  43.1367933  40.8263721  83.8110264  43.6367711  40.9380255  83.0024583
  43.7803541  40.5224774  84.4511072  37.1949928  48.7342350  96.6978105
  36.7117010  49.5342710  96.9041994  37.2810868  48.7450295  95.7445549
  30.4635888  50.5670730  84.6199924  30.4406576  50.6658417  83.6681807
  30.7736525  51.4135881  84.9417090  33.1223266  52.6246885  88.7346539
  34.0766520  52.5930827  88.6676470  32.9235790  52.1637509  89.5496765
  33.7122648  51.1948001  91.3017336  34.5315537  51.6892080  91.3252174
  33.9859456  50.2779969  91.2734904  43.4689244  43.5858753  80.6645292
  42.5815099  43.8708404  80.4465487  43.8843233  43.4252517  79.8172569
  46.8203780  43.6105274  84.3799631  47.5964171  44.1001727  84.6524248
  46.0951915  44.0363329  84.8371501  49.2576339  44.3232894  85.4373572
  49.8520830  44.0828630  84.7266880  49.3302923  43.6040024  86.0647108
  31.4773495  58.1666505  85.7516737  31.3427963  57.4066905  85.1854735
  31.0605557  58.8907404  85.2845525  42.6132458  53.3503428  74.7593312
  43.3168308  53.5553431  75.3750967  41.8895107  53.9180190  75.0242395
  47.2535074  44.8903021  81.7045702  46.9972008  44.4899657  82.5353909
  46.6287942  45.6046815  81.5795841  51.5647412  47.6299094  84.2116993
  51.0046970  47.6992284  84.9848555  50.9590915  47.4540079  83.4916489
  34.6342621  59.0635822  85.9635179  34.5175005  60.0081254  85.8613869
  33.8135067  58.7609383  86.3520978  28.9657562  45.5286135  92.0009533
  29.6116426  45.0185089  92.4896759  28.7574713  46.2654817  92.5752959
  41.4910955  52.5966982  97.5001674  42.3602114  52.7707635  97.1388309
  41.0117706  53.4161399  97.3777403  37.4861173  39.7926180  77.7533430
  37.4739843  40.7368019  77.9101700  38.3784595  39.6096325  77.4592891
  35.6597135  59.7164083  89.1791108  36.5624381  59.7487694  89.4957603
  35.4334505  58.7864534  89.1937443  37.4150737  58.4695070  85.8401186
  36.4646368  58.4696932  85.7265559  37.7183223  57.7227805  85.3237221
  41.3013292  36.3868956  82.0079366  40.5345688  35.8327443  82.1536049
  41.7123997  36.4590825  82.8693518  33.3055053  42.6753752  96.0984548
  34.1686515  42.3190557  96.3087872  32.7320464  42.3367647  96.7859952
  43.3644384  67.6069704  85.6689585  44.1565676  67.2660529  85.2535884
  43.6041034  67.7164680  86.5891738  42.9331358  63.9763486  85.6104150
  43.0623739  64.2297965  86.5243562  42.2528810  64.5691194  85.2908805
  47.1030846  74.6460736  81.7094624  47.0254875  75.5968561  81.7883105
  46.4992489  74.3006608  82.3669551  46.0930645  66.6150275  86.4828257
  46.6632002  67.0437544  85.8445741  46.6838757  66.3332860  87.1812443
  46.5855811  61.7813703  94.7289268  45.9554472  62.4629984  94.9624665
  46.4791899  61.6696784  93.7842406  41.8800784  61.4485499  85.6555192
  41.0899838  61.7043027  85.1795303  42.3712031  62.2633837  85.7607233
  40.1638487  61.7015989  88.0870183  40.4146525  62.5862999  88.3527759
  40.6998035  61.5220591  87.3145275  45.8636554  56.0834469  97.0914519
  45.4703500  55.5300667  97.7662163  46.6802694  56.3945047  97.4821037
  44.6393497  70.6384083  83.0850842  44.8160125  71.5602048  82.8971826
  45.4350330  70.3242502  83.5145222  45.7624812  72.1562257  89.0861185
  46.3132237  72.0279320  88.3138179  44.9236288  72.4557146  88.7356077
  40.8173700  63.1897696  82.4498393  40.6198100  62.5967057  81.7249460
  40.2620364  62.8849907  83.1674332  48.8871361  71.6955620  84.2617630
  48.8447540  71.9216466  83.3326162  49.8034060  71.4618994  84.4103431
  51.8232006  70.9536744  88.4091960  51.8769029  71.5227680  89.1769676
  50.9546788  71.1238629  88.0445997  44.7030400  60.6554300  89.8916411
  45.3753453  60.4471663  89.2429060  43.8760186  60.4576386  89.4521644
  45.1057897  63.9296903  90.6518849  44.9677695  63.1977142  91.2530388
  46.0162821  63.8405803  90.3703036  46.4469132  60.6282081  91.9598168
  45.9106489  60.1772819  92.6119764  45.8585840  60.7627989  91.2168632
  44.7417675  77.3946130  85.8542826  44.9814273  78.0264654  86.5321845
  43.8986872  77.0434170  86.1408186  37.3773531  64.8747892  84.6166138
  38.0644571  64.5609622  84.0287154  37.2221660  65.7789256  84.3433390
  42.1808253  59.7638088  89.0451162  42.0966442  59.1563758  88.3101572
  41.3590959  60.2547107  89.0460658  49.2545537  73.2025252  88.2584330
  49.1815709  74.0080224  88.7703635  48.8122930  73.4017218  87.4332352
  51.7144221  73.1012086  90.4142489  52.4272193  73.7359551  90.3418390
  51.2234249  73.1975952  89.5982491  51.5264594  73.4410830  83.1628780
  51.7086989  72.6232486  83.6256533  52.3497580  73.6578523  82.7253670
  42.3623852  70.3842885  88.1679162  42.9477289  69.6386573  88.3007067
  42.1648691  70.6946842  89.0515826  45.2162507  73.4194132  83.1841605
  44.5472883  73.9040260  82.7005645  45.0775377  73.6663353  84.0984983
  36.9541507  62.9548485  86.8883606  36.9925606  62.4212076  87.6820724
  36.4481800  62.4283691  86.2694583  49.3567776  75.4537876  89.7824263
  49.9086084  75.6169497  90.5473348  49.6973970  76.0442314  89.1104288
  43.8084542  59.8736158  94.0319182  44.4356581  59.4913235  94.6456706
  42.9512461  59.6550360  94.3974875  52.4936163  73.4019851  86.7687945
  52.3687303  72.6009591  86.2598891  53.1515254  73.8966045  86.2801915
  40.7723903  64.3510483  89.1062371  40.2277371  65.1270291  89.2382645
  41.6503253  64.6981287  88.9481492  41.5589925  63.4780379  91.9992528
  40.8171661  63.6263014  92.5857158  41.2382669  63.7388645  91.1359277
  49.5254199  75.1734267  84.0278294  49.0859190  74.6810646  84.7211151
  50.2762316  74.6307235  83.7870369  42.0046538  71.3645808  84.0302922
  42.8304558  71.0649580  83.6501566  41.6540590  70.5953430  84.4792711
  46.9728072  70.7172276  86.1000596  46.3508081  70.0542981  85.8002824
  47.6432938  70.7433408  85.4174244  40.2055143  69.2832134  84.9891856
  39.3687052  68.8554309  84.8075857  40.1778789  69.4764578  85.9262647
  39.5204640  62.3441482  84.7740788  39.2007424  61.4906791  84.4815162
  38.9738068  62.5590061  85.5298755  43.2984548  65.0603923  88.4910294
  43.5170557  65.9921031  88.5098328  43.7110321  64.7011898  89.2765098
  39.3892900  65.9644394  86.7433909  38.6956371  65.5498347  86.2303864
  40.1365891  66.0064930  86.1467328  41.3029643  65.8962648  84.6199924
  41.2800331  65.9950335  83.6681807  41.6130279  66.7427798  84.9417090
  43.9617020  67.9538803  88.7346539  44.9160274  67.9222745  88.6676470
  43.7629544  67.4929426  89.5496765  44.5516403  66.5239919  91.3017336
  45.3709292  67.0183997  91.3252174  44.8253210  65.6071887  91.2734904
  42.3167249  73.4958422  85.7516737  42.1821717  72.7358823  85.1854735
  41.8999312  74.2199322  85.2845525  45.4736375  74.3927739  85.9635179
  45.3568759  75.3373172  85.8613869  44.6528821  74.0901301  86.3520978
  39.8051317  60.8578053  92.0009533  40.4510180  60.3477007  92.4896759
  39.5968468  61.5946734  92.5752959  46.4990889  75.0456001  89.1791108
  47.4018136  75.0779611  89.4957603  46.2728259  74.1156452  89.1937443
  48.2544491  73.7986988  85.8401186  47.3040122  73.7988849  85.7265559
  48.5576977  73.0519722  85.3237221  44.1448808  58.0045670  96.0984548
  45.0080269  57.6482475  96.3087872  43.5714218  57.6659565  96.7859952
  54.2038139  82.9361622  85.6689585  54.9959431  82.5952447  85.2535884
  54.4434789  83.0456597  86.5891738  56.1628893  82.1970535  78.5406964
  56.9359769  81.6499523  78.4019839  56.5154291  83.0614785  78.7521425
  53.7725113  79.3055404  85.6104150  53.9017494  79.5589883  86.5243562
  53.0922564  79.8983112  85.2908805  57.9424600  89.9752654  81.7094624
  57.8648630  90.9260479  81.7883105  57.3386244  89.6298526  82.3669551
  64.4872356  82.6596303  86.2798409  63.8581219  82.8242018  85.5774476
  64.0998018  83.0737913  87.0509373  56.9324399  81.9442193  86.4828257
  57.5025756  82.3729461  85.8445741  57.5232511  81.6624778  87.1812443
  52.7194538  76.7777417  85.6555192  51.9293592  77.0334945  85.1795303
  53.2105786  77.5925754  85.7607233  66.7358348  84.1182656  88.4060473
  67.5575792  83.7162843  88.1243155  66.7320751  84.0150890  89.3576589
  51.0032241  77.0307907  88.0870183  51.2540280  77.9154917  88.3527759
  51.5391790  76.8512509  87.3145275  53.6692366  82.8510245  81.0028089
  54.1816887  83.6453495  81.1533654  54.3215079  82.1536535  80.9361691
  55.4787251  85.9676001  83.0850842  55.6553879  86.8893966  82.8971826
  56.2744085  85.6534420  83.5145222  51.6341283  81.1798899  81.7787660
  52.4716505  81.5895907  81.5621367  51.8119551  80.2398341  81.7487853
  66.7431296  81.0740315  86.0591274  66.0854971  81.7639577  86.1471403
  67.5471695  81.4636747  86.4025260  56.4957178  73.5410961  83.3030839
  57.0700930  73.3186143  82.5704032  57.0828160  73.6099656  84.0559441
  64.7631491  86.2467186  83.1724177  65.0554465  86.8072243  82.4536542
  65.2730111  86.5395747  83.9277336  59.7265116  87.0247537  84.2617630
  59.6841295  87.2508384  83.3326162  60.6427815  86.7910912  84.4103431
  68.9297866  82.6826568  86.8758860  69.3634373  82.5901857  87.7241914
  69.6429447  82.6584068  86.2378876  57.8430917  83.9010566  84.0579592
  58.6371515  83.4060886  83.8562167  57.1322609  83.3728429  83.6947298
  61.0150344  89.5748685  79.0802966  61.1902100  89.1036728  79.8948589
  60.3283133  90.2014451  79.3084227  61.9707408  83.8521191  85.1266267
  61.6357240  83.8121961  86.0223917  61.4711353  83.1865907  84.6536678
  55.9451652  79.2588821  90.6518849  55.8071450  78.5269060  91.2530388
  56.8556575  79.1697721  90.3703036  55.5811430  92.7238048  85.8542826
  55.8208028  93.3556572  86.5321845  54.7380626  92.3726088  86.1408186
  48.2167285  80.2039809  84.6166138  48.9038325  79.8901539  84.0287154
  48.0615414  81.1081174  84.3433390  53.0202007  75.0930006  89.0451162
  52.9360196  74.4855676  88.3101572  52.1984714  75.5839024  89.0460658
  59.8829071  87.7688940  81.7687152  59.0996593  88.3110620  81.8625376
  60.5821816  88.2862920  82.1681393  62.3658349  88.7702748  83.1628780
  62.5480743  87.9524404  83.6256533  63.1891335  88.9870440  82.7253670
  53.2017607  85.7134803  88.1679162  53.7871044  84.9678490  88.3007067
  53.0042445  86.0238759  89.0515826  56.0556262  88.7486050  83.1841605
  55.3866637  89.2332178  82.7005645  55.9169132  88.9955270  84.0984983
  47.7935261  78.2840403  86.8883606  47.8319361  77.7503993  87.6820724
  47.2875554  77.7575608  86.2694583  63.3329918  88.7311769  86.7687945
  63.2081057  87.9301509  86.2598891  63.9909009  89.2257962  86.2801915
  54.9538086  75.0860501  85.9465086  54.2324672  75.6996469  85.8072559
  55.7431342  75.6218266  85.8681731  65.3964826  86.5320789  88.3967495
  64.4495162  86.4126140  88.3245822  65.7447599  85.6443287  88.4793757
  62.4011260  86.3273505  84.5971848  62.2536222  85.3990213  84.7779418
  63.2264753  86.3493596  84.1128923  66.0045381  87.1502064  85.6836720
  66.9291929  86.9444925  85.5461172  65.8360685  86.9018465  86.5926062
  57.1371995  77.1397056  86.1674709  56.9916576  77.4537359  87.0598991
  56.6597199  77.7581956  85.6145608  51.6117657  79.6802401  89.1062371
  51.0671125  80.4562208  89.2382645  52.4897007  80.0273205  88.9481492
  52.3983679  78.8072297  91.9992528  51.6565415  78.9554932  92.5857158
  52.0776424  79.0680562  91.1359277  60.3647954  90.5026185  84.0278294
  59.9252944  90.0102563  84.7211151  61.1156071  89.9599152  83.7870369
  52.8440293  86.6937726  84.0302922  53.6698313  86.3941497  83.6501566
  52.4934345  85.9245348  84.4792711  57.8121826  86.0464194  86.1000596
  57.1901835  85.3834899  85.8002824  58.4826693  86.0725326  85.4174244
  51.0448898  84.6124052  84.9891856  50.2080806  84.1846226  84.8075857
  51.0172543  84.8056495  85.9262647  57.3735333  84.5968117  79.5759056
  57.5223453  85.2803581  78.9225729  58.1801776  84.5773207  80.0908512
  50.3598395  77.6733400  84.7740788  50.0401179  76.8198708  84.4815162
  49.8131823  77.8881978  85.5298755  54.1378302  80.3895841  88.4910294
  54.3564312  81.3212949  88.5098328  54.5504076  80.0303815  89.2765098
  50.2286655  81.2936312  86.7433909  49.5350126  80.8790264  86.2303864
  50.9759646  81.3356848  86.1467328  52.1423397  81.2254565  84.6199924
  52.1194085  81.3242253  83.6681807  52.4524034  82.0719716  84.9417090
  54.8010775  83.2830720  88.7346539  55.7554028  83.2514663  88.6676470
  54.6023299  82.8221344  89.5496765  55.3910157  81.8531836  91.3017336
  56.2103046  82.3475915  91.3252174  55.6646965  80.9363805  91.2734904
  53.1561004  88.8250340  85.7516737  53.0215472  88.0650741  85.1854735
  52.7393066  89.5491240  85.2845525  56.3130130  89.7219657  85.9635179
  56.1962514  90.6665089  85.8613869  55.4922576  89.4193218  86.3520978
  59.0938246  89.1278905  85.8401186  58.1433877  89.1280767  85.7265559
  59.3970732  88.3811640  85.3237221  74.8290939  94.9639444  86.9046949
  75.4669349  94.8446191  86.2010289  74.7111782  95.9120288  86.9634901
  71.6380646  94.9166872  86.8408473  71.2999157  94.8007937  85.9529008
  72.5070414  94.5158037  86.8209480  67.4967461  96.7702348  82.8305364
  66.9332326  96.6792285  82.0621652  67.3819856  95.9502253  83.3107857
  72.1200429  96.0701724  92.7994679  72.1089069  95.6754522  91.9275183
  72.2821068  95.3367796  93.3928450  65.0431893  98.2653540  85.6689585
  65.8353185  97.9244364  85.2535884  65.2828543  98.3748515  86.5891738
  73.0767020 100.4373316  78.1419829  72.4255000 101.0227396  77.7553843
  73.8711383 100.9679511  78.2014867  67.0022647  97.5262453  78.5406964
  67.7753523  96.9791440  78.4019839  67.3548046  98.3906702  78.7521425
  68.8407690  98.8538835  91.7473863  68.5497556  99.7584466  91.6320529
  69.4764674  98.8955363  92.4617932  69.7663897  96.2315684  88.3375223
  70.3627469  96.0071706  87.6232185  69.8238868  95.4900429  88.9400670
  69.3388925  93.6855119  76.1725413  69.5914446  93.1636640  75.4108876
  68.4013484  93.5221265  76.2752097  74.3832208  92.6890898  83.9800157
  75.1695297  92.2710321  83.6290574  74.6470912  93.5936990  84.1481805
  74.5542285  98.1263748  78.6788814  73.9188118  98.1998374  79.3909718
  74.2239691  98.7157347  78.0007893  79.7840635  92.6266131  84.8833135
  80.5165807  92.0565348  85.1170965  79.0279991  92.2387731  85.3239641
  69.0585214  95.5883225  78.3749788  68.9421472  94.9128129  79.0430873
  69.1687474  95.1015599  77.5581941  71.4016755  95.0493372  82.0796478
  71.0374962  94.5223993  82.7909399  72.2583870  94.6591841  81.9062963
  71.0422242  90.0783272  77.0757826  71.2096644  90.9463508  77.4428297
  70.8519411  90.2410554  76.1519115  73.7997575  98.5400251  88.7423657
  73.4998298  99.4425290  88.6339464  73.4548634  98.2732434  89.5944809
  67.2510056  94.9914048  84.7760361  66.3260553  94.8590262  84.9838053
  67.4994469  95.7708267  85.2730303  77.1994719  91.0582791  86.4221094
  76.2911596  90.9898199  86.1279855  77.1482314  91.5354736  87.2502919
  71.0211462  92.5340929  78.0604493  70.9011088  92.9797980  78.8989973
  70.3264051  92.8826247  77.5018031  64.6118867  94.6347321  85.6104150
  64.7411248  94.8881800  86.5243562  63.9316319  95.2275029  85.2908805
  68.7818355 105.3044571  81.7094624  68.7042384 106.2552396  81.7883105
  68.1779998 104.9590444  82.3669551  71.2735584  92.4772437  94.3655991
  70.4968918  93.0366357  94.3558856  71.9126147  92.9629220  94.8870861
  79.0656365  89.2599229  88.1998968  78.4230745  89.5531763  87.5538762
  78.5611293  89.1452150  89.0052164  76.7196529  93.0062403  78.8884827
  77.6314385  93.2389789  78.7132525  76.2106176  93.5899447  78.3259906
  69.5281957  95.2857890  93.9273958  70.2696641  95.8242934  93.6508782
  68.8218942  95.9124179  94.0845510  75.0037296  97.4287030  92.5246120
  75.4120652  96.9869441  91.7800752  74.2814558  96.8539658  92.7780313
  71.3568366  92.3659637  89.8979677  72.2029561  92.7899051  90.0414326
  71.2967004  91.7093262  90.5918240  75.3266111  97.9888221  86.2798409
  74.6974973  98.1533935  85.5774476  74.9391773  98.4029831  87.0509373
  79.2055343  98.9242659  83.6342772  78.5206381  99.3041560  83.0839806
  79.2899192  99.5337986  84.3674720  74.5067812  90.0264006  91.5560850
  74.2628744  90.7806066  91.0195126  74.7827742  90.4049353  92.3908097
  76.4606274  96.5702618  90.2338116  76.6723170  97.2134378  89.5572497
  76.4136023  95.7364935  89.7660046  74.0632503  89.1820439  87.1374688
  73.2016982  89.4801692  87.4291426  74.0894938  89.3990838  86.2055721
  70.8794073  97.7262629  83.5448494  71.3432418  98.0050332  82.7553116
  70.6150871  96.8246074  83.3621584  67.7718154  97.2734111  86.4828257
  68.3419511  97.7021379  85.8445741  68.3626266  96.9916695  87.1812443
  69.8162959  93.8485782  80.3538059  70.5187002  94.3006825  80.8211985
  69.4843587  93.2069600  80.9817952  63.5588293  92.1069334  85.6555192
  62.7687347  92.3626863  85.1795303  64.0499540  92.9217672  85.7607233
  77.5752102  99.4474573  88.4060473  78.3969546  99.0454761  88.1243155
  77.5714505  99.3442808  89.3576589  65.5103038  92.4713913  82.6138669
  64.7134201  92.5832608  83.1322165  65.2828630  92.8100566  81.7479560
  71.3408706  98.9958617  90.5621184  71.4053138  99.4579024  91.3979356
  70.6319630  98.3655982  90.6903494  61.8425996  92.3599825  88.0870183
  62.0934034  93.2446835  88.3527759  62.3785544  92.1804426  87.3145275
  85.6658095  95.7913322  84.7545445  84.9121804  95.2220720  84.5989449
  85.8005637  95.7575986  85.7016079  71.0556723 100.6626724  80.4300164
  70.9202398 101.5078260  80.8585012  71.5966536 100.8646002  79.6666098
  64.5086121  98.1802162  81.0028089  65.0210641  98.9745412  81.1533654
  65.1608834  97.4828453  80.9361691  66.3181006 101.2967919  83.0850842
  66.4947634 102.2185883  82.8971826  67.1137839 100.9826338  83.5145222
  65.6033362  93.3432550  92.9613005  65.4886877  92.4417808  93.2620104
  64.7477880  93.5896247  92.6097822  72.6825200 101.2850291  94.5600506
  72.2389054 100.4986669  94.2421411  73.3442413 101.4729441  93.8944397
  67.4412321 102.8146092  89.0861185  67.9919746 102.6863156  88.3138179
  66.6023797 103.1140981  88.7356077  74.7806438 101.5653091  92.5881907
  74.7624913 102.3861972  92.0962177  75.7026358 101.4407166  92.8132049
  71.2379492  99.0797220  93.4305416  71.7707829  98.3185508  93.2004724
  70.7093573  98.7870872  94.1729570  62.4735038  96.5090817  81.7787660
  63.3110260  96.9187825  81.5621367  62.6513305  95.5690259  81.7487853
  74.3699470  94.1765897  77.4671493  73.8546093  94.9470502  77.7059880
  74.0976778  93.5031033  78.0904554  71.9546581  89.0215598  82.5256731
  71.0988177  88.6322448  82.3462370  72.3673533  89.1007559  81.6656516
  73.4845727  86.5561941  86.9248291  72.9810523  86.5192076  86.1116096
  73.7776334  87.4654684  86.9844947  69.7288613  86.6400671  85.9314472
  70.5941610  86.4443480  85.5720362  69.7966122  86.4111023  86.8583829
  79.3433744  96.9298252  79.4024666  78.5663187  96.5909411  78.9579828
  80.0225225  96.9350875  78.7279631  74.1585773  92.0492989  79.2931274
  73.8535908  92.3639138  80.1441417  75.1116215  92.1274409  79.3358607
  72.6032205  98.2083213  80.9424228  72.0753566  97.4735972  80.6297465
  72.1019707  98.9857889  80.6964196  77.5825051  96.4032233  86.0591274
  76.9248725  97.0931494  86.1471403  78.3865450  96.7928665  86.4025260
  67.3350932  88.8702879  83.3030839  67.9094684  88.6478060  82.5704032
  67.9221915  88.9391573  84.0559441  76.3930510  94.7576606  84.1095216
  76.9062391  95.3906598  84.6116926  77.0431733  94.1577801  83.7438576
  70.7484805  96.0263423  73.9459201  69.8411867  95.7952676  74.1450350
  71.2455837  95.2301042  74.1333182  73.6552884 104.7360930  76.8655887
  72.9814583 105.0392627  77.4740845  74.0418706 105.5390010  76.5161344
  72.8711340  92.2326061  86.3553556  71.9533902  92.4541008  86.1975244
  73.2871484  92.3072372  85.4965264  73.6546388  93.6317477  81.4856237
  74.4018207  94.1438874  81.1763359  73.9237978  93.3101530  82.3460630
  71.9273038  96.1276018  78.4683191  71.0184258  95.8435051  78.5655661
  71.9568122  96.5475096  77.6086498  77.1592306  99.7382607  82.2374358
  76.7054633  98.8973517  82.2939549  76.5286272 100.3744006  82.5749139
  76.1025225  90.6674593  83.4675026  75.3647982  90.1551979  83.7985268
  76.3551999  90.2274975  82.6558303  75.6025245 101.5759104  83.1724177
  75.8948219 102.1364161  82.4536542  76.1123866 101.8687665  83.9277336
  62.4961209  93.8481532  82.4498393  62.2985609  93.2550893  81.7249460
  61.9407873  93.5433742  83.1674332  70.4757932  93.7404638  84.5692986
  70.5306542  92.7878475  84.4935463  69.6649134  93.8964077  85.0534285
  71.6249126  97.6684761  75.8071269  71.1868556  96.9520620  75.3476907
  72.3659567  97.8960876  75.2456361  68.4150292  92.3581698  82.3283365
  67.6018158  92.6575869  82.7348557  68.9109287  91.9637387  83.0457847
  70.5658870 102.3539455  84.2617630  70.5235049 102.5800301  83.3326162
  71.4821569 102.1202830  84.4103431  74.0124504  92.8223523  91.1598259
  74.3673892  93.0494996  92.0192725  74.6596635  93.1541899  90.5375514
  79.7422241  95.9441958  81.8647588  79.6040140  96.1343554  80.9368777
  79.3858460  96.7061341  82.3215639  67.9064367  89.9300054  87.9444600
  68.5463746  89.7888813  87.2467563  67.0741898  89.6434567  87.5683202
  79.7691621  98.0118485  86.8758860  80.2028127  97.9193775  87.7241914
  80.4823201  97.9875986  86.2378876  68.6824671  99.2302484  84.0579592
  69.4765269  98.7352804  83.8562167  67.9716363  98.7020347  83.6947298
  73.5019515 101.6120580  88.4091960  73.5556538 102.1811516  89.1769676
  72.6334297 101.7822465  88.0445997  64.9907434  93.3745566  80.1339345
  64.0605023  93.3130021  80.3509307  65.0864906  92.8521519  79.3375986
  64.9092984  89.9000379  82.7217587  65.1699801  90.8145712  82.6126747
  65.7310156  89.4324821  82.8714200  66.3817909  91.3138136  89.8916411
  67.0540962  91.1055498  89.2429060  65.5547695  91.1160222  89.4521644
  80.6307170  98.0542186  89.4091745  80.8243060  98.9587997  89.6551020
  80.5307788  97.5949605  90.2430330  72.2843481  87.9400077  91.9082072
  71.6371396  88.6390026  91.8146549  73.0544496  88.3736221  92.2758320
  75.6922279  98.2048929  94.9832626  75.5407785  97.9759481  94.0662709
  75.6826958  99.1619530  94.9963971  72.4607615  95.7780842  89.9678892
  73.3899675  95.9292001  89.7947859  72.0398645  95.8664862  89.1127538
  71.2595947  99.8031506  87.7377430  71.1207033  99.4350290  88.6103368
  70.4710543 100.3179145  87.5661387  71.8544099 104.9040602  79.0802966
  72.0295855 104.4328646  79.8948589  71.1676887 105.5306369  79.3084227
  72.8101162  99.1813109  85.1266267  72.4750995  99.1413879  86.0223917
  72.3105108  98.5157825  84.6536678  75.7460354  96.5269143  75.4003327
  75.1289524  95.8015971  75.3036380  75.2776842  97.2878503  75.0570401
  69.4127707  94.3000698  90.1402528  70.1227325  93.6593890  90.0989147
  69.3697015  94.5513593  91.0628709  77.4014485 101.2368051  93.0609107
  77.3427032 100.5527272  92.3939690  77.8034004 101.9787041  92.6089733
  68.1256641  91.2865916  91.9598168  67.5893998  90.8356654  92.6119764
  67.5373349  91.4211825  91.2168632  66.4205184 108.0529965  85.8542826
  66.6601782 108.6848489  86.5321845  65.5774381 107.7018005  86.1408186
  77.4031893  99.2007635  91.2923087  76.5158671  98.8633557  91.4149486
  77.9730444  98.4690667  91.5291852  59.0561040  95.5331727  84.6166138
  59.7432080  95.2193457  84.0287154  58.9009169  96.4373092  84.3433390
  63.8595762  90.4221924  89.0451162  63.7753951  89.8147593  88.3101572
  63.0378468  90.9130942  89.0460658  70.9333046 103.8609088  88.2584330
  70.8603218 104.6664059  88.7703635  70.4910439 104.0601053  87.4332352
  70.7222826 103.0980858  81.7687152  69.9390348 103.6402538  81.8625376
  71.4215571 103.6154837  82.1681393  74.0319476  88.9075487  84.4121357
  74.5288175  88.1545449  84.0922427  73.2606457  88.9439804  83.8464567
  81.8849233  94.6115853  86.0539649  81.8739109  95.4940568  85.6833582
  81.0166613  94.2587404  85.8594186  73.3931730 103.7595922  90.4142489
  74.1059702 104.3943387  90.3418390  72.9021758 103.8559788  89.5982491
  75.1149257  97.6647174  81.9859781  74.1805535  97.7848637  81.8164485
  75.2925925  96.7619641  81.7219790  70.6154445  91.0492870  84.1393042
  70.2452232  90.4963911  84.8273947  71.1113537  90.4451004  83.5868042
  78.5021808  93.5064494  82.5209815  78.9682260  94.3392485  82.4470117
  78.9529308  93.0409475  83.2255073  68.4443643 101.5090365  91.2348060
  69.1453103 102.1426848  91.3877454  67.9738758 101.8505097  90.4743699
  76.5698039  99.8508315  79.5195967  76.8457883  99.7364910  80.4289841
  75.7002538  99.4525800  79.4808140  76.2444929  94.0634973  89.0600610
  75.5916379  94.3110880  88.4053063  76.6225309  93.2499111  88.7263087
  73.2052103 104.0994666  83.1628780  73.3874498 103.2816322  83.6256533
  74.0285089 104.3162358  82.7253670  73.5394269 103.0262851  80.4243829
  74.0682035 102.5155306  79.8113991  73.8022488 102.7105381  81.2889362
  72.2932502  94.8054784  95.5466647  71.6173139  94.7048913  96.2169022
  73.1160136  94.6493997  96.0102644  64.0411361 101.0426720  88.1679162
  64.6264798 100.2970408  88.3007067  63.8436200 101.3530677  89.0515826
  66.8950016 104.0777968  83.1841605  66.2260392 104.5624095  82.7005645
  66.7562886 104.3247188  84.0984983  71.0355285 106.1121711  89.7824263
  71.5873593 106.2753333  90.5473348  71.3761478 106.7026149  89.1104288
  75.8866159 100.9382969  95.6372918  76.4306063 101.5512927  95.1427872
  75.3053004 101.4962547  96.1539931  62.2637594  92.3396423  79.9637537
  62.5591035  91.4307101  79.9104591  61.3625629  92.3184162  79.6418539
  74.1723672 104.0603687  86.7687945  74.0474812 103.2593426  86.2598891
  74.8302763 104.5549880  86.2801915  65.7931841  90.4152419  85.9465086
  65.0718426  91.0288387  85.8072559  66.5825096  90.9510184  85.8681731
  76.2358581 101.8612707  88.3967495  75.2888916 101.7418058  88.3245822
  76.5841354 100.9735205  88.4793757  68.5958154  87.7506846  92.2205737
  69.1192556  87.9969142  92.9832047  68.3770487  88.5826880  91.8008875
  73.2405014 101.6565423  84.5971848  73.0929976 100.7282130  84.7779418
  74.0658508 101.6785514  84.1128923  67.1067258  90.3083490  80.4552340
  67.4463331  90.8369411  79.7330948  67.5539379  90.6463896  81.2310906
  76.8439136 102.4793982  85.6836720  77.7685683 102.2736843  85.5461172
  76.6754439 102.2310383  86.5926062  69.8010699  88.6920541  89.9055408
  69.4607519  87.8928354  90.3076088  69.0949705  88.9922252  89.3332241
  70.4527171  85.7769853  88.3582731  71.2753240  85.3030331  88.2361621
  70.6965234  86.5560337  88.8581417  69.0935405  88.8058112  78.6545633
  69.8143768  89.1839364  78.1509349  68.4700710  89.5246988  78.7580610
  73.2366528  89.5103261  79.5903965  73.4530143  90.3927898  79.2892793
  72.7560595  89.1189474  78.8609607  67.9765750  92.4688974  86.1674709
  67.8310330  92.7829277  87.0598991  67.4990953  93.0873874  85.6145608
  69.8362133  89.4591522  86.2155599  69.8223701  88.5632615  85.8787897
  70.5534561  89.4662186  86.8493885  71.6888263  89.8928862  88.2608726
  71.4306041  90.8145933  88.2593057  71.1573304  89.4959297  88.9509191
  76.6334452 102.9979649  81.0398812  76.8071330 102.4326072  80.2872664
  77.1263343 103.7980544  80.8578302  62.4511412  95.0094318  89.1062371
  61.9064880  95.7854126  89.2382645  63.3290762  95.3565123  88.9481492
  69.2399029  88.3405902  81.4843169  69.3614940  87.4122548  81.6834057
  68.9501071  88.3544588  80.5721485  72.1090219  86.0260813  84.6209889
  72.1311916  86.0900146  83.6661869  72.5258278  85.1865321  84.8150395
  82.4873843  95.7616072  82.6589112  82.9304989  95.0123397  82.2608235
  81.6100354  95.7526208  82.2762844  77.6209625 102.3146414  78.1395710
  78.3160529 102.9353106  78.3583025  77.9632775 101.4641765  78.4148088
  79.5201048  99.7646119  79.6683041  80.0452372 100.1033392  78.9432361
  79.4323400  98.8293134  79.4846176  71.1821096 103.6780193  91.7972918
  71.4908223 103.4329339  92.6695617  71.9796578 103.8826831  91.3091788
  71.2041708 105.8318102  84.0278294  70.7646699 105.3394481  84.7211151
  71.9549825 105.2891070  83.7870369  63.6834047 102.0229643  84.0302922
  64.5092067 101.7233415  83.6501566  63.3328099 101.2537266  84.4792711
  68.6515581 101.3756111  86.1000596  68.0295590 100.7126816  85.8002824
  69.3220447 101.4017243  85.4174244  61.8842652  99.9415970  84.9891856
  61.0474561  99.5138144  84.8075857  61.8566298 100.1348413  85.9262647
  79.2094954 100.3979023  94.9734239  78.4190497 100.3803162  94.4338738
  78.9728308 100.9367316  95.7283275  79.3292829  97.2471489  92.2866967
  79.3790834  97.0821497  93.2282490  79.2206752  96.3798748  91.8964848
  68.2129087  99.9260035  79.5759056  68.3617208 100.6095499  78.9225729
  69.0195531  99.9065125  80.0908512  76.6196591  93.2302417  93.6026274
  77.5206454  93.0908882  93.3110272  76.6944566  93.3956872  94.5424452
  70.9539396  90.6069272  92.4479460  70.0842706  90.9002838  92.1762049
  71.1898877  91.1909717  93.1686724  80.8311026  99.6668431  92.5308989
  80.5395834 100.0298411  93.3672450  80.2183157  98.9535439  92.3522321
  82.0306708  97.2321310  85.0511559  82.8653599  97.6711114  85.2149120
  82.1665837  96.7559964  84.2319805  79.0798214  94.7901045  90.9989047
  79.5552335  94.9828692  90.1907898  78.1563779  94.8460231  90.7532431
  65.9681720  95.9525212  80.5820125  65.7227762  95.0487542  80.7800335
  66.1377635  95.9542363  79.6399603  73.6578430  86.8248889  89.9644881
  74.1760374  87.5609916  89.6391369  73.3033563  87.1312882  90.7991640
  73.9091024  83.2449171  85.4845777  74.1892778  82.5772360  86.1106204
  74.6941631  83.4378267  84.9720441  71.7124493 102.4208165  77.0470804
  71.1398460 103.0398352  76.5941276  72.2857287 102.9707527  77.5810726
  77.7799883  91.6666805  89.2317353  78.7317306  91.7664903  89.2529577
  77.6103333  90.8745074  89.7415437  75.8014262  88.7522389  89.4176753
  75.2064194  89.0327401  88.7223242  75.5163959  89.2416289  90.1893495
  74.9321753 102.7045315  78.1779386  75.8652426 102.6390877  78.3812262
  74.8444966 103.5401582  77.7193919  77.5609769 102.0211186  75.1383334
  77.4823401 101.6871049  76.0319091  78.3819436 102.5132954  75.1374806
  80.2587961  94.8872925  88.3459652  80.2264281  93.9488926  88.5319336
  80.8688584  94.9656962  87.6125477  72.0971291  93.7568978  74.3886856
  73.0430396  93.6275186  74.4575274  71.7185536  93.0183640  74.8656284
  80.4082449  91.6783968  88.3917935  79.8921498  90.8942425  88.2047864
  81.2922398  91.3502685  88.5564455  86.0764510  95.9488932  87.4865689
  86.8067899  95.6874220  88.0473392  85.4671456  95.2117654  87.5267757
  84.1579808  94.0896794  88.0840140  83.4312971  93.9552759  87.4756632
  83.7427094  94.3973623  88.8896858  71.9809984  97.8086724  95.8487513
  72.9012993  97.9865323  96.0427560  71.9459567  96.8642769  95.6967212
  70.2814209  91.6818954  74.3241741  69.3745664  91.3852067  74.4004455
  70.5590190  91.3848772  73.4576028  61.1992149  93.0025318  84.7740788
  60.8794933  92.1490626  84.4815162  60.6525577  93.2173896  85.5298755
  64.9772057  95.7187759  88.4910294  65.1958066  96.6504867  88.5098328
  65.3897830  95.3595733  89.2765098  71.8976274  86.2255844  80.4785983
  71.0877003  85.8802929  80.8541229  72.5860691  85.9163388  81.0673594
  73.8266823  85.3033891  82.1010279  74.3797861  85.7229344  82.7600302
  74.0636909  84.3769639  82.1433235  61.0680409  96.6228229  86.7433909
  60.3743880  96.2082182  86.2303864  61.8153400  96.6648766  86.1467328
  77.2045630  87.4134416  81.6088944  76.6244299  88.0719220  81.2266996
  76.9381562  86.5911761  81.1976361  75.6549196  86.8139474  83.8110264
  76.1548974  86.9256008  83.0024583  76.2984804  86.5100527  84.4511072
  62.9817152  96.5546483  84.6199924  62.9587840  96.6534170  83.6681807
  63.2917788  97.4011634  84.9417090  65.6404529  98.6122638  88.7346539
  66.5947783  98.5806580  88.6676470  65.4417053  98.1513262  89.5496765
  66.2303912  97.1823754  91.3017336  67.0496801  97.6767833  91.3252174
  66.5040719  96.2655722  91.2734904  75.9870508  89.5734506  80.6645292
  75.0996363  89.8584157  80.4465487  76.4024497  89.4128270  79.8172569
  79.3385044  89.5981027  84.3799631  80.1145434  90.0877480  84.6524248
  78.6133178  90.0239082  84.8371501  81.7757603  90.3108647  85.4373572
  82.3702093  90.0704383  84.7266880  81.8484186  89.5915777  86.0647108
  63.9954758 104.1542258  85.7516737  63.8609226 103.3942658  85.1854735
  63.5786820 104.8783157  85.2845525  75.1313721  99.3379181  74.7593312
  75.8349571  99.5429184  75.3750967  74.4076370  99.9055943  75.0242395
  75.9611532  95.0889042  80.8795582  75.9046733  95.5457594  80.0403214
  76.5139874  94.3279727  80.7018425  79.7716337  90.8778774  81.7045702
  79.5153272  90.4775410  82.5353909  79.1469205  91.5922568  81.5795841
  84.0828675  93.6174847  84.2116993  83.5228233  93.6868037  84.9848555
  83.4772179  93.4415832  83.4916489  67.1523884 105.0511575  85.9635179
  67.0356268 105.9957007  85.8613869  66.3316330 104.7485136  86.3520978
  77.0400419  99.7761710  76.8091772  77.8746023  99.3442909  76.6269247
  76.8784762  99.6043724  77.7368666  76.6946311  96.2793824  78.1748111
  76.6395115  96.1138095  77.2336555  76.0692366  96.9869857  78.3310301
  74.0092218  98.5842735  97.5001674  74.8783378  98.7583388  97.1388309
  73.5298969  99.4037152  97.3777403  68.1778398 105.7039836  89.1791108
  69.0805645 105.7363447  89.4957603  67.9515768 104.7740287  89.1937443
  69.9332000 104.4570823  85.8401186  68.9827631 104.4572685  85.7265559
  70.2364486 103.7103558  85.3237221  73.8194556  82.3744709  82.0079366
  73.0526952  81.8203196  82.1536049  74.2305261  82.4466578  82.8693518
  85.6684694 110.2931361  86.9046949  86.3063104 110.1738109  86.2010289
  85.5505537 111.2412205  86.9634901  82.4774400 110.2458790  86.8408473
  82.1392912 110.1299854  85.9529008  83.3464168 109.8449955  86.8209480
  78.3361216 112.0994266  82.8305364  77.7726081 112.0084203  82.0621652
  78.2213611 111.2794170  83.3107857  82.9594183 111.3993641  92.7994679
  82.9482824 111.0046440  91.9275183  83.1214822 110.6659714  93.3928450
  75.8825648 113.5945458  85.6689585  76.6746940 113.2536282  85.2535884
  76.1222298 113.7040433  86.5891738  83.9160774 115.7665234  78.1419829
  83.2648754 116.3519314  77.7553843  84.7105137 116.2971429  78.2014867
  77.8416402 112.8554371  78.5406964  78.6147278 112.3083358  78.4019839
  78.1941800 113.7198620  78.7521425  79.6801444 114.1830753  91.7473863
  79.3891310 115.0876384  91.6320529  80.3158428 114.2247281  92.4617932
  80.6057651 111.5607602  88.3375223  81.2021223 111.3363624  87.6232185
  80.6632623 110.8192347  88.9400670  80.1782679 109.0147037  76.1725413
  80.4308200 108.4928558  75.4108876  79.2407238 108.8513182  76.2752097
  85.2225962 108.0182815  83.9800157  86.0089051 107.6002238  83.6290574
  85.4864667 108.9228907  84.1481805  85.3936040 113.4555666  78.6788814
  84.7581873 113.5290292  79.3909718  85.0633446 114.0449264  78.0007893
  90.6234389 107.9558048  84.8833135  91.3559561 107.3857265  85.1170965
  89.8673745 107.5679649  85.3239641  79.8978968 110.9175143  78.3749788
  79.7815226 110.2420046  79.0430873  80.0081228 110.4307517  77.5581941
  82.2410509 110.3785290  82.0796478  81.8768716 109.8515911  82.7909399
  83.0977625 109.9883759  81.9062963  88.1459810 101.6679623  89.3427744
  87.8143134 102.5375034  89.1188959  87.5505423 101.3515907  90.0221774
  81.8815996 105.4075190  77.0757826  82.0490398 106.2755426  77.4428297
  81.6913165 105.5702471  76.1519115  84.6391329 113.8692169  88.7423657
  84.3392052 114.7717207  88.6339464  84.2942389 113.6024352  89.5944809
  78.0903811 110.3205965  84.7760361  77.1654307 110.1882180  84.9838053
  78.3388224 111.1000185  85.2730303  88.0388473 106.3874709  86.4221094
  87.1305350 106.3190117  86.1279855  87.9876069 106.8646654  87.2502919
  81.8605217 107.8632847  78.0604493  81.7404842 108.3089898  78.8989973
  81.1657805 108.2118165  77.5018031  75.4512622 109.9639239  85.6104150
  75.5805003 110.2173718  86.5243562  74.7710073 110.5566947  85.2908805
  79.6212109 120.6336489  81.7094624  79.5436139 121.5844314  81.7883105
  79.0173753 120.2882361  82.3669551  82.1129339 107.8064354  94.3655991
  81.3362673 108.3658274  94.3558856  82.7519902 108.2921137  94.8870861
  89.9050119 104.5891147  88.1998968  89.2624500 104.8823680  87.5538762
  89.4005048 104.4744067  89.0052164  87.5590283 108.3354320  78.8884827
  88.4708139 108.5681707  78.7132525  87.0499930 108.9191365  78.3259906
  80.3675711 110.6149808  93.9273958  81.1090395 111.1534852  93.6508782
  79.6612697 111.2416096  94.0845510  85.8431051 112.7578948  92.5246120
  86.2514407 112.3161359  91.7800752  85.1208312 112.1831576  92.7780313
  82.1962121 107.6951555  89.8979677  83.0423316 108.1190968  90.0414326
  82.1360758 107.0385179  90.5918240  86.1659865 113.3180139  86.2798409
  85.5368728 113.4825853  85.5774476  85.7785527 113.7321748  87.0509373
  90.0449097 114.2534577  83.6342772  89.3600135 114.6333478  83.0839806
  90.1292947 114.8629903  84.3674720  85.3461566 105.3555923  91.5560850
  85.1022498 106.1097984  91.0195126  85.6221497 105.7341271  92.3908097
  87.3000029 111.8994536  90.2338116  87.5116924 112.5426296  89.5572497
  87.2529777 111.0656852  89.7660046  84.9026258 104.5112356  87.1374688
  84.0410737 104.8093610  87.4291426  84.9288693 104.7282755  86.2055721
  81.7187827 113.0554547  83.5448494  82.1826173 113.3342250  82.7553116
  81.4544625 112.1537991  83.3621584  78.6111908 112.6026028  86.4828257
  79.1813265 113.0313297  85.8445741  79.2020020 112.3208613  87.1812443
  80.6556713 109.1777699  80.3538059  81.3580757 109.6298743  80.8211985
  80.3237342 108.5361518  80.9817952  79.1037075 107.7689456  94.7289268
  78.4735735 108.4505737  94.9624665  78.9973163 107.6572537  93.7842406
  74.3982047 107.4361252  85.6555192  73.6081101 107.6918780  85.1795303
  74.8893295 108.2509590  85.7607233  88.4145857 114.7766491  88.4060473
  89.2363301 114.3746678  88.1243155  88.4108260 114.6734725  89.3576589
  76.3496793 107.8005831  82.6138669  75.5527956 107.9124525  83.1322165
  76.1222385 108.1392483  81.7479560  82.1802460 114.3250534  90.5621184
  82.2446893 114.7870942  91.3979356  81.4713384 113.6947899  90.6903494
  72.6819750 107.6891742  88.0870183  72.9327789 108.5738752  88.3527759
  73.2179299 107.5096344  87.3145275  96.5051850 111.1205240  84.7545445
  95.7515558 110.5512638  84.5989449  96.6399391 111.0867904  85.7016079
  81.8950478 115.9918642  80.4300164  81.7596153 116.8370178  80.8585012
  82.4360290 116.1937920  79.6666098  78.3817818 102.0710222  97.0914519
  77.9884763 101.5176420  97.7662163  79.1983958 102.3820800  97.4821037
  75.3479875 113.5094080  81.0028089  75.8604396 114.3037330  81.1533654
  76.0002588 112.8120370  80.9361691  77.1574760 116.6259836  83.0850842
  77.3341388 117.5477801  82.8971826  77.9531594 116.3118255  83.5145222
  81.2985779 103.4868101  94.6834776  82.0395492 104.0875254  94.6039238
  81.5303701 102.7445739  94.1252818  76.4427117 108.6724468  92.9613005
  76.3280632 107.7709725  93.2620104  75.5871634 108.9188165  92.6097822
  83.5218954 116.6142208  94.5600506  83.0782809 115.8278587  94.2421411
  84.1836168 116.8021359  93.8944397  78.2806075 118.1438010  89.0861185
  78.8313501 118.0155073  88.3138179  77.4417551 118.4432899  88.7356077
  85.6200192 116.8945008  92.5881907  85.6018668 117.7153889  92.0962177
  86.5420112 116.7699084  92.8132049  82.0773247 114.4089138  93.4305416
  82.6101583 113.6477426  93.2004724  81.5487328 114.1162790  94.1729570
  85.2442942  99.5149204  88.9599057  84.9007211 100.4050845  88.8838168
  85.6121904  99.3250861  88.0968642  73.3128792 111.8382734  81.7787660
  74.1504014 112.2479743  81.5621367  73.4907060 110.8982176  81.7487853
  85.2093224 109.5057815  77.4671493  84.6939848 110.2762419  77.7059880
  84.9370533 108.8322951  78.0904554  82.7940335 104.3507516  82.5256731
  81.9381932 103.9614366  82.3462370  83.2067287 104.4299476  81.6656516
  84.3239482 101.8853859  86.9248291  83.8204277 101.8483994  86.1116096
  84.6170089 102.7946602  86.9844947  80.5682368 101.9692589  85.9314472
  81.4335365 101.7735397  85.5720362  80.6359877 101.7402940  86.8583829
  90.1827498 112.2590169  79.4024666  89.4056941 111.9201329  78.9579828
  90.8618979 112.2642793  78.7279631  84.9979527 107.3784907  79.2931274
  84.6929663 107.6931056  80.1441417  85.9509970 107.4566327  79.3358607
  83.4425959 113.5375130  80.9424228  82.9147321 112.8027890  80.6297465
  82.9413462 114.3149807  80.6964196  88.4218805 111.7324151  86.0591274
  87.7642480 112.4223412  86.1471403  89.2259204 112.1220583  86.4025260
  78.1744687 104.1994797  83.3030839  78.7488439 103.9769978  82.5704032
  78.7615669 104.2683491  84.0559441  87.2324264 110.0868523  84.1095216
  87.7456146 110.7198515  84.6116926  87.8825488 109.4869719  83.7438576
  78.5014274 106.2299258  77.3226725  77.6651586 106.5673944  77.6435999
  78.3619044 106.0948237  76.3853861  80.4767355 101.0736045  82.0305909
  79.8231767 100.7585063  81.4062523  80.4347829 100.4511786  82.7565732
  81.5878559 111.3555341  73.9459201  80.6805621 111.1244594  74.1450350
  82.0849591 110.5592960  74.1333182  84.4946638 120.0652848  76.8655887
  83.8208337 120.3684544  77.4740845  84.8812460 120.8681928  76.5161344
  83.7105095 107.5617979  86.3553556  82.7927656 107.7832926  86.1975244
  84.1265239 107.6364289  85.4965264  84.4940143 108.9609395  81.4856237
  85.2411962 109.4730792  81.1763359  84.7631732 108.6393447  82.3460630
  82.7666793 111.4567935  78.4683191  81.8578012 111.1726968  78.5655661
  82.7961877 111.8767014  77.6086498  87.9986060 115.0674525  82.2374358
  87.5448387 114.2265435  82.2939549  87.3680027 115.7035923  82.5749139
  86.9418980 105.9966511  83.4675026  86.2041737 105.4843897  83.7985268
  87.1945753 105.5566893  82.6558303  86.4419000 116.9051022  83.1724177
  86.7341974 117.4656079  82.4536542  86.9517620 117.1979583  83.9277336
  87.0430607  98.7742763  84.0616795  87.3489484  97.9140126  83.7742710
  87.7683212  99.3660383  83.8615789  73.3354963 109.1773450  82.4498393
  73.1379363 108.5842810  81.7249460  72.7801627 108.8725660  83.1674332
  81.3151687 109.0696556  84.5692986  81.3700297 108.1170392  84.4935463
  80.5042889 109.2255995  85.0534285  82.4642881 112.9976679  75.8071269
  82.0262311 112.2812538  75.3476907  83.2053322 113.2252794  75.2456361
  79.2544047 107.6873616  82.3283365  78.4411912 107.9867786  82.7348557
  79.7503041 107.2929305  83.0457847  81.4052625 117.6831373  84.2617630
  81.3628804 117.9092219  83.3326162  82.3215324 117.4494747  84.4103431
  84.8518259 108.1515440  91.1598259  85.2067646 108.3786913  92.0192725
  85.4990390 108.4833817  90.5375514  90.5815995 111.2733876  81.8647588
  90.4433894 111.4635472  80.9368777  90.2252214 112.0353259  82.3215639
  78.7458122 105.2591971  87.9444600  79.3857501 105.1180730  87.2467563
  77.9135652 104.9726485  87.5683202  90.6085375 113.3410403  86.8758860
  91.0421882 113.2485692  87.7241914  91.3216956 113.3167904  86.2378876
  79.5218425 114.5594402  84.0579592  80.3159024 114.0644722  83.8562167
  78.8110118 114.0312265  83.6947298  84.3413270 116.9412497  88.4091960
  84.3950292 117.5103434  89.1769676  83.4728051 117.1114382  88.0445997
  75.8301189 108.7037483  80.1339345  74.8998777 108.6421939  80.3509307
  75.9258661 108.1813436  79.3375986  75.7486738 105.2292296  82.7217587
  76.0093555 106.1437629  82.6126747  76.5703910 104.7616739  82.8714200
  77.2211663 106.6430053  89.8916411  77.8934717 106.4347416  89.2429060
  76.3941450 106.4452139  89.4521644  91.4700925 113.3834104  89.4091745
  91.6636815 114.2879914  89.6551020  91.3701543 112.9241523  90.2430330
  83.1237235 103.2691994  91.9082072  82.4765150 103.9681944  91.8146549
  83.8938251 103.7028138  92.2758320  86.5316033 113.5340847  94.9832626
  86.3801540 113.3051398  94.0662709  86.5220713 114.4911448  94.9963971
  83.3001370 111.1072759  89.9678892  84.2293430 111.2583919  89.7947859
  82.8792400 111.1956780  89.1127538  82.0989701 115.1323424  87.7377430
  81.9600787 114.7642208  88.6103368  81.3104298 115.6471063  87.5661387
  82.6937853 120.2332520  79.0802966  82.8689609 119.7620563  79.8948589
  82.0070641 120.8598286  79.3084227  83.6494917 114.5105026  85.1266267
  83.3144749 114.4705796  86.0223917  83.1498862 113.8449742  84.6536678
  77.6239161 109.9172656  90.6518849  77.4858959 109.1852895  91.2530388
  78.5344084 109.8281556  90.3703036  86.5854108 111.8561061  75.4003327
  85.9683279 111.1307889  75.3036380  86.1170597 112.6170421  75.0570401
  80.2521461 109.6292616  90.1402528  80.9621080 108.9885808  90.0989147
  80.2090769 109.8805511  91.0628709  88.2408240 116.5659969  93.0609107
  88.1820786 115.8819189  92.3939690  88.6427758 117.3078959  92.6089733
  78.9650395 106.6157834  91.9598168  78.4287752 106.1648572  92.6119764
  78.3767104 106.7503742  91.2168632  77.2598939 123.3821883  85.8542826
  77.4995537 124.0140407  86.5321845  76.4168135 123.0309923  86.1408186
  78.3752654 106.0746485  74.5224631  77.4982121 105.9535286  74.1586878
  78.8510407 105.2832563  74.2703520  88.2425647 114.5299553  91.2923087
  87.3552426 114.1925475  91.4149486  88.8124198 113.7982584  91.5291852
  69.8954794 110.8623645  84.6166138  70.5825834 110.5485375  84.0287154
  69.7402923 111.7665009  84.3433390  74.6989516 105.7513841  89.0451162
  74.6147705 105.1439511  88.3101572  73.8772223 106.2422860  89.0460658
  81.7726801 119.1901005  88.2584330  81.6996972 119.9955977  88.7703635
  81.3304194 119.3892971  87.4332352  81.5616580 118.4272775  81.7687152
  80.7784102 118.9694456  81.8625376  82.2609325 118.9446755  82.1681393
  84.8713230 104.2367405  84.4121357  85.3681930 103.4837367  84.0922427
  84.1000212 104.2731721  83.8464567  92.7242988 109.9407770  86.0539649
  92.7132864 110.8232486  85.6833582  91.8560367 109.5879321  85.8594186
  84.2325484 119.0887839  90.4142489  84.9453456 119.7235304  90.3418390
  83.7415513 119.1851705  89.5982491  85.9543011 112.9939092  81.9859781
  85.0199290 113.1140555  81.8164485  86.1319679 112.0911559  81.7219790
  81.4548199 106.3784788  84.1393042  81.0845987 105.8255828  84.8273947
  81.9507292 105.7742921  83.5868042  89.3415562 108.8356411  82.5209815
  89.8076015 109.6684403  82.4470117  89.7923063 108.3701393  83.2255073
  79.2837398 116.8382283  91.2348060  79.9846857 117.4718766  91.3877454
  78.8132513 117.1797014  90.4743699  87.4091793 115.1800233  79.5195967
  87.6851637 115.0656827  80.4289841  86.5396292 114.7817717  79.4808140
  87.3132225 101.2036998  86.5600716  86.3995305 101.4341225  86.7282923
  87.7425327 101.2875442  87.4114748  87.0838684 109.3926890  89.0600610
  86.4310134 109.6402798  88.4053063  87.4619064 108.5791028  88.7263087
  84.0445858 119.4286583  83.1628780  84.2268252 118.6108239  83.6256533
  84.8678844 119.6454276  82.7253670  84.3788023 118.3554769  80.4243829
  84.9075789 117.8447223  79.8113991  84.6416243 118.0397299  81.2889362
  83.1326257 110.1346701  95.5466647  82.4566894 110.0340831  96.2169022
  83.9553891 109.9785915  96.0102644  74.8805116 116.3718638  88.1679162
  75.4658553 115.6262326  88.3007067  74.6829954 116.6822595  89.0515826
  77.7343771 119.4069885  83.1841605  77.0654146 119.8916013  82.7005645
  77.5956641 119.6539106  84.0984983  69.4722770 108.9424238  86.8883606
  69.5106870 108.4087829  87.6820724  68.9663063 108.4159444  86.2694583
  81.8749040 121.4413629  89.7824263  82.4267348 121.6045250  90.5473348
  82.2155233 122.0318067  89.1104288  76.8513533 103.7888779  90.3846148
  76.9154859 104.6503610  89.9723546  76.7880653 103.1762780  89.6518506
  76.3265805 105.8611911  94.0319182  76.9537844 105.4788988  94.6456706
  75.4693724 105.6426113  94.3974875  86.7259914 116.2674886  95.6372918
  87.2699818 116.8804845  95.1427872  86.1446759 116.8254465  96.1539931
  73.1031348 107.6688340  79.9637537  73.3984789 106.7599019  79.9104591
  72.2019384 107.6476080  79.6418539  85.0117427 119.3895604  86.7687945
  84.8868566 118.5885344  86.2598891  85.6696518 119.8841798  86.2801915
  76.6325595 105.7444337  85.9465086  75.9112181 106.3580305  85.8072559
  77.4218851 106.2802102  85.8681731  87.0752335 117.1904624  88.3967495
  86.1282671 117.0709976  88.3245822  87.4235108 116.3027122  88.4793757
  79.4351909 103.0798763  92.2205737  79.9586310 103.3261060  92.9832047
  79.2164242 103.9118798  91.8008875  74.8319190 105.3502438  80.0876862
  74.5031896 104.4699817  79.9051968  75.1858560 105.2950107  80.9753251
  84.0798768 116.9857341  84.5971848  83.9323731 116.0574048  84.7779418
  84.9052262 117.0077431  84.1128923  77.9461013 105.6375408  80.4552340
  78.2857085 106.1661329  79.7330948  78.3933133 105.9755814  81.2310906
  87.6832890 117.8085899  85.6836720  88.6079438 117.6028761  85.5461172
  87.5148194 117.5602301  86.5926062  80.6404454 104.0212458  89.9055408
  80.3001274 103.2220271  90.3076088  79.9343460 104.3214169  89.3332241
  81.2920925 101.1061771  88.3582731  82.1146995 100.6322249  88.2361621
  81.5358989 101.8852255  88.8581417  79.9329160 104.1350029  78.6545633
  80.6537522 104.5131282  78.1509349  79.3094464 104.8538906  78.7580610
  84.0760283 104.8395178  79.5903965  84.2923897 105.7219816  79.2892793
  83.5954350 104.4481392  78.8609607  78.8159504 107.7980891  86.1674709
  78.6704085 108.1121195  87.0598991  78.3384708 108.4165792  85.6145608
  80.6755887 104.7883439  86.2155599  80.6617456 103.8924533  85.8787897
  81.3928315 104.7954103  86.8493885  82.5282018 105.2220780  88.2608726
  82.2699796 106.1437850  88.2593057  81.9967058 104.8251214  88.9509191
  87.4728207 118.3271567  81.0398812  87.6465084 117.7617989  80.2872664
  87.9657098 119.1272462  80.8578302  73.2905166 110.3386236  89.1062371
  72.7458634 111.1146044  89.2382645  74.1684516 110.6857040  88.9481492
  80.0792783 103.6697820  81.4843169  80.2008694 102.7414466  81.6834057
  79.7894825 103.6836506  80.5721485  82.9483973 101.3552730  84.6209889
  82.9705670 101.4192063  83.6661869  83.3652032 100.5157239  84.8150395
  93.3267598 111.0907990  82.6589112  93.7698744 110.3415315  82.2608235
  92.4494108 111.0818126  82.2762844  88.4603379 117.6438331  78.1395710
  89.1554284 118.2645024  78.3583025  88.8026529 116.7933682  78.4148088
  74.0771188 109.4656132  91.9992528  73.3352924 109.6138768  92.5857158
  73.7563932 109.7264398  91.1359277  90.3594802 115.0938037  79.6683041
  90.8846126 115.4325310  78.9432361  90.2717155 114.1585052  79.4846176
  82.0214851 119.0072110  91.7972918  82.3301977 118.7621257  92.6695617
  82.8190333 119.2118749  91.3091788  82.0435463 121.1610020  84.0278294
  81.6040453 120.6686399  84.7211151  82.7943580 120.6182988  83.7870369
  74.5227802 117.3521561  84.0302922  75.3485822 117.0525333  83.6501566
  74.1721854 116.5829183  84.4792711  79.4909335 116.7048029  86.1000596
  78.8689344 116.0418734  85.8002824  80.1614202 116.7309161  85.4174244
  72.7236407 115.2707887  84.9891856  71.8868315 114.8430062  84.8075857
  72.6960052 115.4640331  85.9262647  79.5633863 105.1829817  95.6933102
  79.6122018 106.0591940  95.3110871  80.1056377 104.6407210  95.1204745
  90.0488708 115.7270940  94.9734239  89.2584252 115.7095079  94.4338738
  89.8122063 116.2659234  95.7283275  90.1686583 112.5763407  92.2866967
  90.2184588 112.4113414  93.2282490  90.0600507 111.7090666  91.8964848
  79.0522842 115.2551952  79.5759056  79.2010962 115.9387417  78.9225729
  79.8589285 115.2357043  80.0908512  87.4590346 108.5594335  93.6026274
  88.3600208 108.4200800  93.3110272  87.5338320 108.7248790  94.5424452
  81.7933151 105.9361190  92.4479460  80.9236460 106.2294756  92.1762049
  82.0292631 106.5201635  93.1686724  91.6704780 114.9960348  92.5308989
  91.3789588 115.3590329  93.3672450  91.0576911 114.2827357  92.3522321
  92.8700462 112.5613228  85.0511559  93.7047354 113.0003032  85.2149120
  93.0059591 112.0851881  84.2319805  89.9191968 110.1192963  90.9989047
  90.3946090 110.3120609  90.1907898  88.9957534 110.1752149  90.7532431
  76.8075475 111.2817130  80.5820125  76.5621517 110.3779460  80.7800335
  76.9771389 111.2834281  79.6399603  84.4972185 102.1540806  89.9644881
  85.0154129 102.8901833  89.6391369  84.1427318 102.4604800  90.7991640
  76.0771122 107.0145488  78.0806287  75.3840367 107.0889843  77.4246323
  75.8322874 106.2505831  78.6027804  84.7484779  98.5741089  85.4845777
  85.0286533  97.9064278  86.1106204  85.5335386  98.7670185  84.9720441
  82.5518247 117.7500083  77.0470804  81.9792215 118.3690270  76.5941276
  83.1251041 118.2999445  77.5810726  88.6193637 106.9958723  89.2317353
  89.5711060 107.0956821  89.2529577  88.4497088 106.2036992  89.7415437
  86.6408017 104.0814306  89.4176753  86.0457949 104.3619319  88.7223242
  86.3557714 104.5708207  90.1893495  85.7715507 118.0337233  78.1779386
  86.7046180 117.9682795  78.3812262  85.6838720 118.8693500  77.7193919
  88.4003524 117.3503103  75.1383334  88.3217155 117.0162967  76.0319091
  89.2213191 117.8424871  75.1374806  91.0981715 110.2164843  88.3459652
  91.0658035 109.2780843  88.5319336  91.7082339 110.2948879  87.6125477
  82.9365046 109.0860896  74.3886856  83.8824151 108.9567104  74.4575274
  82.5579291 108.3475558  74.8656284  91.2476204 107.0075886  88.3917935
  90.7315252 106.2234343  88.2047864  92.1316152 106.6794603  88.5564455
  88.9086931 100.7516902  84.3513748  88.7111752 100.4431990  85.2357080
  89.5186636 101.4778541  84.4811678  96.9158265 111.2780850  87.4865689
  97.6461653 111.0166138  88.0473392  96.3065210 110.5409571  87.5267757
  94.9973562 109.4188712  88.0840140  94.2706726 109.2844677  87.4756632
  94.5820849 109.7265541  88.8896858  82.8203739 113.1378642  95.8487513
  83.7406748 113.3157241  96.0427560  82.7853322 112.1934687  95.6967212
  81.1207963 107.0110872  74.3241741  80.2139419 106.7143985  74.4004455
  81.3983944 106.7140690  73.4576028  72.0385904 108.3317235  84.7740788
  71.7188688 107.4782544  84.4815162  71.4919332 108.5465814  85.5298755
  75.8165811 111.0479676  88.4910294  76.0351821 111.9796784  88.5098328
  76.2291585 110.6887651  89.2765098  82.7370029 101.5547762  80.4785983
  81.9270757 101.2094847  80.8541229  83.4254446 101.2455305  81.0673594
  84.6660577 100.6325809  82.1010279  85.2191616 101.0521262  82.7600302
  84.9030664  99.7061557  82.1433235  80.6893676 106.6212882  97.8813043
  80.5890403 107.5707239  97.8125134  80.4715218 106.2931121  97.0089113
  79.8906748 103.8697807  74.4653721  80.7525912 104.1952706  74.7249538
  80.0757092 103.0829303  73.9526786  71.9074164 111.9520147  86.7433909
  71.2137635 111.5374100  86.2303864  72.6547155 111.9940683  86.1467328
  88.0439384 102.7426334  81.6088944  87.4638053 103.4011138  81.2266996
  87.7775317 101.9203678  81.1976361  86.4942951 102.1431391  83.8110264
  86.9942729 102.2547926  83.0024583  87.1378559 101.8392444  84.4511072
  80.5524946 110.0510021  96.6978105  80.0692028 110.8510381  96.9041994
  80.6385885 110.0617966  95.7445549  73.8210906 111.8838401  84.6199924
  73.7981594 111.9826088  83.6681807  74.1311543 112.7303552  84.9417090
  76.4798284 113.9414556  88.7346539  77.4341537 113.9098498  88.6676470
  76.2810808 113.4805179  89.5496765  77.0697666 112.5115672  91.3017336
  77.8890555 113.0059750  91.3252174  77.3434474 111.5947640  91.2734904
  86.8264262 104.9026424  80.6645292  85.9390117 105.1876075  80.4465487
  87.2418251 104.7420187  79.8172569  90.1778798 104.9272945  84.3799631
  90.9539189 105.4169398  84.6524248  89.4526933 105.3530999  84.8371501
  92.6151357 105.6400564  85.4373572  93.2095848 105.3996300  84.7266880
  92.6877941 104.9207695  86.0647108  74.8348513 119.4834175  85.7516737
  74.7002981 118.7234576  85.1854735  74.4180575 120.2075075  85.2845525
  85.9707476 114.6671099  74.7593312  86.6743326 114.8721101  75.3750967
  85.2470124 115.2347861  75.0242395  86.8005286 110.4180960  80.8795582
  86.7440487 110.8749511  80.0403214  87.3533628 109.6571645  80.7018425
  90.6110092 106.2070692  81.7045702  90.3547026 105.8067328  82.5353909
  89.9862960 106.9214486  81.5795841  94.9222430 108.9466765  84.2116993
  94.3621988 109.0159954  84.9848555  94.3165933 108.7707750  83.4916489
  77.9917639 120.3803492  85.9635179  77.8750023 121.3248925  85.8613869
  77.1710085 120.0777054  86.3520978  87.8794173 115.1053628  76.8091772
  88.7139777 114.6734826  76.6269247  87.7178516 114.9335642  77.7368666
  87.5340065 111.6085741  78.1748111  87.4788869 111.4430013  77.2336555
  86.9086121 112.3161774  78.3310301  72.3232580 106.8453806  92.0009533
  72.9691444 106.3352760  92.4896759  72.1149731 107.5822487  92.5752959
  84.8485972 113.9134653  97.5001674  85.7177132 114.0875305  97.1388309
  84.3692724 114.7329070  97.3777403  80.8436191 101.1093850  77.7533430
  80.8314861 102.0535690  77.9101700  81.7359613 100.9263996  77.4592891
  79.0172153 121.0331754  89.1791108  79.9199399 121.0655364  89.4957603
  78.7909523 120.1032205  89.1937443  80.7725755 119.7862741  85.8401186
  79.8221386 119.7864602  85.7265559  81.0758241 119.0395475  85.3237221
  84.6588310  97.7036627  82.0079366  83.8920706  97.1495114  82.1536049
  85.0699015  97.7758496  82.8693518  76.6630071 103.9921423  96.0984548
  77.5261533 103.6358228  96.3087872  76.0895482 103.6535318  96.7859952
  96.5078448 125.6223279  86.9046949  97.1456858 125.5030026  86.2010289
  96.3899291 126.5704123  86.9634901  93.3168155 125.5750707  86.8408473
  92.9786666 125.4591772  85.9529008  94.1857923 125.1741872  86.8209480
  89.1754970 127.4286184  82.8305364  88.6119835 127.3376121  82.0621652
  89.0607365 126.6086088  83.3107857  93.7987937 126.7285559  92.7994679
  93.7876578 126.3338357  91.9275183  93.9608577 125.9951632  93.3928450
  86.7219402 128.9237375  85.6689585  87.5140694 128.5828200  85.2535884
  86.9616052 129.0332350  86.5891738  94.7554529 131.0957151  78.1419829
  94.1042509 131.6811232  77.7553843  95.5498892 131.6263346  78.2014867
  88.6810156 128.1846288  78.5406964  89.4541032 127.6375276  78.4019839
  89.0335555 129.0490538  78.7521425  90.5195199 129.5122671  91.7473863
  90.2285065 130.4168302  91.6320529  91.1552183 129.5539198  92.4617932
  91.4451405 126.8899519  88.3375223  92.0414978 126.6655542  87.6232185
  91.5026377 126.1484265  88.9400670  91.0176434 124.3438955  76.1725413
  91.2701955 123.8220476  75.4108876  90.0800993 124.1805100  76.2752097
  96.0619717 123.3474733  83.9800157  96.8482806 122.9294156  83.6290574
  96.3258421 124.2520825  84.1481805  96.2329794 128.7847583  78.6788814
  95.5975627 128.8582210  79.3909718  95.9027200 129.3741182  78.0007893
 101.4628144 123.2849966  84.8833135 102.1953316 122.7149183  85.1170965
 100.7067500 122.8971567  85.3239641  90.7372723 126.2467061  78.3749788
  90.6208981 125.5711964  79.0430873  90.8474983 125.7599434  77.5581941
  93.0804264 125.7077208  82.0796478  92.7162471 125.1807829  82.7909399
  93.9371379 125.3175677  81.9062963  98.9853564 116.9971540  89.3427744
  98.6536889 117.8666951  89.1188959  98.3899178 116.6807824  90.0221774
  92.7209751 120.7367107  77.0757826  92.8884153 121.6047344  77.4428297
  92.5306920 120.8994389  76.1519115  95.4785084 129.1984086  88.7423657
  95.1785807 130.1009125  88.6339464  95.1336143 128.9316269  89.5944809
  88.9297565 125.6497883  84.7760361  88.0048062 125.5174097  84.9838053
  89.1781978 126.4292102  85.2730303  98.8782228 121.7166626  86.4221094
  97.9699105 121.6482035  86.1279855  98.8269823 122.1938571  87.2502919
  92.6998971 123.1924765  78.0604493  92.5798597 123.6381816  78.8989973
  92.0051560 123.5410083  77.5018031  86.2906376 125.2931157  85.6104150
  86.4198757 125.5465636  86.5243562  85.6103828 125.8858865  85.2908805
  90.4605864 135.9628407  81.7094624  90.3829893 136.9136232  81.7883105
  89.8567507 135.6174279  82.3669551  92.9523093 123.1356272  94.3655991
  92.1756427 123.6950192  94.3558856  93.5913656 123.6213055  94.8870861
 100.7443874 119.9183065  88.1998968 100.1018254 120.2115598  87.5538762
 100.2398802 119.8035985  89.0052164  98.3984038 123.6646238  78.8884827
  99.3101894 123.8973625  78.7132525  97.8893685 124.2483282  78.3259906
  91.2069466 125.9441725  93.9273958  91.9484150 126.4826769  93.6508782
  90.5006451 126.5708014  94.0845510  96.6824805 128.0870866  92.5246120
  97.0908161 127.6453276  91.7800752  95.9602067 127.5123493  92.7780313
  93.0355875 123.0243473  89.8979677  93.8817070 123.4482886  90.0414326
  92.9754513 122.3677097  90.5918240  97.0053620 128.6472056  86.2798409
  96.3762482 128.8117771  85.5774476  96.6179282 129.0613666  87.0509373
 100.8842852 129.5826494  83.6342772 100.1993890 129.9625396  83.0839806
 100.9686701 130.1921821  84.3674720  96.1855321 120.6847841  91.5560850
  95.9416252 121.4389901  91.0195126  96.4615251 121.0633189  92.3908097
  98.1393783 127.2286453  90.2338116  98.3510679 127.8718213  89.5572497
  98.0923532 126.3948770  89.7660046  95.7420012 119.8404274  87.1374688
  94.8804491 120.1385528  87.4291426  95.7682447 120.0574673  86.2055721
  92.5581582 128.3846465  83.5448494  93.0219927 128.6634168  82.7553116
  92.2938380 127.4829909  83.3621584  89.4505663 127.9317946  86.4828257
  90.0207020 128.3605214  85.8445741  90.0413775 127.6500531  87.1812443
  91.4950468 124.5069617  80.3538059  92.1974511 124.9590661  80.8211985
  91.1631096 123.8653436  80.9817952  89.9430829 123.0981374  94.7289268
  89.3129490 123.7797654  94.9624665  89.8366917 122.9864455  93.7842406
  85.2375802 122.7653170  85.6555192  84.4474856 123.0210698  85.1795303
  85.7287049 123.5801507  85.7607233  99.2539611 130.1058409  88.4060473
 100.0757055 129.7038596  88.1243155  99.2502014 130.0026643  89.3576589
  87.1890547 123.1297749  82.6138669  86.3921710 123.2416443  83.1322165
  86.9616139 123.4684401  81.7479560  93.0196215 129.6542452  90.5621184
  93.0840647 130.1162859  91.3979356  92.3107139 129.0239817  90.6903494
  83.5213505 123.0183660  88.0870183  83.7721543 123.9030670  88.3527759
  84.0573053 122.8388262  87.3145275 107.3445604 126.4497157  84.7545445
 106.5909313 125.8804555  84.5989449 107.4793146 126.4159822  85.7016079
  92.7344232 131.3210560  80.4300164  92.5989907 132.1662095  80.8585012
  93.2754045 131.5229837  79.6666098  89.2211572 117.4002139  97.0914519
  88.8278518 116.8468338  97.7662163  90.0377712 117.7112718  97.4821037
  86.1873630 128.8385998  81.0028089  86.6998150 129.6329248  81.1533654
  86.8396343 128.1412288  80.9361691  87.9968515 131.9551754  83.0850842
  88.1735143 132.8769719  82.8971826  88.7925348 131.6410173  83.5145222
  92.1379533 118.8160018  94.6834776  92.8789246 119.4167172  94.6039238
  92.3697456 118.0737656  94.1252818  87.2820871 124.0016386  92.9613005
  87.1674386 123.1001643  93.2620104  86.4265389 124.2480083  92.6097822
  94.3612709 131.9434126  94.5600506  93.9176563 131.1570505  94.2421411
  95.0229922 132.1313277  93.8944397  89.1199830 133.4729928  89.0861185
  89.6707255 133.3446991  88.3138179  88.2811306 133.7724817  88.7356077
  96.4593947 132.2236926  92.5881907  96.4412422 133.0445807  92.0962177
  97.3813867 132.0991001  92.8132049  92.9167001 129.7381055  93.4305416
  93.4495338 128.9769344  93.2004724  92.3881082 129.4454707  94.1729570
  96.0836696 114.8441121  88.9599057  95.7400965 115.7342763  88.8838168
  96.4515659 114.6542779  88.0968642  84.1522547 127.1674652  81.7787660
  84.9897769 127.5771660  81.5621367  84.3300814 126.2274094  81.7487853
  96.0486979 124.8349733  77.4671493  95.5333602 125.6054337  77.7059880
  95.7764287 124.1614869  78.0904554  93.6334090 119.6799433  82.5256731
  92.7775686 119.2906284  82.3462370  94.0461042 119.7591394  81.6656516
  95.1633236 117.2145777  86.9248291  94.6598032 117.1775912  86.1116096
  95.4563843 118.1238519  86.9844947  91.4076122 117.2984506  85.9314472
  92.2729119 117.1027315  85.5720362  91.4753631 117.0694858  86.8583829
 101.0221253 127.5882087  79.4024666 100.2450696 127.2493247  78.9579828
 101.7012734 127.5934710  78.7279631  95.8373282 122.7076825  79.2931274
  95.5323417 123.0222974  80.1441417  96.7903724 122.7858245  79.3358607
  94.2819714 128.8667048  80.9424228  93.7541075 128.1319808  80.6297465
  93.7807216 129.6441724  80.6964196  99.2612560 127.0616068  86.0591274
  98.6036234 127.7515330  86.1471403 100.0652959 127.4512500  86.4025260
  89.0138441 119.5286714  83.3030839  89.5882193 119.3061896  82.5704032
  89.6009424 119.5975409  84.0559441  98.0718019 125.4160441  84.1095216
  98.5849900 126.0490433  84.6116926  98.7219242 124.8161637  83.7438576
  89.3408028 121.5591175  77.3226725  88.5045341 121.8965862  77.6435999
  89.2012798 121.4240155  76.3853861  91.3161109 116.4027963  82.0305909
  90.6625521 116.0876980  81.4062523  91.2741583 115.7803704  82.7565732
  92.4272314 126.6847258  73.9459201  91.5199376 126.4536512  74.1450350
  92.9243346 125.8884877  74.1333182  95.3340393 135.3944765  76.8655887
  94.6602092 135.6976462  77.4740845  95.7206215 136.1973846  76.5161344
  94.5498849 122.8909897  86.3553556  93.6321411 123.1124844  86.1975244
  94.9658993 122.9656207  85.4965264  95.3333897 124.2901312  81.4856237
  96.0805716 124.8022710  81.1763359  95.6025487 123.9685365  82.3460630
  93.6060547 126.7859853  78.4683191  92.6971767 126.5018886  78.5655661
  93.6355631 127.2058932  77.6086498  98.8379815 130.3966443  82.2374358
  98.3842142 129.5557352  82.2939549  98.2073781 131.0327841  82.5749139
  97.7812734 121.3258429  83.4675026  97.0435491 120.8135815  83.7985268
  98.0339508 120.8858810  82.6558303  97.2812754 132.2342939  83.1724177
  97.5735728 132.7947996  82.4536542  97.7911375 132.5271500  83.9277336
  97.8824362 114.1034681  84.0616795  98.1883238 113.2432044  83.7742710
  98.6076966 114.6952301  83.8615789  84.1748718 124.5065367  82.4498393
  83.9773118 123.9134728  81.7249460  83.6195382 124.2017577  83.1674332
  92.1545441 124.3988474  84.5692986  92.2094051 123.4462310  84.4935463
  91.3436643 124.5547913  85.0534285  93.3036635 128.3268597  75.8071269
  92.8656065 127.6104456  75.3476907  94.0447076 128.5544712  75.2456361
  90.0937801 123.0165533  82.3283365  89.2805667 123.3159704  82.7348557
  90.5896796 122.6221222  83.0457847  92.2446379 133.0123290  84.2617630
  92.2022558 133.2384137  83.3326162  93.1609078 132.7786665  84.4103431
  95.6912013 123.4807358  91.1598259  96.0461401 123.7078831  92.0192725
  96.3384144 123.8125735  90.5375514 101.4209750 126.6025794  81.8647588
 101.2827649 126.7927390  80.9368777 101.0645969 127.3645177  82.3215639
  89.5851876 120.5883889  87.9444600  90.2251255 120.4472648  87.2467563
  88.7529407 120.3018402  87.5683202 101.4479130 128.6702321  86.8758860
 101.8815636 128.5777610  87.7241914 102.1610710 128.6459821  86.2378876
  90.3612180 129.8886319  84.0579592  91.1552778 129.3936639  83.8562167
  89.6503872 129.3604182  83.6947298  95.1807024 132.2704415  88.4091960
  95.2344047 132.8395351  89.1769676  94.3121806 132.4406300  88.0445997
  86.6694943 124.0329401  80.1339345  85.7392532 123.9713857  80.3509307
  86.7652415 123.5105354  79.3375986  86.5880492 120.5584214  82.7217587
  86.8487310 121.4729547  82.6126747  87.4097665 120.0908656  82.8714200
  88.0605418 121.9721971  89.8916411  88.7328471 121.7639333  89.2429060
  87.2335204 121.7744057  89.4521644 102.3094679 128.7126021  89.4091745
 102.5030569 129.6171832  89.6551020 102.2095297 128.2533441  90.2430330
  93.9630990 118.5983912  91.9082072  93.3158905 119.2973862  91.8146549
  94.7332005 119.0320056  92.2758320  97.3709788 128.8632764  94.9832626
  97.2195294 128.6343316  94.0662709  97.3614467 129.8203366  94.9963971
  94.1395124 126.4364677  89.9678892  95.0687184 126.5875837  89.7947859
  93.7186154 126.5248698  89.1127538  92.9383456 130.4615341  87.7377430
  92.7994542 130.0934126  88.6103368  92.1498052 130.9762981  87.5661387
  93.5331608 135.5624438  79.0802966  93.7083364 135.0912481  79.8948589
  92.8464396 136.1890204  79.3084227  94.4888671 129.8396944  85.1266267
  94.1538504 129.7997714  86.0223917  93.9892617 129.1741660  84.6536678
  88.4632915 125.2464574  90.6518849  88.3252713 124.5144813  91.2530388
  89.3737839 125.1573474  90.3703036  97.4247863 127.1852978  75.4003327
  96.8077033 126.4599807  75.3036380  96.9564351 127.9462339  75.0570401
  91.0915216 124.9584533  90.1402528  91.8014834 124.3177726  90.0989147
  91.0484524 125.2097428  91.0628709  99.0801994 131.8951887  93.0609107
  99.0214541 131.2111107  92.3939690  99.4821513 132.6370877  92.6089733
  89.8044150 121.9449751  91.9598168  89.2681507 121.4940490  92.6119764
  89.2160858 122.0795660  91.2168632  88.0992693 138.7113801  85.8542826
  88.3389291 139.3432325  86.5321845  87.2561890 138.3601841  86.1408186
  89.2146409 121.4038403  74.5224631  88.3375875 121.2827203  74.1586878
  89.6904162 120.6124481  74.2703520  99.0819402 129.8591471  91.2923087
  98.1946180 129.5217392  91.4149486  99.6517953 129.1274502  91.5291852
  80.7348549 126.1915562  84.6166138  81.4219589 125.8777292  84.0287154
  80.5796678 127.0956927  84.3433390  85.5383271 121.0805759  89.0451162
  85.4541460 120.4731429  88.3101572  84.7165977 121.5714777  89.0460658
  92.6120555 134.5192923  88.2584330  92.5390727 135.3247895  88.7703635
  92.1697948 134.7184889  87.4332352  92.4010335 133.7564693  81.7687152
  91.6177857 134.2986373  81.8625376  93.1003080 134.2738673  82.1681393
  95.7106985 119.5659323  84.4121357  96.2075684 118.8129285  84.0922427
  94.9393966 119.6023639  83.8464567 103.5636742 125.2699688  86.0539649
 103.5526618 126.1524403  85.6833582 102.6954122 124.9171239  85.8594186
  95.0719239 134.4179757  90.4142489  95.7847211 135.0527222  90.3418390
  94.5809267 134.5143623  89.5982491  96.7936766 128.3231010  81.9859781
  95.8593044 128.4432472  81.8164485  96.9713434 127.4203477  81.7219790
  92.2941954 121.7076706  84.1393042  91.9239741 121.1547746  84.8273947
  92.7901046 121.1034839  83.5868042 100.1809317 124.1648329  82.5209815
 100.6469769 124.9976321  82.4470117 100.6316817 123.6993311  83.2255073
  90.1231152 132.1674201  91.2348060  90.8240612 132.8010683  91.3877454
  89.6526267 132.5088932  90.4743699  98.2485548 130.5092150  79.5195967
  98.5245392 130.3948745  80.4289841  97.3790047 130.1109635  79.4808140
  98.1525980 116.5328916  86.5600716  97.2389059 116.7633143  86.7282923
  98.5819081 116.6167360  87.4114748  97.9232438 124.7218808  89.0600610
  97.2703888 124.9694715  88.4053063  98.3012818 123.9082946  88.7263087
  94.8839612 134.7578501  83.1628780  95.0662007 133.9400157  83.6256533
  95.7072598 134.9746193  82.7253670  95.2181777 133.6846686  80.4243829
  95.7469544 133.1739141  79.8113991  95.4809997 133.3689216  81.2889362
  93.9720011 125.4638619  95.5466647  93.2960648 125.3632748  96.2169022
  94.7947645 125.3077833  96.0102644  85.7198870 131.7010556  88.1679162
  86.3052307 130.9554243  88.3007067  85.5223709 132.0114512  89.0515826
  88.5737525 134.7361803  83.1841605  87.9047901 135.2207931  82.7005645
  88.4350395 134.9831023  84.0984983  80.3116525 124.2716156  86.8883606
  80.3500624 123.7379746  87.6820724  79.8056818 123.7451361  86.2694583
  92.7142794 136.7705546  89.7824263  93.2661102 136.9337168  90.5473348
  93.0548987 137.3609984  89.1104288  87.6907287 119.1180696  90.3846148
  87.7548614 119.9795527  89.9723546  87.6274407 118.5054698  89.6518506
  87.1659560 121.1903829  94.0319182  87.7931599 120.8080906  94.6456706
  86.3087479 120.9718031  94.3974875  97.5653668 131.5966804  95.6372918
  98.1093572 132.2096762  95.1427872  96.9840513 132.1546382  96.1539931
  83.9425103 122.9980258  79.9637537  84.2378544 122.0890936  79.9104591
  83.0413138 122.9767997  79.6418539  95.8511181 134.7187522  86.7687945
  95.7262321 133.9177262  86.2598891  96.5090272 135.2133715  86.2801915
  87.4719350 121.0736254  85.9465086  86.7505935 121.6872222  85.8072559
  88.2612605 121.6094019  85.8681731  97.9146090 132.5196542  88.3967495
  96.9676425 132.4001893  88.3245822  98.2628863 131.6319040  88.4793757
  90.2745663 118.4090681  92.2205737  90.7980065 118.6552978  92.9832047
  90.0557996 119.2410716  91.8008875  85.6712944 120.6794356  80.0876862
  85.3425650 119.7991735  79.9051968  86.0252315 120.6242024  80.9753251
  94.9192523 132.3149258  84.5971848  94.7717485 131.3865966  84.7779418
  95.7446016 132.3369349  84.1128923  88.7854767 120.9667325  80.4552340
  89.1250840 121.4953247  79.7330948  89.2326888 121.3047732  81.2310906
  98.5226645 133.1377817  85.6836720  99.4473192 132.9320678  85.5461172
  98.3541948 132.8894218  86.5926062  91.4798208 119.3504376  89.9055408
  91.1395028 118.5512189  90.3076088  90.7737214 119.6506087  89.3332241
  92.1314680 116.4353689  88.3582731  92.9540749 115.9614167  88.2361621
  92.3752743 117.2144172  88.8581417  90.7722914 119.4641947  78.6545633
  91.4931277 119.8423200  78.1509349  90.1488219 120.1830824  78.7580610
  94.9154037 120.1687096  79.5903965  95.1317652 121.0511734  79.2892793
  94.4348104 119.7773309  78.8609607  89.6553259 123.1272809  86.1674709
  89.5097839 123.4413112  87.0598991  89.1778462 123.7457710  85.6145608
  91.5149642 120.1175357  86.2155599  91.5011210 119.2216450  85.8787897
  92.2322070 120.1246021  86.8493885  93.3675772 120.5512697  88.2608726
  93.1093550 121.4729768  88.2593057  92.8360813 120.1543132  88.9509191
  98.3121961 133.6563484  81.0398812  98.4858839 133.0909907  80.2872664
  98.8050852 134.4564379  80.8578302  84.1298921 125.6678154  89.1062371
  83.5852389 126.4437962  89.2382645  85.0078271 126.0148958  88.9481492
  90.9186537 118.9989737  81.4843169  91.0402449 118.0706384  81.6834057
  90.6288580 119.0128423  80.5721485  93.7877728 116.6844648  84.6209889
  93.8099425 116.7483981  83.6661869  94.2045787 115.8449157  84.8150395
 104.1661352 126.4199907  82.6589112 104.6092498 125.6707233  82.2608235
 103.2887862 126.4110044  82.2762844  99.2997134 132.9730249  78.1395710
  99.9948038 133.5936942  78.3583025  99.6420284 132.1225600  78.4148088
  84.9164943 124.7948050  91.9992528  84.1746679 124.9430685  92.5857158
  84.5957687 125.0556315  91.1359277 101.1988557 130.4229954  79.6683041
 101.7239881 130.7617227  78.9432361 101.1110909 129.4876970  79.4846176
  92.8608605 134.3364028  91.7972918  93.1695732 134.0913175  92.6695617
  93.6584087 134.5410667  91.3091788  92.8829217 136.4901938  84.0278294
  92.4434208 135.9978316  84.7211151  93.6337334 135.9474905  83.7870369
  85.3621556 132.6813479  84.0302922  86.1879576 132.3817250  83.6501566
  85.0115608 131.9121101  84.4792711  90.3303090 132.0339947  86.1000596
  89.7083099 131.3710652  85.8002824  91.0007956 132.0601079  85.4174244
  83.5630161 130.5999805  84.9891856  82.7262070 130.1721979  84.8075857
  83.5353807 130.7932248  85.9262647  90.4027617 120.5121735  95.6933102
  90.4515772 121.3883858  95.3110871  90.9450131 119.9699128  95.1204745
 100.8882463 131.0562858  94.9734239 100.0978006 131.0386997  94.4338738
 100.6515817 131.5951152  95.7283275 101.0080338 127.9055324  92.2866967
 101.0578343 127.7405332  93.2282490 100.8994261 127.0382583  91.8964848
  89.8916596 130.5843870  79.5759056  90.0404717 131.2679335  78.9225729
  90.6983040 130.5648960  80.0908512  98.2984100 123.8886252  93.6026274
  99.1993963 123.7492717  93.3110272  98.3732075 124.0540707  94.5424452
  92.6326905 121.2653107  92.4479460  91.7630215 121.5586673  92.1762049
  92.8686386 121.8493552  93.1686724 102.5098535 130.3252266  92.5308989
 102.2183343 130.6882246  93.3672450 101.8970666 129.6119274  92.3522321
 103.7094217 127.8905146  85.0511559 104.5441108 128.3294950  85.2149120
 103.8453346 127.4143799  84.2319805 100.7585723 125.4484881  90.9989047
 101.2339844 125.6412527  90.1907898  99.8351288 125.5044066  90.7532431
  87.6469229 126.6109048  80.5820125  87.4015271 125.7071378  80.7800335
  87.8165144 126.6126198  79.6399603  95.3365939 117.4832724  89.9644881
  95.8547883 118.2193751  89.6391369  94.9821072 117.7896717  90.7991640
  86.9164877 122.3437405  78.0806287  86.2234122 122.4181760  77.4246323
  86.6716629 121.5797749  78.6027804  95.5878533 113.9033007  85.4845777
  95.8680287 113.2356196  86.1106204  96.3729140 114.0962102  84.9720441
  93.3912002 133.0792001  77.0470804  92.8185969 133.6982188  76.5941276
  93.9644796 133.6291362  77.5810726  99.4587392 122.3250641  89.2317353
 100.4104815 122.4248738  89.2529577  99.2890842 121.5328909  89.7415437
  97.4801771 119.4106224  89.4176753  96.8851703 119.6911237  88.7223242
  97.1951468 119.9000125  90.1893495  96.6109262 133.3629151  78.1779386
  97.5439935 133.2974712  78.3812262  96.5232475 134.1985418  77.7193919
  99.2397278 132.6795021  75.1383334  99.1610910 132.3454885  76.0319091
 100.0606945 133.1716789  75.1374806 101.9375470 125.5456760  88.3459652
 101.9051790 124.6072761  88.5319336 102.5476093 125.6240797  87.6125477
  93.7758800 124.4152813  74.3886856  94.7217905 124.2859021  74.4575274
  93.3973045 123.6767475  74.8656284 102.0869958 122.3367804  88.3917935
 101.5709007 121.5526260  88.2047864 102.9709907 122.0086520  88.5564455
  99.7480685 116.0808819  84.3513748  99.5505506 115.7723908  85.2357080
 100.3580391 116.8070458  84.4811678 107.7552019 126.6072767  87.4865689
 108.4855408 126.3458055  88.0473392 107.1458965 125.8701489  87.5267757
 105.8367317 124.7480630  88.0840140 105.1100480 124.6136595  87.4756632
 105.4214603 125.0557458  88.8896858  93.6597493 128.4670559  95.8487513
  94.5800502 128.6449158  96.0427560  93.6247076 127.5226605  95.6967212
  91.9601718 122.3402790  74.3241741  91.0533173 122.0435902  74.4004455
  92.2377699 122.0432608  73.4576028  82.8779658 123.6609153  84.7740788
  82.5582442 122.8074461  84.4815162  82.3313086 123.8757731  85.5298755
  86.6559566 126.3771594  88.4910294  86.8745575 127.3088702  88.5098328
  87.0685339 126.0179569  89.2765098  93.5763783 116.8839679  80.4785983
  92.7664512 116.5386764  80.8541229  94.2648200 116.5747223  81.0673594
  95.5054332 115.9617726  82.1010279  96.0585370 116.3813180  82.7600302
  95.7424418 115.0353474  82.1433235  91.5287431 121.9504800  97.8813043
  91.4284158 122.8999157  97.8125134  91.3108973 121.6223039  97.0089113
  90.7300502 119.1989725  74.4653721  91.5919666 119.5244623  74.7249538
  90.9150846 118.4121221  73.9526786  82.7467918 127.2812065  86.7433909
  82.0531389 126.8666017  86.2303864  83.4940909 127.3232601  86.1467328
  98.8833139 118.0718251  81.6088944  98.3031808 118.7303055  81.2266996
  98.6169071 117.2495596  81.1976361  97.3336705 117.4723309  83.8110264
  97.8336483 117.5839844  83.0024583  97.9772313 117.1684362  84.4511072
  91.3918701 125.3801939  96.6978105  90.9085783 126.1802299  96.9041994
  91.4779640 125.3909884  95.7445549  84.6604661 127.2130318  84.6199924
  84.6375349 127.3118006  83.6681807  84.9705297 128.0595469  84.9417090
  87.3192038 129.2706473  88.7346539  88.2735292 129.2390416  88.6676470
  87.1204562 128.8097097  89.5496765  87.9091421 127.8407589  91.3017336
  88.7284310 128.3351668  91.3252174  88.1828228 126.9239558  91.2734904
  97.6658017 120.2318342  80.6645292  96.7783872 120.5167992  80.4465487
  98.0812006 120.0712105  79.8172569 101.0172553 120.2564863  84.3799631
 101.7932943 120.7461315  84.6524248 100.2920687 120.6822917  84.8371501
 103.4545111 120.9692482  85.4373572 104.0489602 120.7288218  84.7266880
 103.5271695 120.2499613  86.0647108  85.6742267 134.8126093  85.7516737
  85.5396735 134.0526494  85.1854735  85.2574329 135.5366993  85.2845525
  96.8101230 129.9963016  74.7593312  97.5137080 130.2013019  75.3750967
  96.0863879 130.5639778  75.0242395  97.6399040 125.7472878  80.8795582
  97.5834242 126.2041429  80.0403214  98.1927383 124.9863562  80.7018425
 101.4503846 121.5362610  81.7045702 101.1940781 121.1359245  82.5353909
 100.8256714 122.2506404  81.5795841 105.7616184 124.2758683  84.2116993
 105.2015742 124.3451872  84.9848555 105.1559688 124.0999667  83.4916489
  88.8311393 135.7095410  85.9635179  88.7143777 136.6540842  85.8613869
  88.0103839 135.4068971  86.3520978  98.7187928 130.4345546  76.8091772
  99.5533532 130.0026744  76.6269247  98.5572271 130.2627559  77.7368666
  98.3733820 126.9377659  78.1748111  98.3182624 126.7721930  77.2336555
  97.7479875 127.6453692  78.3310301  83.1626335 122.1745723  92.0009533
  83.8085198 121.6644677  92.4896759  82.9543486 122.9114405  92.5752959
  95.6879727 129.2426571  97.5001674  96.5570887 129.4167223  97.1388309
  95.2086478 130.0620988  97.3777403  91.6829945 116.4385768  77.7533430
  91.6708615 117.3827608  77.9101700  92.5753367 116.2555913  77.4592891
  89.8565907 136.3623672  89.1791108  90.7593154 136.3947282  89.4957603
  89.6303277 135.4324123  89.1937443  91.6119509 135.1154658  85.8401186
  90.6615140 135.1156520  85.7265559  91.9151995 134.3687393  85.3237221
  95.4982065 113.0328545  82.0079366  94.7314461 112.4787031  82.1536049
  95.9092770 113.1050413  82.8693518  87.5023826 119.3213340  96.0984548
  88.3655287 118.9650145  96.3087872  86.9289236 118.9827235  96.7859952
 107.3472203 140.9515197  86.9046949 107.9850613 140.8321944  86.2010289
 107.2293046 141.8996041  86.9634901 104.1561909 140.9042625  86.8408473
 103.8180421 140.7883690  85.9529008 105.0251677 140.5033790  86.8209480
 100.0148725 142.7578101  82.8305364  99.4513590 142.6668038  82.0621652
  99.9001120 141.9378006  83.3107857 104.6381692 142.0577477  92.7994679
 104.6270333 141.6630275  91.9275183 104.8002331 141.3243549  93.3928450
  97.5613157 144.2529293  85.6689585  98.3534449 143.9120118  85.2535884
  97.8009807 144.3624268  86.5891738 105.5948283 146.4249069  78.1419829
 104.9436263 147.0103149  77.7553843 106.3892646 146.9555264  78.2014867
  99.5203911 143.5138206  78.5406964 100.2934787 142.9667193  78.4019839
  99.8729309 144.3782455  78.7521425 101.3588953 144.8414588  91.7473863
 101.0678819 145.7460219  91.6320529 101.9945937 144.8831116  92.4617932
 102.2845160 142.2191437  88.3375223 102.8808732 141.9947459  87.6232185
 102.3420132 141.4776182  88.9400670 101.8570188 139.6730872  76.1725413
 102.1095709 139.1512394  75.4108876 100.9194747 139.5097018  76.2752097
 106.9013471 138.6766651  83.9800157 107.6876560 138.2586074  83.6290574
 107.1652176 139.5812743  84.1481805 107.0723549 144.1139501  78.6788814
 106.4369382 144.1874127  79.3909718 106.7420955 144.7033100  78.0007893
 112.3021898 138.6141884  84.8833135 113.0347070 138.0441101  85.1170965
 111.5461254 138.2263484  85.3239641 101.5766477 141.5758978  78.3749788
 101.4602735 140.9003882  79.0430873 101.6868737 141.0891352  77.5581941
 103.9198018 141.0369125  82.0796478 103.5556225 140.5099746  82.7909399
 104.7765134 140.6467594  81.9062963 109.8247319 132.3263458  89.3427744
 109.4930643 133.1958869  89.1188959 109.2292932 132.0099742  90.0221774
 103.5603505 136.0659025  77.0757826 103.7277907 136.9339261  77.4428297
 103.3700674 136.2286307  76.1519115 106.3178838 144.5276004  88.7423657
 106.0179561 145.4301043  88.6339464 105.9729898 144.2608187  89.5944809
  99.7691320 140.9789801  84.7760361  98.8441816 140.8466015  84.9838053
 100.0175733 141.7584020  85.2730303 109.7175982 137.0458544  86.4221094
 108.8092859 136.9773953  86.1279855 109.6663578 137.5230489  87.2502919
 103.5392726 138.5216682  78.0604493 103.4192351 138.9673733  78.8989973
 102.8445314 138.8702000  77.5018031  97.1300131 140.6223074  85.6104150
  97.2592512 140.8757553  86.5243562  96.4497582 141.2150782  85.2908805
 101.2999618 151.2920324  81.7094624 101.2223648 152.2428149  81.7883105
 100.6961262 150.9466197  82.3669551 103.7916848 138.4648190  94.3655991
 103.0150182 139.0242110  94.3558856 104.4307411 138.9504973  94.8870861
 111.5837628 135.2474982  88.1998968 110.9412009 135.5407516  87.5538762
 111.0792557 135.1327903  89.0052164 109.2377792 138.9938156  78.8884827
 110.1495648 139.2265542  78.7132525 108.7287439 139.5775200  78.3259906
 102.0463220 141.2733643  93.9273958 102.7877904 141.8118687  93.6508782
 101.3400206 141.8999932  94.0845510 107.5218560 143.4162784  92.5246120
 107.9301916 142.9745194  91.7800752 106.7995821 142.8415411  92.7780313
 103.8749630 138.3535390  89.8979677 104.7210825 138.7774804  90.0414326
 103.8148267 137.6969015  90.5918240 107.8447374 143.9763974  86.2798409
 107.2156237 144.1409688  85.5774476 107.4573036 144.3905584  87.0509373
 107.0249075 136.0139759  91.5560850 106.7810007 136.7681819  91.0195126
 107.3009006 136.3925106  92.3908097 108.9787538 142.5578371  90.2338116
 109.1904433 143.2010131  89.5572497 108.9317286 141.7240688  89.7660046
 106.5813767 135.1696192  87.1374688 105.7198246 135.4677445  87.4291426
 106.6076201 135.3866591  86.2055721 103.3975336 143.7138382  83.5448494
 103.8613682 143.9926085  82.7553116 103.1332134 142.8121827  83.3621584
 100.2899417 143.2609864  86.4828257 100.8600774 143.6897132  85.8445741
 100.8807529 142.9792448  87.1812443 102.3344222 139.8361535  80.3538059
 103.0368266 140.2882578  80.8211985 102.0024851 139.1945353  80.9817952
 100.7824584 138.4273291  94.7289268 100.1523244 139.1089572  94.9624665
 100.6760672 138.3156373  93.7842406  96.0769556 138.0945087  85.6555192
  95.2868610 138.3502616  85.1795303  96.5680804 138.9093425  85.7607233
 110.0933366 145.4350326  88.4060473 110.9150810 145.0330514  88.1243155
 110.0895769 145.3318561  89.3576589  98.0284302 138.4589667  82.6138669
  97.2315465 138.5708361  83.1322165  97.8009894 138.7976319  81.7479560
 103.8589969 144.9834370  90.5621184 103.9234402 145.4454777  91.3979356
 103.1500893 144.3531735  90.6903494  94.3607259 138.3475578  88.0870183
  94.6115298 139.2322588  88.3527759  94.8966808 138.1680179  87.3145275
 103.5737987 146.6502477  80.4300164 103.4383662 147.4954013  80.8585012
 104.1147799 146.8521755  79.6666098 100.0605327 132.7294057  97.0914519
  99.6672272 132.1760256  97.7662163 100.8771467 133.0404636  97.4821037
  97.0267384 144.1677915  81.0028089  97.5391905 144.9621166  81.1533654
  97.6790097 143.4704206  80.9361691  98.8362269 147.2843672  83.0850842
  99.0128897 148.2061636  82.8971826  99.6319103 146.9702091  83.5145222
 102.9773288 134.1451936  94.6834776 103.7183001 134.7459089  94.6039238
 103.2091210 133.4029574  94.1252818  98.1214626 139.3308303  92.9613005
  98.0068141 138.4293561  93.2620104  97.2659143 139.5772000  92.6097822
 105.2006463 147.2726044  94.5600506 104.7570317 146.4862422  94.2421411
 105.8623677 147.4605194  93.8944397  99.9593584 148.8021845  89.0861185
 100.5101010 148.6738909  88.3138179  99.1205060 149.1016734  88.7356077
 103.7560756 145.0672973  93.4305416 104.2889092 144.3061261  93.2004724
 103.2274837 144.7746625  94.1729570 106.9230450 130.1733039  88.9599057
 106.5794720 131.0634681  88.8838168 107.2909413 129.9834697  88.0968642
  94.9916301 142.4966570  81.7787660  95.8291523 142.9063578  81.5621367
  95.1694569 141.5566012  81.7487853 106.8880733 140.1641650  77.4671493
 106.3727357 140.9346255  77.7059880 106.6158042 139.4906786  78.0904554
 104.4727844 135.0091351  82.5256731 103.6169441 134.6198201  82.3462370
 104.8854796 135.0883312  81.6656516 106.0026991 132.5437694  86.9248291
 105.4991786 132.5067829  86.1116096 106.2957598 133.4530437  86.9844947
 102.2469877 132.6276424  85.9314472 103.1122874 132.4319233  85.5720362
 102.3147386 132.3986776  86.8583829 111.8615007 142.9174005  79.4024666
 111.0844450 142.5785164  78.9579828 112.5406488 142.9226628  78.7279631
 106.6767036 138.0368742  79.2931274 106.3717172 138.3514891  80.1441417
 107.6297479 138.1150162  79.3358607 105.1213468 144.1958966  80.9424228
 104.5934830 143.4611725  80.6297465 104.6200971 144.9733642  80.6964196
 110.1006314 142.3907986  86.0591274 109.4429989 143.0807247  86.1471403
 110.9046713 142.7804418  86.4025260  99.8532196 134.8578632  83.3030839
 100.4275948 134.6353813  82.5704032 100.4403178 134.9267326  84.0559441
 108.9111773 140.7452359  84.1095216 109.4243655 141.3782351  84.6116926
 109.5612997 140.1453554  83.7438576 100.1801783 136.8883093  77.3226725
  99.3439095 137.2257779  77.6435999 100.0406553 136.7532073  76.3853861
 102.1554864 131.7319881  82.0305909 101.5019276 131.4168898  81.4062523
 102.1135338 131.1095621  82.7565732 103.2666068 142.0139176  73.9459201
 102.3593130 141.7828429  74.1450350 103.7637100 141.2176795  74.1333182
 105.3892604 138.2201814  86.3553556 104.4715165 138.4416761  86.1975244
 105.8052748 138.2948125  85.4965264 106.1727652 139.6193230  81.4856237
 106.9199471 140.1314627  81.1763359 106.4419241 139.2977283  82.3460630
 104.4454302 142.1151771  78.4683191 103.5365521 141.8310804  78.5655661
 104.4749386 142.5350849  77.6086498 109.6773569 145.7258360  82.2374358
 109.2235896 144.8849270  82.2939549 109.0467536 146.3619759  82.5749139
 108.6206489 136.6550346  83.4675026 107.8829246 136.1427732  83.7985268
 108.8733262 136.2150728  82.6558303 108.7218116 129.4326598  84.0616795
 109.0276993 128.5723962  83.7742710 109.4470721 130.0244218  83.8615789
  95.0142472 139.8357285  82.4498393  94.8166872 139.2426646  81.7249460
  94.4589136 139.5309495  83.1674332 102.9939196 139.7280391  84.5692986
 103.0487806 138.7754228  84.4935463 102.1830398 139.8839830  85.0534285
 104.1430390 143.6560514  75.8071269 103.7049820 142.9396373  75.3476907
 104.8840831 143.8836629  75.2456361 100.9331556 138.3457451  82.3283365
 100.1199421 138.6451622  82.7348557 101.4290550 137.9513140  83.0457847
 103.0840134 148.3415208  84.2617630 103.0416312 148.5676054  83.3326162
 104.0002833 148.1078583  84.4103431 106.5305767 138.8099276  91.1598259
 106.8855155 139.0370749  92.0192725 107.1777899 139.1417652  90.5375514
 112.2603504 141.9317711  81.8647588 112.1221403 142.1219307  80.9368777
 111.9039723 142.6937094  82.3215639 100.4245631 135.9175807  87.9444600
 101.0645010 135.7764566  87.2467563  99.5923161 135.6310320  87.5683202
 112.2872884 143.9994238  86.8758860 112.7209391 143.9069528  87.7241914
 113.0004465 143.9751739  86.2378876 101.2005934 145.2178237  84.0579592
 101.9946533 144.7228557  83.8562167 100.4897627 144.6896100  83.6947298
 106.0200779 147.5996333  88.4091960 106.0737801 148.1687269  89.1769676
 105.1515560 147.7698218  88.0445997  97.5088698 139.3621319  80.1339345
  96.5786286 139.3005774  80.3509307  97.6046170 138.8397272  79.3375986
  97.4274247 135.8876132  82.7217587  97.6881064 136.8021465  82.6126747
  98.2491419 135.4200574  82.8714200  98.8999172 137.3013889  89.8916411
  99.5722226 137.0931251  89.2429060  98.0728959 137.1035975  89.4521644
 104.8024744 133.9275830  91.9082072 104.1552659 134.6265779  91.8146549
 105.5725760 134.3611974  92.2758320 108.2103542 144.1924682  94.9832626
 108.0589049 143.9635234  94.0662709 108.2008222 145.1495283  94.9963971
 104.9788879 141.7656595  89.9678892 105.9080939 141.9167754  89.7947859
 104.5579909 141.8540615  89.1127538 103.7777210 145.7907259  87.7377430
 103.6388296 145.4226043  88.6103368 102.9891807 146.3054898  87.5661387
 105.3282426 145.1688862  85.1266267 104.9932258 145.1289632  86.0223917
 104.8286371 144.5033578  84.6536678  99.3026670 140.5756492  90.6518849
  99.1646468 139.8436731  91.2530388 100.2131593 140.4865392  90.3703036
 108.2641617 142.5144896  75.4003327 107.6470788 141.7891724  75.3036380
 107.7958106 143.2754256  75.0570401 101.9308970 140.2876451  90.1402528
 102.6408589 139.6469643  90.0989147 101.8878278 140.5389346  91.0628709
 100.6437904 137.2741669  91.9598168 100.1075261 136.8232407  92.6119764
 100.0554613 137.4087578  91.2168632 100.0540163 136.7330320  74.5224631
  99.1769629 136.6119121  74.1586878 100.5297916 135.9416399  74.2703520
 109.9213156 145.1883388  91.2923087 109.0339935 144.8509310  91.4149486
 110.4911707 144.4566420  91.5291852  91.5742303 141.5207480  84.6166138
  92.2613343 141.2069210  84.0287154  91.4190432 142.4248845  84.3433390
  96.3777025 136.4097677  89.0451162  96.2935214 135.8023346  88.3101572
  95.5559732 136.9006695  89.0460658 103.4514310 149.8484841  88.2584330
 103.3784481 150.6539812  88.7703635 103.0091703 150.0476807  87.4332352
 103.2404089 149.0856611  81.7687152 102.4571611 149.6278291  81.8625376
 103.9396834 149.6030590  82.1681393 106.5500739 134.8951240  84.4121357
 107.0469439 134.1421203  84.0922427 105.7787721 134.9315557  83.8464567
 114.4030497 140.5991606  86.0539649 114.3920373 141.4816321  85.6833582
 113.5347876 140.2463157  85.8594186 107.6330520 143.6522927  81.9859781
 106.6986799 143.7724390  81.8164485 107.8107188 142.7495394  81.7219790
 103.1335708 137.0368623  84.1393042 102.7633496 136.4839664  84.8273947
 103.6294801 136.4326757  83.5868042 111.0203071 139.4940247  82.5209815
 111.4863524 140.3268238  82.4470117 111.4710572 139.0285228  83.2255073
 100.9624907 147.4966118  91.2348060 101.6634366 148.1302601  91.3877454
 100.4920022 147.8380850  90.4743699 109.0879302 145.8384068  79.5195967
 109.3639146 145.7240663  80.4289841 108.2183801 145.4401553  79.4808140
 108.9919734 131.8620834  86.5600716 108.0782814 132.0925061  86.7282923
 109.4212836 131.9459278  87.4114748 108.7626193 140.0510726  89.0600610
 108.1097643 140.2986633  88.4053063 109.1406573 139.2374864  88.7263087
 106.0575532 149.0138604  80.4243829 106.5863298 148.5031059  79.8113991
 106.3203752 148.6981134  81.2889362 104.8113766 140.7930537  95.5466647
 104.1354403 140.6924666  96.2169022 105.6341400 140.6369750  96.0102644
  96.5592625 147.0302473  88.1679162  97.1446062 146.2846161  88.3007067
  96.3617463 147.3406430  89.0515826  99.4131280 150.0653721  83.1841605
  98.7441655 150.5499848  82.7005645  99.2744150 150.3122941  84.0984983
  91.1510279 139.6008073  86.8883606  91.1894379 139.0671664  87.6820724
  90.6450572 139.0743279  86.2694583  98.5301042 134.4472614  90.3846148
  98.5942368 135.3087445  89.9723546  98.4668162 133.8346616  89.6518506
  98.0053314 136.5195746  94.0319182  98.6325353 136.1372824  94.6456706
  97.1481233 136.3009948  94.3974875  94.7818857 138.3272176  79.9637537
  95.0772298 137.4182854  79.9104591  93.8806893 138.3059915  79.6418539
  98.3113104 136.4028172  85.9465086  97.5899690 137.0164140  85.8072559
  99.1006360 136.9385937  85.8681731 101.1139418 133.7382599  92.2205737
 101.6373819 133.9844895  92.9832047 100.8951751 134.5702633  91.8008875
  96.5106699 136.0086273  80.0876862  96.1819405 135.1283652  79.9051968
  96.8646069 135.9533942  80.9753251 105.7586277 147.6441176  84.5971848
 105.6111240 146.7157883  84.7779418 106.5839771 147.6661267  84.1128923
  99.6248522 136.2959243  80.4552340  99.9644594 136.8245164  79.7330948
 100.0720642 136.6339649  81.2310906 102.3191963 134.6796294  89.9055408
 101.9788783 133.8804107  90.3076088 101.6130969 134.9798005  89.3332241
 102.9708434 131.7645606  88.3582731 103.7934504 131.2906084  88.2361621
 103.2146498 132.5436090  88.8581417 101.6116669 134.7933865  78.6545633
 102.3325031 135.1715117  78.1509349 100.9881973 135.5122741  78.7580610
 105.7547792 135.4979014  79.5903965 105.9711406 136.3803651  79.2892793
 105.2741859 135.1065227  78.8609607 100.4947013 138.4564727  86.1674709
 100.3491594 138.7705030  87.0598991 100.0172217 139.0749627  85.6145608
 102.3543396 135.4467275  86.2155599 102.3404965 134.5508368  85.8787897
 103.0715824 135.4537939  86.8493885 104.2069527 135.8804615  88.2608726
 103.9487305 136.8021686  88.2593057 103.6754567 135.4835050  88.9509191
  94.9692675 140.9970071  89.1062371  94.4246143 141.7729879  89.2382645
  95.8472025 141.3440876  88.9481492 101.7580292 134.3281655  81.4843169
 101.8796203 133.3998301  81.6834057 101.4682334 134.3420341  80.5721485
 104.6271482 132.0136566  84.6209889 104.6493179 132.0775899  83.6661869
 105.0439541 131.1741074  84.8150395 115.0055107 141.7491825  82.6589112
 115.4486253 140.9999150  82.2608235 114.1281617 141.7401961  82.2762844
  95.7558697 140.1239968  91.9992528  95.0140433 140.2722603  92.5857158
  95.4351441 140.3848233  91.1359277 103.7002360 149.6655946  91.7972918
 104.0089486 149.4205093  92.6695617 104.4977842 149.8702584  91.3091788
  96.2015311 148.0105396  84.0302922  97.0273331 147.7109168  83.6501566
  95.8509363 147.2413019  84.4792711 101.1696844 147.3631864  86.1000596
 100.5476853 146.7002569  85.8002824 101.8401711 147.3892996  85.4174244
  94.4023916 145.9291723  84.9891856  93.5655824 145.5013897  84.8075857
  94.3747561 146.1224166  85.9262647 101.2421372 135.8413652  95.6933102
 101.2909527 136.7175775  95.3110871 101.7843886 135.2991046  95.1204745
 111.8474092 143.2347242  92.2866967 111.8972097 143.0697250  93.2282490
 111.7388016 142.3674501  91.8964848 100.7310351 145.9135788  79.5759056
 100.8798471 146.5971252  78.9225729 101.5376794 145.8940878  80.0908512
 109.1377855 139.2178170  93.6026274 110.0387717 139.0784635  93.3110272
 109.2125829 139.3832625  94.5424452 103.4720660 136.5945025  92.4479460
 102.6023969 136.8878591  92.1762049 103.7080140 137.1785470  93.1686724
 111.5979477 140.7776798  90.9989047 112.0733599 140.9704445  90.1907898
 110.6745043 140.8335984  90.7532431  98.4862984 141.9400965  80.5820125
  98.2409026 141.0363295  80.7800335  98.6558898 141.9418116  79.6399603
 106.1759694 132.8124642  89.9644881 106.6941638 133.5485669  89.6391369
 105.8214827 133.1188635  90.7991640  97.7558631 137.6729323  78.0806287
  97.0627876 137.7473678  77.4246323  97.5110383 136.9089667  78.6027804
 106.4272288 129.2324924  85.4845777 106.7074042 128.5648113  86.1106204
 107.2122895 129.4254020  84.9720441 104.2305756 148.4083918  77.0470804
 103.6579724 149.0274105  76.5941276 104.8038550 148.9583280  77.5810726
 110.2981146 137.6542558  89.2317353 111.2498569 137.7540656  89.2529577
 110.1284597 136.8620827  89.7415437 108.3195526 134.7398142  89.4176753
 107.7245458 135.0203154  88.7223242 108.0345222 135.2292042  90.1893495
 112.7769224 140.8748678  88.3459652 112.7445544 139.9364679  88.5319336
 113.3869848 140.9532715  87.6125477 104.6152555 139.7444731  74.3886856
 105.5611660 139.6150939  74.4575274 104.2366800 139.0059393  74.8656284
 112.9263713 137.6659721  88.3917935 112.4102761 136.8818178  88.2047864
 113.8103661 137.3378438  88.5564455 110.5874440 131.4100737  84.3513748
 110.3899261 131.1015825  85.2357080 111.1974145 132.1362376  84.4811678
 116.6761071 140.0772547  88.0840140 115.9494235 139.9428512  87.4756632
 116.2608358 140.3849376  88.8896858 104.4991247 143.7962477  95.8487513
 105.4194257 143.9741076  96.0427560 104.4640831 142.8518522  95.6967212
 102.7995472 137.6694707  74.3241741 101.8926928 137.3727820  74.4004455
 103.0771453 137.3724525  73.4576028  93.7173412 138.9901071  84.7740788
  93.3976197 138.1366379  84.4815162  93.1706841 139.2049649  85.5298755
  97.4953320 141.7063512  88.4910294  97.7139330 142.6380620  88.5098328
  97.9079094 141.3471486  89.2765098 104.4157538 132.2131597  80.4785983
 103.6058266 131.8678682  80.8541229 105.1041955 131.9039141  81.0673594
 106.3448086 131.2909644  82.1010279 106.8979125 131.7105097  82.7600302
 106.5818172 130.3645392  82.1433235 102.3681185 137.2796718  97.8813043
 102.2677912 138.2291075  97.8125134 102.1502727 136.9514956  97.0089113
 101.5694257 134.5281643  74.4653721 102.4313421 134.8536541  74.7249538
 101.7544601 133.7413139  73.9526786  93.5861672 142.6103982  86.7433909
  92.8925144 142.1957935  86.2303864  94.3334663 142.6524519  86.1467328
 109.7226893 133.4010169  81.6088944 109.1425562 134.0594973  81.2266996
 109.4562826 132.5787514  81.1976361 108.1730460 132.8015227  83.8110264
 108.6730238 132.9131761  83.0024583 108.8166068 132.4976280  84.4511072
 102.2312455 140.7093856  96.6978105 101.7479537 141.5094217  96.9041994
 102.3173394 140.7201801  95.7445549  95.4998415 142.5422236  84.6199924
  95.4769103 142.6409923  83.6681807  95.8099052 143.3887387  84.9417090
  98.1585793 144.5998391  88.7346539  99.1129046 144.5682333  88.6676470
  97.9598316 144.1389015  89.5496765  98.7485175 143.1699507  91.3017336
  99.5678064 143.6643586  91.3252174  99.0221983 142.2531475  91.2734904
 108.5051771 135.5610259  80.6645292 107.6177626 135.8459910  80.4465487
 108.9205760 135.4004023  79.8172569 111.8566307 135.5856780  84.3799631
 112.6326697 136.0753233  84.6524248 111.1314442 136.0114835  84.8371501
 114.2938866 136.2984400  85.4373572 114.8883357 136.0580136  84.7266880
 114.3665450 135.5791530  86.0647108  96.5136022 150.1418011  85.7516737
  96.3790490 149.3818411  85.1854735  96.0968084 150.8658910  85.2845525
 107.6494985 145.3254934  74.7593312 108.3530835 145.5304937  75.3750967
 106.9257633 145.8931696  75.0242395 108.4792795 141.0764795  80.8795582
 108.4227996 141.5333347  80.0403214 109.0321137 140.3155480  80.7018425
 112.2897601 136.8654527  81.7045702 112.0334535 136.4651163  82.5353909
 111.6650469 137.5798321  81.5795841 116.6009939 139.6050600  84.2116993
 116.0409497 139.6743790  84.9848555 115.9953442 139.4291585  83.4916489
  99.6705148 151.0387328  85.9635179  99.5537532 151.9832760  85.8613869
  98.8497594 150.7360889  86.3520978 109.5581682 145.7637463  76.8091772
 110.3927286 145.3318662  76.6269247 109.3966025 145.5919477  77.7368666
 109.2127574 142.2669577  78.1748111 109.1576378 142.1013848  77.2336555
 108.5873630 142.9745610  78.3310301  94.0020089 137.5037641  92.0009533
  94.6478953 136.9936595  92.4896759  93.7937240 138.2406323  92.5752959
 106.5273481 144.5718488  97.5001674 107.3964641 144.7459141  97.1388309
 106.0480233 145.3912905  97.3777403 102.5223700 131.7677686  77.7533430
 102.5102370 132.7119526  77.9101700 103.4147122 131.5847831  77.4592891
 100.6959662 151.6915589  89.1791108 101.5986908 151.7239200  89.4957603
 100.4697032 150.7616040  89.1937443 102.4513264 150.4446576  85.8401186
 101.5008895 150.4448438  85.7265559 102.7545750 149.6979311  85.3237221
 106.3375819 128.3620462  82.0079366 105.5708215 127.8078949  82.1536049
 106.7486524 128.4342331  82.8693518  98.3417580 134.6505258  96.0984548
  99.2049042 134.2942063  96.3087872  97.7682991 134.3119153  96.7859952
  31.4715923  10.6533896  73.6292255  32.1094332  10.5340643  72.9255595
  31.3536765  11.6014740  73.6880207  28.2805629  10.6061324  73.5653780
  27.9424140  10.4902388  72.6774315  29.1495397  10.2052489  73.5454786
  24.1392445  12.4596800  69.5550671  23.5757310  12.3686737  68.7866959
  24.0244840  11.6396705  70.0353163  28.7625412  11.7596175  79.5239986
  28.7514053  11.3648974  78.6520489  28.9246051  11.0262248  80.1173757
  21.6856876  13.9547992  72.3934891  22.4778168  13.6138816  71.9781191
  21.9253527  14.0642967  73.3137045  29.7192003  16.1267768  64.8665136
  29.0679983  16.7121848  64.4799150  30.5136366  16.6573963  64.9260173
  23.6447630  13.2156905  65.2652270  24.4178506  12.6685892  65.1265146
  23.9973029  14.0801154  65.4766732  25.4832673  14.5433287  78.4719170
  25.1922539  15.4478918  78.3565836  26.1189657  14.5849815  79.1863239
  26.4088880  11.9210136  75.0620529  27.0052452  11.6966158  74.3477492
  26.4663851  11.1794881  75.6645977  25.9813908   9.3749571  62.8970720
  26.2339429   8.8531092  62.1354183  25.0438467   9.2115717  62.9997404
  31.0257191   8.3785349  70.7045463  31.8120280   7.9604773  70.3535880
  31.2895895   9.2831442  70.8727112  31.1967268  13.8158200  65.4034120
  30.5613101  13.8892826  66.1155025  30.8664675  14.4051799  64.7253199
  36.4265618   8.3160583  71.6078442  37.1590790   7.7459799  71.8416271
  35.6704974   7.9282183  72.0484947  25.7010197  11.2777677  65.0995095
  25.5846455  10.6022580  65.7676179  25.8112457  10.7910051  64.2827248
  28.0441738  10.7387824  68.8041784  27.6799945  10.2118445  69.5154706
  28.9008854  10.3486293  68.6308270  33.9491038   2.0282157  76.0673050
  33.6174363   2.8977568  75.8434265  33.3536652   1.7118441  76.7467081
  27.6847225   5.7677724  63.8003133  27.8521627   6.6357960  64.1673604
  27.4944394   5.9305006  62.8764422  30.4422558  14.2294703  75.4668963
  30.1423281  15.1319742  75.3584770  30.0973618  13.9626886  76.3190116
  23.8935039  10.6808500  71.5005668  22.9685536  10.5484714  71.7083359
  24.1419453  11.4602719  71.9975610  33.8419702   6.7477243  73.1466401
  32.9336579   6.6792651  72.8525161  33.7907298   7.2249188  73.9748226
  27.6636446   8.2235381  64.7849800  27.5436071   8.6692432  65.6235280
  26.9689034   8.5720699  64.2263338  21.2543851  10.3241773  72.3349457
  21.3836232  10.5776252  73.2488868  20.5741302  10.9169481  72.0154112
  25.4243338  20.9939023  68.4339931  25.3467368  21.9446848  68.5128411
  24.8204981  20.6484896  69.0914857  27.9160568   8.1666889  81.0901298
  27.1393902   8.7260809  81.0804162  28.5551131   8.6523672  81.6116168
  35.7081348   4.9493681  74.9244274  35.0655728   5.2426215  74.2784069
  35.2036277   4.8346602  75.7297471  33.3621512   8.6956855  65.6130134
  34.2739368   8.9284241  65.4377831  32.8531159   9.2793899  65.0505212
  26.1706940  10.9752342  80.6519265  26.9121624  11.5137386  80.3754088
  25.4643925  11.6018631  80.8090817  31.6462280  13.1181482  79.2491426
  32.0545636  12.6763893  78.5046059  30.9239541  12.5434110  79.5025619
  27.9993350   8.0554089  76.6224983  28.8454545   8.4793503  76.7659632
  27.9391987   7.3987713  77.3163546  31.9691094  13.6782673  73.0043715
  31.3399957  13.8428387  72.3019783  31.5816756  14.0924283  73.7754679
  35.8480326  14.6137111  70.3588079  35.1631364  14.9936012  69.8085112
  35.9324175  15.2232437  71.0920027  31.1492795   5.7158457  78.2806157
  30.9053727   6.4700518  77.7440433  31.4252725   6.0943805  79.1153404
  33.1031258  12.2597070  76.9583422  33.3148153  12.9028830  76.2817804
  33.0561006  11.4259386  76.4905353  30.7057487   4.8714891  73.8619995
  29.8441966   5.1696144  74.1536732  30.7319921   5.0885289  72.9301027
  27.5219056  13.4157081  70.2693800  27.9857402  13.6944784  69.4798423
  27.2575854  12.5140526  70.0866891  24.4143137  12.9628563  73.2073564
  24.9844494  13.3915831  72.5691048  25.0051249  12.6811147  73.9057749
  26.4587942   9.5380233  67.0783365  27.1611985   9.9901277  67.5457292
  26.1268571   8.8964052  67.7063259  24.9068304   8.1291990  81.4534575
  24.2766964   8.8108271  81.6869972  24.8004392   8.0175072  80.5087713
  20.2013276   7.7963786  72.3800499  19.4112330   8.0521315  71.9040610
  20.6924523   8.6112124  72.4852540  34.2177086  15.1369025  75.1305780
  35.0394529  14.7349213  74.8488461  34.2139489  15.0337259  76.0821896
  22.1528021   8.1608365  69.3383976  21.3559185   8.2727060  69.8567471
  21.9253614   8.4995018  68.4724866  27.9833689  14.6853069  77.2866490
  28.0478122  15.1473476  78.1224662  27.2744613  14.0550434  77.4148800
  42.3083079  11.4807774  71.4790751  41.5546787  10.9115172  71.3234756
  42.4430620  11.4470438  72.4261386  27.6981707  16.3521176  67.1545471
  27.5627382  17.1972712  67.5830318  28.2391519  16.5540454  66.3911404
  21.1511104  13.8696614  67.7273396  21.6635625  14.6639864  67.8778960
  21.8033817  13.1722905  67.6606997  22.9605989  16.9862370  69.8096149
  23.1372617  17.9080335  69.6217133  23.7562822  16.6720790  70.2390529
  27.1017007   3.8470635  81.4080082  27.8426721   4.4477788  81.3284545
  27.3334930   3.1048273  80.8498125  22.2458345   9.0327002  79.6858312
  22.1311861   8.1312260  79.9865411  21.3902863   9.2790699  79.3343129
  29.3250183  16.9744743  81.2845813  28.8814037  16.1881121  80.9666717
  29.9867397  17.1623893  80.6189703  24.0837304  18.5040544  75.8106491
  24.6344729  18.3757608  75.0383485  23.2448780  18.8035433  75.4601384
  31.4231421  17.2547543  79.3127214  31.4049897  18.0756424  78.8207483
  32.3451341  17.1301618  79.5377355  27.8804475  14.7691672  80.1550722
  28.4132812  14.0079960  79.9250030  27.3518556  14.4765324  80.8974877
  31.0474170  -0.1248262  75.6844364  30.7038440   0.7653380  75.6083475
  31.4153133  -0.3146604  74.8213949  19.1160021  12.1985268  68.5032966
  19.9535243  12.6082277  68.2866674  19.2938289  11.2584711  68.4733160
  31.0124453   9.8660349  64.1916799  30.4971076  10.6364954  64.4305187
  30.7401761   9.1925485  64.8149861  28.5971564   4.7110050  69.2502038
  27.7413160   4.3216900  69.0707676  29.0098516   4.7902011  68.3901823
  30.1270711   2.2456393  73.6493597  29.6235506   2.2086528  72.8361403
  30.4201318   3.1549136  73.7090254  35.9858727  12.6192704  66.1269973
  35.2088170  12.2803863  65.6825135  36.6650208  12.6245327  65.4524938
  30.8010756   7.7387441  66.0176580  30.4960892   8.0533590  66.8686724
  31.7541198   7.8168861  66.0603913  29.2457188  13.8977664  67.6669534
  28.7178550  13.1630424  67.3542772  28.7444691  14.6752341  67.4209503
  34.2250034  12.0926685  72.7836581  33.5673709  12.7825946  72.8716709
  35.0290433  12.4823117  73.1270567  33.0355493  10.4471058  70.8340522
  33.5487375  11.0801049  71.3362232  33.6856717   9.8472253  70.4683882
  24.3045503   6.5901792  64.0472031  23.4682815   6.9276478  64.3681306
  24.1650272   6.4550772  63.1099168  27.3909788  11.7157875  60.6704507
  26.4836850  11.4847128  60.8695656  27.8880820  10.9195494  60.8578489
  30.2977867  20.4255382  63.5901194  29.6239566  20.7287079  64.1986151
  30.6843689  21.2284462  63.2406651  29.5136324   7.9220513  73.0798863
  28.5958885   8.1435460  72.9220551  29.9296467   7.9966824  72.2210570
  30.2971371   9.3211929  68.2101543  31.0443190   9.8333326  67.9008665
  30.5662961   8.9995982  69.0705937  28.5698022  11.8170470  65.1928497
  27.6609241  11.5329502  65.2900967  28.5993105  12.2369548  64.3331804
  33.8017289  15.4277059  68.9619665  33.3479616  14.5867969  69.0184856
  33.1711256  16.0638457  69.2994445  32.7450209   6.3569045  70.1920332
  32.0072965   5.8446431  70.5230575  32.9976982   5.9169427  69.3803609
  32.2450228  17.2653556  69.8969483  32.5373203  17.8258613  69.1781849
  32.7548849  17.5582117  70.6522642  32.8461836  -0.8654703  70.7862102
  33.1520713  -1.7257339  70.4988017  33.5714441  -0.2737083  70.5861096
  19.1386192   9.5375984  69.1743700  18.9410592   8.9445344  68.4494766
  18.5832856   9.2328194  69.8919638  27.1182916   9.4299090  71.2938293
  27.1731525   8.4772927  71.2180769  26.3074118   9.5858529  71.7779591
  28.2674109  13.3579213  62.5316576  27.8293539  12.6415072  62.0722213
  29.0084550  13.5855328  61.9701667  25.0575276   8.0476150  69.0528672
  24.2443141   8.3470321  69.4593864  25.5534270   7.6531839  69.7703154
  27.2083854  18.0433907  70.9862936  27.1660032  18.2694753  70.0571468
  28.1246552  17.8097281  71.1348738  30.6549487   8.5117974  77.8843566
  31.0098875   8.7389448  78.7438031  31.3021619   8.8436351  77.2620821
  36.3847224  11.6336410  68.5892895  36.2465123  11.8238006  67.6614084
  36.0283443  12.3955793  69.0460946  24.5489350   5.6194505  74.6689907
  25.1888730   5.4783265  73.9712870  23.7166881   5.3329019  74.2928509
  36.4116604  13.7012937  73.6004166  36.8453111  13.6088226  74.4487220
  37.1248185  13.6770438  72.9624182  25.3249654  14.9196936  70.7824899
  26.1190253  14.4247256  70.5807474  24.6141347  14.3914799  70.4192605
  30.1444499  17.3015031  75.1337267  30.1981521  17.8705968  75.9014983
  29.2759280  17.4716916  74.7691304  21.6332418   9.0640018  66.8584652
  20.7030006   9.0024473  67.0754614  21.7289890   8.5415970  66.0621293
  23.0242892   7.0032588  76.6161718  23.6965946   6.7949950  75.9674367
  22.1972679   6.8054674  76.1766950  37.2732153  13.7436638  76.1337052
  37.4668044  14.6482448  76.3796326  37.1732772  13.2844057  76.9675637
  28.9268464   3.6294529  78.6327379  28.2796379   4.3284478  78.5391855
  29.6969480   4.0630672  79.0003627  32.3347262  13.8943381  81.7077932
  32.1832769  13.6653932  80.7908016  32.3251942  14.8513982  81.7209277
  29.1032599  11.4675293  76.6924199  30.0324659  11.6186453  76.5193166
  28.6823629  11.5559314  75.8372845  27.9020930  15.4925958  74.4622736
  27.7632016  15.1244742  75.3348674  27.1135527  16.0073597  74.2906694
  28.4969082  20.5935054  65.8048273  28.6720838  20.1223098  66.6193895
  27.8101870  21.2200821  66.0329533  29.4526145  14.8707561  71.8511574
  29.1175978  14.8308331  72.7469224  28.9530091  14.2052276  71.3781984
  23.4270389  10.2775191  77.3764155  23.2890187   9.5455429  77.9775694
  24.3375313  10.1884091  77.0948343  32.3885337  12.2163595  62.1248634
  31.7714508  11.4910423  62.0281686  31.9201826  12.9772955  61.7815708
  26.0552690   9.9895150  76.8647835  26.7652309   9.3488342  76.8234453
  26.0121998  10.2408045  77.7874016  34.0439469  16.9262503  79.7854414
  33.9852015  16.2421723  79.1184997  34.4458987  17.6681493  79.3335040
  24.7681624   6.9760368  78.6843474  24.2318981   6.5251106  79.3365071
  24.1798332   7.1106277  77.9413939  23.0630168  23.7424417  72.5788133
  23.3026766  24.3742941  73.2567151  22.2199364  23.3912457  72.8653492
  24.1783883   6.4349019  61.2469938  23.3013349   6.3137820  60.8832185
  24.6541636   5.6435098  60.9948827  34.0456876  14.8902087  78.0168394
  33.1583655  14.5528009  78.1394793  34.6155427  14.1585118  78.2537159
  15.6986023  11.2226179  71.3411445  16.3857063  10.9087909  70.7532460
  15.5434152  12.1267544  71.0678696  27.5758029  19.5503540  74.9829637
  27.5028201  20.3558511  75.4948941  27.1335423  19.7495505  74.1577658
  27.3647809  18.7875310  68.4932458  26.5815331  19.3296990  68.5870683
  28.0640554  19.3049289  68.8926700  30.6744459   4.5969939  71.1366664
  31.1713159   3.8439901  70.8167734  29.9031441   4.6334256  70.5709873
  38.5274217  10.3010305  72.7784955  38.5164093  11.1835020  72.4078888
  37.6591596   9.9481855  72.5839492  30.0356713  19.4490374  77.1387796
  30.7484685  20.0837838  77.0663697  29.5446742  19.5454240  76.3227797
  31.7574240  13.3541626  68.7105087  30.8230519  13.4743089  68.5409792
  31.9350908  12.4514093  68.4465097  27.2579428   6.7387322  70.8638348
  26.8877215   6.1858362  71.5519254  27.7538520   6.1345456  70.3113348
  35.1446791   9.1958946  69.2455121  35.6107243  10.0286937  69.1715424
  35.5954292   8.7303927  69.9500380  25.0868626  17.1984817  77.9593366
  25.7878086  17.8321300  78.1122761  24.6163741  17.5399549  77.1989006
  33.2123022  15.5402767  66.2441273  33.4882866  15.4259361  67.1535147
  32.3427521  15.1420252  66.2053446  33.1163454   1.5639533  73.2846023
  32.2026534   1.7943759  73.4528230  33.5456555   1.6477977  74.1360055
  32.8869912   9.7529425  75.7845917  32.2341363  10.0005332  75.1298369
  33.2650292   8.9393563  75.4508394  29.8477086  19.7889118  69.8874087
  30.0299481  18.9710774  70.3501839  30.6710072  20.0056810  69.4498977
  30.1819252  18.7157303  67.1489135  30.7107018  18.2049757  66.5359298
  30.4447471  18.3999833  68.0134669  28.9357485  10.4949236  82.2711954
  28.2598122  10.3943365  82.9414329  29.7585119  10.3388449  82.7347951
  20.6836345  16.7321172  74.8924469  21.2689781  15.9864860  75.0252373
  20.4861183  17.0425129  75.7761133  23.5375000  19.7672419  69.9086911
  22.8685375  20.2518547  69.4250951  23.3987869  20.0141640  70.8230290
  27.6780268  21.8016163  76.5069570  28.2298576  21.9647785  77.2718655
  28.0186462  22.3920601  75.8349595  32.5291143  16.6277421  82.3618224
  33.0731047  17.2407379  81.8673179  31.9477988  17.1856999  82.8785237
  30.8148656  19.7498139  73.4933252  30.6899795  18.9487878  72.9844197
  31.4727747  20.2444332  73.0047222  22.4356824   6.1046871  72.6710392
  21.7143410   6.7182839  72.5317865  23.2250080   6.6404636  72.5927038
  32.8783564  17.5507159  75.1212802  31.9313900  17.4312510  75.0491129
  33.2266337  16.6629657  75.2039063  29.8829997  17.3459875  71.3217154
  29.7354960  16.4176582  71.5024724  30.7083491  17.3679966  70.8374230
  23.7492242   5.9977942  67.1797646  24.0888314   6.5263863  66.4576255
  24.1964362   6.3358348  67.9556213  33.4864119  18.1688434  72.4082027
  34.4110667  17.9631295  72.2706478  33.3179423  17.9204835  73.3171369
  26.4435682   4.3814993  76.6300714  26.1032503   3.5822806  77.0321394
  25.7374689   4.6816703  76.0577548  25.7360389   4.4952564  65.3790939
  26.4568751   4.8733816  64.8754656  25.1125693   5.2141440  65.4825917
  29.8791512   5.1997712  66.3149272  30.0955126   6.0822350  66.0138100
  29.3985579   4.8083926  65.5854914  24.6190733   8.1583426  72.8920016
  24.4735314   8.4723729  73.7844298  24.1415937   8.7768326  72.3390915
  26.4787116   5.1485974  72.9400906  26.4648685   4.2527067  72.6033204
  27.1959544   5.1556637  73.5739192  28.3313247   5.5823314  74.9854033
  28.0731024   6.5040385  74.9838364  27.7998287   5.1853748  75.6754497
  33.2759435  18.6874101  67.7644118  33.4496313  18.1220524  67.0117971
  33.7688327  19.4874996  67.5823608  19.0936395  10.6988770  75.8307677
  18.5489863  11.4748578  75.9627952  19.9715745  11.0459575  75.6726799
  39.1298827  11.4510524  69.3834418  39.5729973  10.7017849  68.9853541
  38.2525337  11.4420660  69.0008150  34.2634608  18.0040865  64.8641017
  34.9585512  18.6247558  65.0828331  34.6057758  17.1536217  65.1393395
  19.8802417   9.8258666  78.7237834  19.1384153   9.9741302  79.3102465
  19.5595161  10.0866932  77.8604584  36.1626031  15.4540571  66.3928348
  36.6877355  15.7927844  65.6677668  36.0748384  14.5187586  66.2091482
  27.8246080  19.3674645  78.5218224  28.1333206  19.1223791  79.3940924
  28.6221562  19.5721283  78.0337094  27.8466692  21.5212554  70.7523601
  27.4071682  21.0288933  71.4456457  28.5974809  20.9785522  70.5115676
  20.3259031  17.7124095  70.7548229  21.1517051  17.4127867  70.3746872
  19.9753083  16.9431718  71.2038017  25.2940564  17.0650563  72.8245902
  24.6720573  16.4021268  72.5248130  25.9645431  17.0911695  72.1419550
  18.5267636  15.6310422  71.7137162  17.6899544  15.2032596  71.5321164
  18.4991281  15.8242865  72.6507954  25.3665091   5.5432351  82.4178408
  25.4153247   6.4194474  82.0356178  25.9087606   5.0009744  81.8450052
  35.8519937  16.0873475  81.6979545  35.0615481  16.0697613  81.1584045
  35.6153292  16.6261768  82.4528582  35.9717812  12.9365941  79.0112274
  36.0215817  12.7715948  79.9527797  35.8631735  12.0693200  78.6210155
  24.8554071  15.6154487  66.3004363  25.0042191  16.2989951  65.6471036
  25.6620514  15.5959577  66.8153819  33.2621574   8.9196869  80.3271581
  34.1631437   8.7803334  80.0355579  33.3369549   9.0851324  81.2669758
  27.5964380   6.2963724  79.1724767  26.7267689   6.5897290  78.9007356
  27.8323860   6.8804169  79.8932031  37.4736009  15.3562882  79.2554296
  37.1820817  15.7192863  80.0917757  36.8608140  14.6429891  79.0767628
  38.6731691  12.9215762  71.7756866  39.5078583  13.3605566  71.9394426
  38.8090820  12.4454415  70.9565112  35.7223197  10.4795497  77.7234354
  36.1977319  10.6723143  76.9153205  34.7988763  10.5354683  77.4777737
  22.6106704  11.6419664  67.3065432  22.3652746  10.7381994  67.5045642
  22.7802618  11.6436815  66.3644910  30.3003414   2.5143341  76.6890187
  30.8185357   3.2504368  76.3636676  29.9458546   2.8207334  77.5236947
  21.8802351   7.3748022  64.8051593  21.1871596   7.4492377  64.1491629
  21.6354103   6.6108366  65.3273110  28.3549476  18.1102617  63.7716110
  27.7823443  18.7292804  63.3186582  28.9282270  18.6601979  64.3056032
  34.4224866   7.3561257  75.9562659  35.3742289   7.4559355  75.9774883
  34.2528317   6.5639526  76.4660744  32.4439246   4.4416840  76.1422060
  31.8489178   4.7221853  75.4468549  32.1588942   4.9310741  76.9138801
  31.5746736  18.3939767  64.9024693  32.5077409  18.3285329  65.1057568
  31.4869949  19.2296034  64.4439225  34.2034753  17.7105638  61.8628640
  34.1248384  17.3765501  62.7564398  35.0244420  18.2027405  61.8620113
  36.9012944  10.5767377  75.0704959  36.8689264   9.6383378  75.2564643
  37.5113568  10.6551414  74.3370784  28.7396275   9.4463430  61.1132163
  29.6855380   9.3169638  61.1820581  28.3610520   8.7078092  61.5901591
  37.0507432   7.3678420  75.1163242  36.5346481   6.5836877  74.9293171
  37.9347381   7.0397137  75.2809761  34.7118159   1.1119436  71.0759055
  34.5142980   0.8034524  71.9602387  35.3217865   1.8381075  71.2056985
  42.7189494  11.6383384  74.2110996  43.4492882  11.3768672  74.7718699
  42.1096439  10.9012106  74.2513064  40.8004791   9.7791246  74.8085447
  40.0737954   9.6447211  74.2001938  40.3852078  10.0868075  75.6142165
  28.6234967  13.4981176  82.5732820  29.5437977  13.6759775  82.7672866
  28.5884550  12.5537221  82.4212519  26.9239192   7.3713406  61.0487048
  26.0170647   7.0746519  61.1249762  27.2015173   7.0743224  60.1821334
  21.6197040  11.4082211  75.2155601  21.8383050  12.3399318  75.2343635
  22.0322814  11.0490185  76.0010405  30.4691806   0.9928343  68.8255586
  31.0222845   1.4123796  69.4845609  30.7061892   0.0664091  68.8678542
  26.4924905   6.9815416  84.6058350  26.3921632   7.9309773  84.5370441
  26.2746447   6.6533655  83.7334420  25.6937977   4.2300341  61.1899027
  26.5557141   4.5555240  61.4494845  25.8788321   3.4431837  60.6772093
  17.7105392  12.3122681  73.4679216  17.0168864  11.8976634  72.9549170
  18.4578383  12.3543218  72.8712635  33.8470613   3.1028868  68.3334250
  33.2669282   3.7613672  67.9512303  33.5806546   2.2806213  67.9221668
  32.2974179   2.5033926  70.5355571  32.7973958   2.6150460  69.7269889
  32.9409787   2.1994978  71.1756379  26.3556175  10.4112555  83.4223412
  25.8723257  11.2112915  83.6287301  26.4417114  10.4220500  82.4690856
  19.6242135  12.2440935  71.3445231  19.6012823  12.3428622  70.3927114
  19.9342771  13.0906086  71.6662397  22.2829513  14.3017090  75.4591845
  23.2372766  14.2701032  75.3921777  22.0842036  13.8407714  76.2742071
  22.8728895  12.8718206  78.0262643  23.6921784  13.3662285  78.0497480
  23.1465703  11.9550174  77.9980211  32.6295491   5.2628958  67.3890599
  31.7421346   5.5478609  67.1710793  33.0449480   5.1022722  66.5417875
  35.9810027   5.2875479  71.1044938  36.7570417   5.7771932  71.3769555
  35.2558161   5.7133533  71.5616807  38.4182586   6.0003099  72.1618878
  39.0127077   5.7598834  71.4512187  38.4909170   5.2810229  72.7892415
  20.6379742  19.8436709  72.4762043  20.5034209  19.0837110  71.9100041
  20.2211804  20.5677609  72.0090832  31.7738705  15.0273633  61.4838619
  32.4774555  15.2323635  62.0996274  31.0501353  15.5950395  61.7487702
  32.6036515  10.7783494  67.6040889  32.5471716  11.2352046  66.7648521
  33.1564857  10.0174179  67.4263731  36.4141321   6.5673226  68.4291008
  36.1578255   6.1669862  69.2599216  35.7894189   7.2817020  68.3041147
  40.7253659   9.3069299  70.9362300  40.1653217   9.3762489  71.7093862
  40.1197162   9.1310284  70.2161796  23.7948867  20.7406026  72.6880486
  23.6781252  21.6851459  72.5859176  22.9741314  20.4379588  73.0766285
  33.6825402  15.4656162  63.5337079  34.5171006  15.0337361  63.3514553
  33.5209745  15.2938176  64.4613973  33.3371294  11.9688275  64.8993418
  33.2820098  11.8032547  63.9581862  32.7117349  12.6764308  65.0555608
  30.6517201  14.2737187  84.2246981  31.5208361  14.4477840  83.8633616
  30.1723953  15.0931604  84.1022710  24.8203382  21.3934288  75.9036414
  25.7230628  21.4257899  76.2202909  24.5940752  20.4634739  75.9182750
  26.5756984  20.1465275  72.5646493  25.6252615  20.1467137  72.4510865
  26.8789470  19.3998009  72.0482528  42.3109677  25.9825813  73.6292255
  42.9488087  25.8632561  72.9255595  42.1930520  26.9306657  73.6880207
  39.1199383  25.9353241  73.5653780  38.7817895  25.8194306  72.6774315
  39.9889151  25.5344406  73.5454786  34.9786199  27.7888718  69.5550671
  34.4151064  27.6978655  68.7866959  34.8638594  26.9688622  70.0353163
  39.6019166  27.0888093  79.5239986  39.5907807  26.6940891  78.6520489
  39.7639806  26.3554166  80.1173757  32.5250631  29.2839909  72.3934891
  33.3171923  28.9430734  71.9781191  32.7647281  29.3934884  73.3137045
  40.5585758  31.4559686  64.8665136  39.9073737  32.0413766  64.4799150
  41.3530121  31.9865880  64.9260173  34.4841385  28.5448823  65.2652270
  35.2572261  27.9977810  65.1265146  34.8366784  29.4093072  65.4766732
  36.3226427  29.8725205  78.4719170  36.0316293  30.7770836  78.3565836
  36.9583412  29.9141733  79.1863239  37.2482634  27.2502053  75.0620529
  37.8446207  27.0258076  74.3477492  37.3057606  26.5086799  75.6645977
  36.8207663  24.7041489  62.8970720  37.0733183  24.1823010  62.1354183
  35.8832222  24.5407634  62.9997404  41.8650946  23.7077267  70.7045463
  42.6514035  23.2896690  70.3535880  42.1289650  24.6123359  70.8727112
  42.0361023  29.1450117  65.4034120  41.4006856  29.2184744  66.1155025
  41.7058429  29.7343716  64.7253199  47.2659373  23.6452500  71.6078442
  47.9984545  23.0751717  71.8416271  46.5098728  23.2574101  72.0484947
  36.5403951  26.6069595  65.0995095  36.4240210  25.9314498  65.7676179
  36.6506211  26.1201969  64.2827248  38.8835492  26.0679742  68.8041784
  38.5193700  25.5410363  69.5154706  39.7402608  25.6778211  68.6308270
  44.7884793  17.3574074  76.0673050  44.4568118  18.2269485  75.8434265
  44.1930406  17.0410358  76.7467081  38.5240979  21.0969642  63.8003133
  38.6915382  21.9649878  64.1673604  38.3338148  21.2596923  62.8764422
  41.2816313  29.5586620  75.4668963  40.9817036  30.4611659  75.3584770
  40.9367372  29.2918804  76.3190116  34.7328794  26.0100417  71.5005668
  33.8079290  25.8776631  71.7083359  34.9813207  26.7894637  71.9975610
  44.6813456  22.0769161  73.1466401  43.7730334  22.0084569  72.8525161
  44.6301052  22.5541106  73.9748226  38.5030200  23.5527299  64.7849800
  38.3829825  23.9984350  65.6235280  37.8082789  23.9012617  64.2263338
  32.0937605  25.6533691  72.3349457  32.2229986  25.9068170  73.2488868
  31.4135056  26.2461399  72.0154112  36.2637092  36.3230941  68.4339931
  36.1861122  37.2738766  68.5128411  35.6598736  35.9776813  69.0914857
  38.7554322  23.4958806  81.0901298  37.9787656  24.0552726  81.0804162
  39.3944885  23.9815589  81.6116168  46.5475103  20.2785599  74.9244274
  45.9049483  20.5718132  74.2784069  46.0430031  20.1638519  75.7297471
  44.2015266  24.0248772  65.6130134  45.1133122  24.2576159  65.4377831
  43.6924913  24.6085816  65.0505212  37.0100694  26.3044260  80.6519265
  37.7515379  26.8429304  80.3754088  36.3037680  26.9310548  80.8090817
  42.4856034  28.4473400  79.2491426  42.8939390  28.0055811  78.5046059
  41.7633296  27.8726028  79.5025619  38.8387104  23.3846007  76.6224983
  39.6848299  23.8085420  76.7659632  38.7785742  22.7279631  77.3163546
  42.8084849  29.0074591  73.0043715  42.1793711  29.1720305  72.3019783
  42.4210511  29.4216200  73.7754679  46.6874081  29.9429029  70.3588079
  46.0025119  30.3227930  69.8085112  46.7717930  30.5524355  71.0920027
  41.9886549  21.0450375  78.2806157  41.7447481  21.7992436  77.7440433
  42.2646480  21.4235723  79.1153404  43.9425012  27.5888988  76.9583422
  44.1541907  28.2320747  76.2817804  43.8954760  26.7551304  76.4905353
  41.5451241  20.2006808  73.8619995  40.6835720  20.4988062  74.1536732
  41.5713676  20.4177207  72.9301027  38.3612811  28.7448999  70.2693800
  38.8251156  29.0236702  69.4798423  38.0969609  27.8432443  70.0866891
  35.2536892  28.2920480  73.2073564  35.8238249  28.7207749  72.5691048
  35.8445003  28.0103065  73.9057749  37.2981697  24.8672151  67.0783365
  38.0005740  25.3193195  67.5457292  36.9662325  24.2255970  67.7063259
  35.7462058  23.4583908  81.4534575  35.1160719  24.1400189  81.6869972
  35.6398146  23.3466989  80.5087713  31.0407031  23.1255704  72.3800499
  30.2506085  23.3813232  71.9040610  31.5318278  23.9404042  72.4852540
  45.0570840  30.4660943  75.1305780  45.8788284  30.0641130  74.8488461
  45.0533243  30.3629177  76.0821896  32.9921776  23.4900283  69.3383976
  32.1952939  23.6018977  69.8567471  32.7647368  23.8286935  68.4724866
  38.8227444  30.0144986  77.2866490  38.8871876  30.4765393  78.1224662
  38.1138367  29.3842351  77.4148800  29.3244734  23.3786194  74.8115490
  29.5752772  24.2633204  75.0773066  29.8604282  23.1990796  74.0390582
  53.1476833  26.8099691  71.4790751  52.3940542  26.2407090  71.3234756
  53.2824374  26.7762356  72.4261386  38.5375461  31.6813094  67.1545471
  38.4021136  32.5264629  67.5830318  39.0785274  31.8832371  66.3911404
  35.0242801  17.7604674  83.8159826  34.6309746  17.2070872  84.4907470
  35.8408941  18.0715252  84.2066343  31.9904859  29.1988532  67.7273396
  32.5029379  29.9931782  67.8778960  32.6427571  28.5014822  67.6606997
  33.7999743  32.3154288  69.8096149  33.9766372  33.2372253  69.6217133
  34.5956577  32.0012707  70.2390529  37.9410762  19.1762553  81.4080082
  38.6820475  19.7769706  81.3284545  38.1728685  18.4340190  80.8498125
  33.0852100  24.3618920  79.6858312  32.9705615  23.4604177  79.9865411
  32.2296618  24.6082617  79.3343129  40.1643938  32.3036660  81.2845813
  39.7207792  31.5173039  80.9666717  40.8261151  32.4915811  80.6189703
  34.9231059  33.8332462  75.8106491  35.4738484  33.7049525  75.0383485
  34.0842535  34.1327351  75.4601384  42.2625176  32.5839460  79.3127214
  42.2443651  33.4048341  78.8207483  43.1845096  32.4593535  79.5377355
  38.7198230  30.0983590  80.1550722  39.2526567  29.3371878  79.9250030
  38.1912311  29.8057241  80.8974877  41.8867925  15.2043656  75.6844364
  41.5432194  16.0945297  75.6083475  42.2546887  15.0145313  74.8213949
  29.9553775  27.5277186  68.5032966  30.7928997  27.9374194  68.2866674
  30.1332043  26.5876628  68.4733160  41.8518208  25.1952267  64.1916799
  41.3364831  25.9656871  64.4305187  41.5795516  24.5217403  64.8149861
  39.4365319  20.0401968  69.2502038  38.5806915  19.6508818  69.0707676
  39.8492270  20.1193928  68.3901823  40.9664465  17.5748311  73.6493597
  40.4629261  17.5378446  72.8361403  41.2595072  18.4841054  73.7090254
  37.2107351  17.6587041  72.6559779  38.0760348  17.4629849  72.2965669
  37.2784860  17.4297392  73.5829136  46.8252482  27.9484621  66.1269973
  46.0481924  27.6095781  65.6825135  47.5043963  27.9537245  65.4524938
  41.6404511  23.0679359  66.0176580  41.3354646  23.3825508  66.8686724
  42.5934953  23.1460779  66.0603913  40.0850943  29.2269582  67.6669534
  39.5572304  28.4922342  67.3542772  39.5838445  30.0044258  67.4209503
  45.0643789  27.4218603  72.7836581  44.4067463  28.1117864  72.8716709
  45.8684188  27.8115035  73.1270567  34.8169670  19.8889248  70.0276146
  35.3913422  19.6664430  69.2949339  35.4040653  19.9577943  70.7804747
  43.8749247  25.7762975  70.8340522  44.3881129  26.4092967  71.3362232
  44.5250471  25.1764171  70.4683882  35.1439257  21.9193709  64.0472031
  34.3076570  22.2568396  64.3681306  35.0044027  21.7842689  63.1099168
  37.1192338  16.7630497  68.7551215  36.4656750  16.4479515  68.1307830
  37.0772812  16.1406238  69.4811038  38.2303543  27.0449792  60.6704507
  37.3230604  26.8139046  60.8695656  38.7274575  26.2487412  60.8578489
  41.1371622  35.7547300  63.5901194  40.4633320  36.0578996  64.1986151
  41.5237444  36.5576380  63.2406651  40.3530078  23.2512431  73.0798863
  39.4352640  23.4727378  72.9220551  40.7690222  23.3258741  72.2210570
  41.1365126  24.6503847  68.2101543  41.8836945  25.1625244  67.9008665
  41.4056716  24.3287899  69.0705937  39.4091776  27.1462387  65.1928497
  38.5002995  26.8621420  65.2900967  39.4386860  27.5661466  64.3331804
  44.6411044  30.7568977  68.9619665  44.1873371  29.9159887  69.0184856
  44.0105010  31.3930375  69.2994445  43.5843963  21.6860963  70.1920332
  42.8466720  21.1738349  70.5230575  43.8370737  21.2461344  69.3803609
  43.0843983  32.5945473  69.8969483  43.3766957  33.1550531  69.1781849
  43.5942603  32.8874034  70.6522642  43.6855590  14.4637215  70.7862102
  43.9914467  13.6034578  70.4988017  44.4108195  15.0554835  70.5861096
  29.9779947  24.8667901  69.1743700  29.7804346  24.2737262  68.4494766
  29.4226611  24.5620112  69.8919638  37.9576670  24.7591008  71.2938293
  38.0125280  23.8064844  71.2180769  37.1467872  24.9150447  71.7779591
  39.1067864  28.6871131  62.5316576  38.6687294  27.9706990  62.0722213
  39.8478305  28.9147246  61.9701667  35.8969030  23.3768068  69.0528672
  35.0836896  23.6762238  69.4593864  36.3928024  22.9823756  69.7703154
  38.0477608  33.3725825  70.9862936  38.0053787  33.5986671  70.0571468
  38.9640307  33.1389199  71.1348738  41.4943242  23.8409892  77.8843566
  41.8492630  24.0681365  78.7438031  42.1415373  24.1728269  77.2620821
  47.2240979  26.9628328  68.5892895  47.0858877  27.1529924  67.6614084
  46.8677198  27.7247711  69.0460946  35.3883105  20.9486423  74.6689907
  36.0282484  20.8075182  73.9712870  34.5560635  20.6620937  74.2928509
  47.2510358  29.0304855  73.6004166  47.6846865  28.9380144  74.4487220
  47.9641939  29.0062355  72.9624182  36.1643409  30.2488854  70.7824899
  36.9584007  29.7539174  70.5807474  35.4535101  29.7206717  70.4192605
  40.9838253  32.6306949  75.1337267  41.0375276  33.1997885  75.9014983
  40.1153035  32.8008834  74.7691304  32.4726172  24.3931935  66.8584652
  31.5423760  24.3316391  67.0754614  32.5683644  23.8707888  66.0621293
  32.3911721  20.9186748  69.4462893  32.6518539  21.8332081  69.3372054
  33.2128894  20.4511191  69.5959506  33.8636647  22.3324505  76.6161718
  34.5359700  22.1241867  75.9674367  33.0366433  22.1346591  76.1766950
  48.1125908  29.0728556  76.1337052  48.3061798  29.9774366  76.3796326
  48.0126526  28.6135975  76.9675637  39.7662219  18.9586446  78.6327379
  39.1190134  19.6576396  78.5391855  40.5363234  19.3922590  79.0003627
  43.1741017  29.2235298  81.7077932  43.0226523  28.9945850  80.7908016
  43.1645696  30.1805900  81.7209277  39.9426353  26.7967211  76.6924199
  40.8718413  26.9478371  76.5193166  39.5217383  26.8851232  75.8372845
  38.7414685  30.8217876  74.4622736  38.6025770  30.4536660  75.3348674
  37.9529281  31.3365515  74.2906694  39.3362837  35.9226972  65.8048273
  39.5114592  35.4515015  66.6193895  38.6495625  36.5492738  66.0329533
  40.2919900  30.1999478  71.8511574  39.9569733  30.1600248  72.7469224
  39.7923846  29.5344194  71.3781984  34.2664144  25.6067108  77.3764155
  34.1283942  24.8747347  77.9775694  35.1769067  25.5176008  77.0948343
  43.2279092  27.5455513  62.1248634  42.6108262  26.8202341  62.0281686
  42.7595580  28.3064873  61.7815708  36.8946445  25.3187068  76.8647835
  37.6046063  24.6780260  76.8234453  36.8515753  25.5699962  77.7874016
  44.8833223  32.2554421  79.7854414  44.8245769  31.5713641  79.1184997
  45.2852742  32.9973411  79.3335040  35.6075379  22.3052285  78.6843474
  35.0712736  21.8543024  79.3365071  35.0192087  22.4398194  77.9413939
  33.9023922  39.0716335  72.5788133  34.1420520  39.7034859  73.2567151
  33.0593119  38.7204375  72.8653492  35.0177637  21.7640937  61.2469938
  34.1407104  21.6429738  60.8832185  35.4935391  20.9727015  60.9948827
  44.8850631  30.2194005  78.0168394  43.9977409  29.8819927  78.1394793
  45.4549182  29.4877036  78.2537159  26.5379778  26.5518097  71.3411445
  27.2250817  26.2379827  70.7532460  26.3827906  27.4559461  71.0678696
  31.3414500  21.4408293  75.7696469  31.2572689  20.8333963  75.0346879
  30.5197206  21.9317312  75.7705965  38.4151784  34.8795457  74.9829637
  38.3421955  35.6850429  75.4948941  37.9729177  35.0787423  74.1577658
  38.2041564  34.1167227  68.4932458  37.4209085  34.6588907  68.5870683
  38.9034309  34.6341207  68.8926700  41.5138214  19.9261857  71.1366664
  42.0106913  19.1731819  70.8167734  40.7425195  19.9626173  70.5709873
  49.3667971  25.6302222  72.7784955  49.3557847  26.5126938  72.4078888
  48.4985350  25.2773773  72.5839492  40.8750467  34.7782291  77.1387796
  41.5878440  35.4129756  77.0663697  40.3840496  34.8746157  76.3227797
  42.5967994  28.6833544  68.7105087  41.6624273  28.8035006  68.5409792
  42.7744663  27.7806011  68.4465097  38.0973182  22.0679240  70.8638348
  37.7270970  21.5150280  71.5519254  38.5932275  21.4637373  70.3113348
  45.9840546  24.5250863  69.2455121  46.4500998  25.3578855  69.1715424
  46.4348046  24.0595845  69.9500380  35.9262381  32.5276735  77.9593366
  36.6271840  33.1613218  78.1122761  35.4557496  32.8691466  77.1989006
  44.0516777  30.8694685  66.2441273  44.3276621  30.7551279  67.1535147
  43.1821276  30.4712169  66.2053446  43.9557208  16.8931450  73.2846023
  43.0420288  17.1235677  73.4528230  44.3850310  16.9769894  74.1360055
  43.7263667  25.0821342  75.7845917  43.0735117  25.3297250  75.1298369
  44.1044047  24.2685480  75.4508394  40.6870841  35.1181035  69.8874087
  40.8693235  34.3002691  70.3501839  41.5103827  35.3348728  69.4498977
  41.0213006  34.0449220  67.1489135  41.5500773  33.5341675  66.5359298
  41.2841226  33.7291751  68.0134669  39.7751240  25.8241153  82.2711954
  39.0991877  25.7235283  82.9414329  40.5978874  25.6680367  82.7347951
  31.5230099  32.0613090  74.8924469  32.1083536  31.3156778  75.0252373
  31.3254937  32.3717046  75.7761133  34.3768754  35.0964337  69.9086911
  33.7079129  35.5810465  69.4250951  34.2381624  35.3433558  70.8230290
  26.1147754  24.6318690  73.6128912  26.1531853  24.0982281  74.4066030
  25.6088047  24.1053895  72.9939889  38.5174023  37.1308081  76.5069570
  39.0692331  37.2939702  77.2718655  38.8580216  37.7212519  75.8349595
  33.4938516  19.4783230  77.1091454  33.5579843  20.3398061  76.6968852
  33.4305636  18.8657232  76.3763813  32.9690789  21.5506363  80.7564489
  33.5962827  21.1683440  81.3702013  32.1118707  21.3320565  81.1220181
  43.3684897  31.9569338  82.3618224  43.9124801  32.5699296  81.8673179
  42.7871742  32.5148917  82.8785237  29.7456331  23.3582792  66.6882844
  30.0409772  22.4493471  66.6349897  28.8444367  23.3370532  66.3663846
  41.6542410  35.0790056  73.4933252  41.5293550  34.2779796  72.9844197
  42.3121501  35.5736250  73.0047222  33.2750578  21.4338789  72.6710392
  32.5537164  22.0474756  72.5317865  34.0643834  21.9696554  72.5927038
  43.7177318  32.8799076  75.1212802  42.7707654  32.7604427  75.0491129
  44.0660092  31.9921574  75.2039063  36.0776892  18.7693215  78.9451044
  36.6011294  19.0155512  79.7077353  35.8589225  19.6013250  78.5254181
  31.4744173  21.0396890  66.8122169  31.1456879  20.1594269  66.6297275
  31.8283544  20.9844558  67.6998558  40.7223752  32.6751793  71.3217154
  40.5748714  31.7468500  71.5024724  41.5477245  32.6971883  70.8374230
  34.5885996  21.3269860  67.1797646  34.9282069  21.8555781  66.4576255
  35.0358117  21.6650266  67.9556213  44.3257874  33.4980351  72.4082027
  45.2504421  33.2923213  72.2706478  44.1573177  33.2496752  73.3171369
  37.2829437  19.7106910  76.6300714  36.9426257  18.9114723  77.0321394
  36.5768443  20.0108621  76.0577548  37.9345909  16.7956223  75.0828037
  38.7571978  16.3216701  74.9606928  38.1783972  17.5746707  75.5826724
  36.5754143  19.8244481  65.3790939  37.2962506  20.2025734  64.8754656
  35.9519447  20.5433358  65.4825917  40.7185266  20.5289630  66.3149272
  40.9348880  21.4114268  66.0138100  40.2379333  20.1375844  65.5854914
  35.4584487  23.4875343  72.8920016  35.3129068  23.8015646  73.7844298
  34.9809691  24.1060244  72.3390915  37.3180870  20.4777891  72.9400906
  37.3042439  19.5818985  72.6033204  38.0353298  20.4848555  73.5739192
  39.1707001  20.9115232  74.9854033  38.9124779  21.8332302  74.9838364
  38.6392041  20.5145666  75.6754497  44.1153190  34.0166019  67.7644118
  44.2890067  33.4512441  67.0117971  44.6082081  34.8166914  67.5823608
  29.9330150  26.0280688  75.8307677  29.3883618  26.8040496  75.9627952
  30.8109500  26.3751492  75.6726799  36.7217766  19.3592272  68.2088476
  36.8433677  18.4308918  68.4079363  36.4319809  19.3730958  67.2966791
  39.5908957  17.0447182  71.3455196  39.6130654  17.1086515  70.3907175
  40.0077016  16.2051691  71.5395702  49.9692581  26.7802442  69.3834418
  50.4123727  26.0309767  68.9853541  49.0919091  26.7712578  69.0008150
  45.1028362  33.3332783  64.8641017  45.7979267  33.9539476  65.0828331
  45.4451512  32.4828134  65.1393395  30.7196172  25.1550584  78.7237834
  29.9777908  25.3033219  79.3102465  30.3988916  25.4158850  77.8604584
  47.0019785  30.7832489  66.3928348  47.5271110  31.1219761  65.6677668
  46.9142138  29.8479504  66.2091482  38.6639834  34.6966562  78.5218224
  38.9726961  34.4515709  79.3940924  39.4615316  34.9013201  78.0337094
  38.6860446  36.8504472  70.7523601  38.2465436  36.3580851  71.4456457
  39.4368563  36.3077440  70.5115676  31.1652785  33.0416013  70.7548229
  31.9910805  32.7419785  70.3746872  30.8146837  32.2723635  71.2038017
  36.1334318  32.3942481  72.8245902  35.5114328  31.7313186  72.5248130
  36.8039185  32.4203613  72.1419550  29.3661390  30.9602339  71.7137162
  28.5293299  30.5324514  71.5321164  29.3385036  31.1534783  72.6507954
  36.2058846  20.8724269  82.4178408  36.2547001  21.7486392  82.0356178
  36.7481360  20.3301662  81.8450052  46.6913692  31.4165392  81.6979545
  45.9009235  31.3989531  81.1584045  46.4547046  31.9553686  82.4528582
  46.8111567  28.2657859  79.0112274  46.8609571  28.1007866  79.9527797
  46.7025490  27.3985118  78.6210155  35.6947825  30.9446404  66.3004363
  35.8435946  31.6281869  65.6471036  36.5014269  30.9251494  66.8153819
  44.1015329  24.2488787  80.3271581  45.0025192  24.1095252  80.0355579
  44.1763303  24.4143242  81.2669758  38.4358134  21.6255641  79.1724767
  37.5661444  21.9189207  78.9007356  38.6717615  22.2096086  79.8932031
  48.3129763  30.6854800  79.2554296  48.0214572  31.0484781  80.0917757
  47.7001895  29.9721808  79.0767628  49.5125446  28.2507680  71.7756866
  50.3472337  28.6897484  71.9394426  49.6484575  27.7746333  70.9565112
  46.5616952  25.8087415  77.7234354  47.0371073  26.0015061  76.9153205
  45.6382517  25.8646601  77.4777737  33.4500458  26.9711582  67.3065432
  33.2046500  26.0673912  67.5045642  33.6196373  26.9728732  66.3644910
  41.1397168  17.8435258  76.6890187  41.6579112  18.5796285  76.3636676
  40.7852301  18.1499252  77.5236947  32.7196106  22.7039940  64.8051593
  32.0265351  22.7784295  64.1491629  32.4747858  21.9400283  65.3273110
  41.3909762  14.2635541  72.2091084  41.6711516  13.5958730  72.8351511
  42.1760369  14.4564636  71.6965748  39.1943231  33.4394535  63.7716110
  38.6217198  34.0584722  63.3186582  39.7676024  33.9893896  64.3056032
  45.2618621  22.6853175  75.9562659  46.2136044  22.7851273  75.9774883
  45.0922071  21.8931443  76.4660744  43.2833000  19.7708758  76.1422060
  42.6882932  20.0513771  75.4468549  42.9982697  20.2602659  76.9138801
  42.4140491  33.7231685  64.9024693  43.3471164  33.6577247  65.1057568
  42.3263703  34.5587952  64.4439225  45.0428507  33.0397555  61.8628640
  44.9642139  32.7057419  62.7564398  45.8638174  33.5319323  61.8620113
  47.7406698  25.9059295  75.0704959  47.7083019  24.9675295  75.2564643
  48.3507322  25.9843331  74.3370784  39.5790029  24.7755348  61.1132163
  40.5249134  24.6461556  61.1820581  39.2004274  24.0370009  61.5901591
  47.8901187  22.6970338  75.1163242  47.3740236  21.9128795  74.9293171
  48.7741135  22.3689055  75.2809761  45.5511914  16.4411354  71.0759055
  45.3536735  16.1326442  71.9602387  46.1611619  17.1672992  71.2056985
  53.5583248  26.9675301  74.2110996  54.2886637  26.7060590  74.7718699
  52.9490194  26.2304023  74.2513064  51.6398545  25.1083164  74.8085447
  50.9131709  24.9739129  74.2001938  51.2245832  25.4159993  75.6142165
  39.4628722  28.8273094  82.5732820  40.3831731  29.0051693  82.7672866
  39.4278305  27.8829139  82.4212519  37.7632946  22.7005324  61.0487048
  36.8564402  22.4038437  61.1249762  38.0408927  22.4035142  60.1821334
  28.6810887  24.0211687  71.4986094  28.3613671  23.1676996  71.2060468
  28.1344315  24.2360265  72.2544062  32.4590794  26.7374128  75.2155601
  32.6776804  27.6691236  75.2343635  32.8716568  26.3782103  76.0010405
  39.3795012  17.2442214  67.2031289  38.5695740  16.8989299  67.5786535
  40.0679429  16.9349757  67.7918901  41.3085560  16.3220260  68.8255586
  41.8616599  16.7415714  69.4845609  41.5455647  15.3956009  68.8678542
  37.3318660  22.3107334  84.6058350  37.2315387  23.2601691  84.5370441
  37.1140202  21.9825573  83.7334420  36.5331731  19.5592259  61.1899027
  37.3950895  19.8847157  61.4494845  36.7182075  18.7723755  60.6772093
  28.5499147  27.6414599  73.4679216  27.8562618  27.2268552  72.9549170
  29.2972138  27.6835135  72.8712635  44.6864368  18.4320786  68.3334250
  44.1063037  19.0905590  67.9512303  44.4200300  17.6098130  67.9221668
  43.1367934  17.8325843  70.5355571  43.6367712  17.9442378  69.7269889
  43.7803542  17.5286896  71.1756379  37.1949930  25.7404473  83.4223412
  36.7117011  26.5404833  83.6287301  37.2810869  25.7512418  82.4690856
  30.4635889  27.5732853  71.3445231  30.4406577  27.6720540  70.3927114
  30.7736526  28.4198003  71.6662397  33.1223267  29.6309008  75.4591845
  34.0766521  29.5992950  75.3921777  32.9235791  29.1699631  76.2742071
  33.7122649  28.2010124  78.0262643  34.5315538  28.6954202  78.0497480
  33.9859457  27.2842092  77.9980211  43.4689246  20.5920876  67.3890599
  42.5815101  20.8770527  67.1710793  43.8843235  20.4314639  66.5417875
  46.8203782  20.6167397  71.1044938  47.5964172  21.1063849  71.3769555
  46.0951916  21.0425451  71.5616807  49.2576340  21.3295016  72.1618878
  49.8520831  21.0890752  71.4512187  49.3302924  20.6102147  72.7892415
  31.4773496  35.1728627  72.4762043  31.3427964  34.4129028  71.9100041
  31.0605558  35.8969527  72.0090832  42.6132459  30.3565551  61.4838619
  43.3168309  30.5615553  62.0996274  41.8895108  30.9242313  61.7487702
  43.4430269  26.1075412  67.6040889  43.3865471  26.5643963  66.7648521
  43.9958612  25.3466097  67.4263731  47.2535075  21.8965144  68.4291008
  46.9972009  21.4961779  69.2599216  46.6287943  22.6108938  68.3041147
  51.5647413  24.6361217  70.9362300  51.0046971  24.7054406  71.7093862
  50.9590916  24.4602202  70.2161796  34.6342622  36.0697944  72.6880486
  34.5175006  37.0143377  72.5859176  33.8135068  35.7671506  73.0766285
  44.5219156  30.7948080  63.5337079  45.3564760  30.3629278  63.3514553
  44.3603499  30.6230094  64.4613973  44.1765049  27.2980193  64.8993418
  44.1213852  27.1324465  63.9581862  43.5511104  28.0056226  65.0555608
  28.9657564  22.5348258  78.7254840  29.6116427  22.0247212  79.2142065
  28.7574715  23.2716939  79.2998265  41.4910956  29.6029105  84.2246981
  42.3602115  29.7769757  83.8633616  41.0117707  30.4223522  84.1022710
  37.4861174  16.7988302  64.4778736  37.4739844  17.7430142  64.6347007
  38.3784596  16.6158448  64.1838197  35.6597136  36.7226206  75.9036414
  36.5624383  36.7549816  76.2202909  35.4334506  35.7926657  75.9182750
  37.4150738  35.4757193  72.5646493  36.4646369  35.4759054  72.4510865
  37.7183224  34.7289927  72.0482528  41.3013294  13.3931079  68.7324673
  40.5345689  12.8389566  68.8781355  41.7123998  13.4652948  69.5938825
  33.3055055  19.6815875  82.8229854  34.1686516  19.3252679  83.0333179
  32.7320465  19.3429769  83.5105259  49.9593138  41.2645159  73.5653780
  49.6211649  41.1486224  72.6774315  50.8282906  40.8636324  73.5454786
  45.8179953  43.1180635  69.5550671  45.2544819  43.0270572  68.7866959
  45.7032349  42.2980540  70.0353163  50.4412921  42.4180011  79.5239986
  50.4301562  42.0232809  78.6520489  50.6033560  41.6846083  80.1173757
  43.3644385  44.6131827  72.3934891  44.1565677  44.2722652  71.9781191
  43.6041036  44.7226802  73.3137045  51.3979512  46.7851603  64.8665136
  50.7467492  47.3705684  64.4799150  52.1923875  47.3157798  64.9260173
  45.3235139  43.8740740  65.2652270  46.0966015  43.3269727  65.1265146
  45.6760538  44.7384990  65.4766732  48.0876389  42.5793971  75.0620529
  48.6839961  42.3549994  74.3477492  48.1451360  41.8378717  75.6645977
  47.6601417  40.0333406  62.8970720  47.9126938  39.5114928  62.1354183
  46.7225976  39.8699552  62.9997404  52.7044700  39.0369185  70.7045463
  53.4907789  38.6188608  70.3535880  52.9683404  39.9415277  70.8727112
  52.8754777  44.4742035  65.4034120  52.2400610  44.5476662  66.1155025
  52.5452184  45.0635634  64.7253199  47.3797706  41.9361512  65.0995095
  47.2633964  41.2606416  65.7676179  47.4899966  41.4493886  64.2827248
  49.7229247  41.3971660  68.8041784  49.3587454  40.8702280  69.5154706
  50.5796363  41.0070129  68.6308270  55.6278547  32.6865992  76.0673050
  55.2961872  33.5561403  75.8434265  55.0324161  32.3702276  76.7467081
  49.3634734  36.4261559  63.8003133  49.5309136  37.2941796  64.1673604
  49.1731903  36.5888841  62.8764422  52.1210067  44.8878538  75.4668963
  51.8210790  45.7903577  75.3584770  51.7761127  44.6210721  76.3190116
  45.5722548  41.3392335  71.5005668  44.6473045  41.2068549  71.7083359
  45.8206962  42.1186554  71.9975610  55.5207211  37.4061078  73.1466401
  54.6124088  37.3376487  72.8525161  55.4694807  37.8833023  73.9748226
  49.3423955  38.8819217  64.7849800  49.2223580  39.3276267  65.6235280
  48.6476543  39.2304534  64.2263338  42.9331360  40.9825609  72.3349457
  43.0623741  41.2360087  73.2488868  42.2528811  41.5753317  72.0154112
  49.5948077  38.8250724  81.0901298  48.8181411  39.3844644  81.0804162
  50.2338640  39.3107507  81.6116168  57.3868857  35.6077517  74.9244274
  56.7443237  35.9010050  74.2784069  56.8823786  35.4930437  75.7297471
  55.0409021  39.3540690  65.6130134  55.9526877  39.5868077  65.4377831
  54.5318668  39.9377734  65.0505212  47.8494449  41.6336177  80.6519265
  48.5909133  42.1721221  80.3754088  47.1431434  42.2602466  80.8090817
  53.3249789  43.7765318  79.2491426  53.7333145  43.3347728  78.5046059
  52.6027050  43.2017945  79.5025619  49.6780859  38.7137924  76.6224983
  50.5242054  39.1377338  76.7659632  49.6179496  38.0571549  77.3163546
  52.8280304  36.3742293  78.2806157  52.5841236  37.1284353  77.7440433
  53.1040234  36.7527640  79.1153404  52.3844996  35.5298726  73.8619995
  51.5229475  35.8279979  74.1536732  52.4107430  35.7469125  72.9301027
  49.2006565  44.0740916  70.2693800  49.6644911  44.3528619  69.4798423
  48.9363363  43.1724361  70.0866891  46.0930646  43.6212398  73.2073564
  46.6632003  44.0499666  72.5691048  46.6838758  43.3394983  73.9057749
  48.1375451  40.1964069  67.0783365  48.8399494  40.6485112  67.5457292
  47.8056080  39.5547888  67.7063259  46.5855813  38.7875825  81.4534575
  45.9554473  39.4692106  81.6869972  46.4791901  38.6758907  80.5087713
  41.8800785  38.4547621  72.3800499  41.0899839  38.7105150  71.9040610
  42.3712032  39.2695959  72.4852540  43.8315530  38.8192201  69.3383976
  43.0346694  38.9310895  69.8567471  43.6041123  39.1578853  68.4724866
  49.6621198  45.3436904  77.2866490  49.7265631  45.8057311  78.1224662
  48.9532122  44.7134269  77.4148800  40.1638488  38.7078112  74.8115490
  40.4146526  39.5925122  75.0773066  40.6998036  38.5282713  74.0390582
  49.3769216  47.0105011  67.1545471  49.2414891  47.8556547  67.5830318
  49.9179028  47.2124289  66.3911404  45.8636555  33.0896591  83.8159826
  45.4703501  32.5362790  84.4907470  46.6802696  33.4007170  84.2066343
  42.8298613  44.5280449  67.7273396  43.3423134  45.3223700  67.8778960
  43.4821326  43.8306740  67.6606997  44.6393498  47.6446206  69.8096149
  44.8160126  48.5664170  69.6217133  45.4350331  47.3304625  70.2390529
  48.7804516  34.5054470  81.4080082  49.5214230  35.1061624  81.3284545
  49.0122439  33.7632108  80.8498125  43.9245854  39.6910838  79.6858312
  43.8099369  38.7896095  79.9865411  43.0690372  39.9374534  79.3343129
  51.0037692  47.6328578  81.2845813  50.5601546  46.8464956  80.9666717
  51.6654906  47.8207728  80.6189703  49.5591984  45.4275507  80.1550722
  50.0920321  44.6663796  79.9250030  49.0306065  45.1349159  80.8974877
  52.7261679  30.5335573  75.6844364  52.3825949  31.4237215  75.6083475
  53.0940642  30.3437231  74.8213949  40.7947530  42.8569104  68.5032966
  41.6322752  43.2666112  68.2866674  40.9725798  41.9168546  68.4733160
  52.6911962  40.5244184  64.1916799  52.1758585  41.2948789  64.4305187
  52.4189270  39.8509321  64.8149861  50.2759073  35.3693885  69.2502038
  49.4200669  34.9800736  69.0707676  50.6886025  35.4485846  68.3901823
  51.8058220  32.9040228  73.6493597  51.3023015  32.8670364  72.8361403
  52.0988827  33.8132971  73.7090254  48.0501106  32.9878958  72.6559779
  48.9154102  32.7921767  72.2965669  48.1178614  32.7589310  73.5829136
  57.6646236  43.2776539  66.1269973  56.8875679  42.9387699  65.6825135
  58.3437717  43.2829162  65.4524938  52.4798265  38.3971277  66.0176580
  52.1748401  38.7117426  66.8686724  53.4328707  38.4752696  66.0603913
  50.9244697  44.5561500  67.6669534  50.3966059  43.8214259  67.3542772
  50.4232200  45.3336176  67.4209503  45.6563425  35.2181166  70.0276146
  46.2307177  34.9956348  69.2949339  46.2434407  35.2869861  70.7804747
  45.9833012  37.2485627  64.0472031  45.1470324  37.5860314  64.3681306
  45.8437781  37.1134607  63.1099168  47.9586092  32.0922415  68.7551215
  47.3050505  31.7771432  68.1307830  47.9166566  31.4698155  69.4811038
  49.0697297  42.3741710  60.6704507  48.1624359  42.1430964  60.8695656
  49.5668329  41.5779329  60.8578489  51.9765376  51.0839217  63.5901194
  51.3027075  51.3870914  64.1986151  52.3631198  51.8868298  63.2406651
  51.1923833  38.5804349  73.0798863  50.2746394  38.8019296  72.9220551
  51.6083976  38.6550659  72.2210570  51.9758880  39.9795764  68.2101543
  52.7230699  40.4917161  67.9008665  52.2450470  39.6579817  69.0705937
  50.2485531  42.4754305  65.1928497  49.3396750  42.1913338  65.2900967
  50.2780614  42.8953384  64.3331804  54.4237718  37.0152880  70.1920332
  53.6860474  36.5030267  70.5230575  54.6764491  36.5753262  69.3803609
  54.5249345  29.7929132  70.7862102  54.8308222  28.9326496  70.4988017
  55.2501950  30.3846753  70.5861096  40.8173701  40.1959819  69.1743700
  40.6198101  39.6029180  68.4494766  40.2620365  39.8912029  69.8919638
  48.7970425  40.0882926  71.2938293  48.8519034  39.1356762  71.2180769
  47.9861627  40.2442365  71.7779591  49.9461618  44.0163049  62.5316576
  49.5081048  43.2998908  62.0722213  50.6872059  44.2439163  61.9701667
  46.7362785  38.7059985  69.0528672  45.9230650  39.0054156  69.4593864
  47.2321779  38.3115674  69.7703154  52.3336996  39.1701810  77.8843566
  52.6886384  39.3973283  78.7438031  52.9809128  39.5020187  77.2620821
  46.2276859  36.2778341  74.6689907  46.8676239  36.1367100  73.9712870
  45.3954390  35.9912854  74.2928509  47.0037163  45.5780771  70.7824899
  47.7977762  45.0831091  70.5807474  46.2928856  45.0498634  70.4192605
  43.3119927  39.7223853  66.8584652  42.3817515  39.6608308  67.0754614
  43.4077399  39.1999806  66.0621293  43.2305476  36.2478666  69.4462893
  43.4912293  37.1623999  69.3372054  44.0522648  35.7803108  69.5959506
  44.7030401  37.6616423  76.6161718  45.3753455  37.4533785  75.9674367
  43.8760188  37.4638509  76.1766950  50.6055973  34.2878364  78.6327379
  49.9583888  34.9868314  78.5391855  51.3756989  34.7214508  79.0003627
  54.0134771  44.5527216  81.7077932  53.8620277  44.3237768  80.7908016
  54.0039451  45.5097817  81.7209277  50.7820107  42.1259129  76.6924199
  51.7112167  42.2770288  76.5193166  50.3611138  42.2143150  75.8372845
  50.1756591  51.2518890  65.8048273  50.3508347  50.7806933  66.6193895
  49.4889379  51.8784656  66.0329533  45.1057898  40.9359026  77.3764155
  44.9677696  40.2039265  77.9775694  46.0162822  40.8467926  77.0948343
  54.0672846  42.8747430  62.1248634  53.4502017  42.1494258  62.0281686
  53.5989335  43.6356791  61.7815708  47.7340199  40.6478985  76.8647835
  48.4439818  40.0072177  76.8234453  47.6909507  40.8991880  77.7874016
  46.4469133  37.6344203  78.6843474  45.9106490  37.1834942  79.3365071
  45.8585841  37.7690112  77.9413939  45.8571392  37.0932855  61.2469938
  44.9800858  36.9721655  60.8832185  46.3329145  36.3018933  60.9948827
  37.3773532  41.8810014  71.3411445  38.0644572  41.5671744  70.7532460
  37.2221661  42.7851379  71.0678696  42.1808254  36.7700211  75.7696469
  42.0966443  36.1625880  75.0346879  41.3590961  37.2609229  75.7705965
  49.0435318  49.4459145  68.4932458  48.2602840  49.9880825  68.5870683
  49.7428063  49.9633125  68.8926700  52.3531968  35.2553774  71.1366664
  52.8500668  34.5023737  70.8167734  51.5818950  35.2918091  70.5709873
  48.9366937  37.3971157  70.8638348  48.5664724  36.8442198  71.5519254
  49.4326029  36.7929291  70.3113348  56.8234300  39.8542781  69.2455121
  57.2894752  40.6870772  69.1715424  57.2741801  39.3887762  69.9500380
  54.7950963  32.2223368  73.2846023  53.8814043  32.4527595  73.4528230
  55.2244064  32.3061812  74.1360055  51.8606761  49.3741138  67.1489135
  52.3894527  48.8633593  66.5359298  52.1234980  49.0583668  68.0134669
  50.6144994  41.1533071  82.2711954  49.9385631  41.0527200  82.9414329
  51.4372628  40.9972285  82.7347951  42.3623854  47.3905007  74.8924469
  42.9477290  46.6448695  75.0252373  42.1648692  47.7008964  75.7761133
  36.9541508  39.9610608  73.6128912  36.9925608  39.4274198  74.4066030
  36.4481801  39.4345813  72.9939889  44.3332271  34.8075148  77.1091454
  44.3973597  35.6689979  76.6968852  44.2699391  34.1949150  76.3763813
  43.8084543  36.8798281  80.7564489  44.4356582  36.4975358  81.3702013
  42.9512462  36.6612483  81.1220181  40.5850086  38.6874710  66.6882844
  40.8803527  37.7785388  66.6349897  39.6838122  38.6662449  66.3663846
  44.1144333  36.7630706  72.6710392  43.3930919  37.3766674  72.5317865
  44.9037589  37.2988471  72.5927038  46.9170646  34.0985133  78.9451044
  47.4405048  34.3447429  79.7077353  46.6982980  34.9305168  78.5254181
  42.3137927  36.3688807  66.8122169  41.9850634  35.4886186  66.6297275
  42.6677298  36.3136476  67.6998558  45.4279751  36.6561777  67.1797646
  45.7675823  37.1847699  66.4576255  45.8751871  36.9942183  67.9556213
  48.1223191  35.0398828  76.6300714  47.7820012  34.2406641  77.0321394
  47.4162198  35.3400539  76.0577548  48.7739663  32.1248140  75.0828037
  49.5965733  31.6508619  74.9606928  49.0177727  32.9038624  75.5826724
  47.4147898  35.1536399  65.3790939  48.1356260  35.5317652  64.8754656
  46.7913202  35.8725276  65.4825917  51.5579021  35.8581548  66.3149272
  51.7742635  36.7406186  66.0138100  51.0773088  35.4667761  65.5854914
  46.2978242  38.8167261  72.8920016  46.1522823  39.1307564  73.7844298
  45.8203446  39.4352161  72.3390915  48.1574625  35.8069809  72.9400906
  48.1436194  34.9110902  72.6033204  48.8747053  35.8140473  73.5739192
  50.0100756  36.2407149  74.9854033  49.7518533  37.1624220  74.9838364
  49.4785796  35.8437584  75.6754497  40.7723904  41.3572605  75.8307677
  40.2277372  42.1332413  75.9627952  41.6503254  41.7043410  75.6726799
  47.5611521  34.6884189  68.2088476  47.6827432  33.7600836  68.4079363
  47.2713563  34.7022875  67.2966791  50.4302711  32.3739100  71.3455196
  50.4524408  32.4378433  70.3907175  50.8470770  31.5343608  71.5395702
  55.9422117  48.6624701  64.8641017  56.6373021  49.2831393  65.0828331
  56.2845267  47.8120052  65.1393395  41.5589926  40.4842502  78.7237834
  40.8171662  40.6325137  79.3102465  41.2382670  40.7450767  77.8604584
  42.0046540  48.3707930  70.7548229  42.8304560  48.0711702  70.3746872
  41.6540592  47.6015553  71.2038017  40.2055145  46.2894257  71.7137162
  39.3687053  45.8616431  71.5321164  40.1778790  46.4826700  72.6507954
  47.0452600  36.2016187  82.4178408  47.0940756  37.0778309  82.0356178
  47.5875115  35.6593580  81.8450052  46.5341580  46.2738322  66.3004363
  46.6829700  46.9573786  65.6471036  47.3408023  46.2543412  66.8153819
  54.9409083  39.5780704  80.3271581  55.8418946  39.4387169  80.0355579
  55.0157058  39.7435159  81.2669758  49.2751889  36.9547559  79.1724767
  48.4055198  37.2481125  78.9007356  49.5111369  37.5388004  79.8932031
  44.2894213  42.3003500  67.3065432  44.0440255  41.3965830  67.5045642
  44.4590127  42.3020650  66.3644910  51.9790923  33.1727176  76.6890187
  52.4972866  33.9088203  76.3636676  51.6246055  33.4791169  77.5236947
  43.5589860  38.0331857  64.8051593  42.8659105  38.1076212  64.1491629
  43.3141612  37.2692201  65.3273110  52.2303517  29.5927459  72.2091084
  52.5105271  28.9250648  72.8351511  53.0154124  29.7856554  71.6965748
  50.0336985  48.7686452  63.7716110  49.4610952  49.3876640  63.3186582
  50.6069779  49.3185814  64.3056032  56.1012375  38.0145093  75.9562659
  57.0529798  38.1143190  75.9774883  55.9315826  37.2223361  76.4660744
  54.1226755  35.1000676  76.1422060  53.5276687  35.3805688  75.4468549
  53.8376451  35.5894577  76.9138801  53.2534245  49.0523603  64.9024693
  54.1864918  48.9869164  65.1057568  53.1657458  49.8879869  64.4439225
  55.8822262  48.3689473  61.8628640  55.8035893  48.0349337  62.7564398
  56.7031929  48.8611241  61.8620113  50.4183784  40.1047265  61.1132163
  51.3642888  39.9753473  61.1820581  50.0398029  39.3661927  61.5901591
  56.3905668  31.7703271  71.0759055  56.1930489  31.4618359  71.9602387
  57.0005374  32.4964910  71.2056985  50.3022476  44.1565011  82.5732820
  51.2225486  44.3343610  82.7672866  50.2672059  43.2121057  82.4212519
  48.6026701  38.0297242  61.0487048  47.6958156  37.7330354  61.1249762
  48.8802682  37.7327060  60.1821334  39.5204641  39.3503605  71.4986094
  39.2007426  38.4968913  71.2060468  38.9738069  39.5652183  72.2544062
  43.2984549  42.0666046  75.2155601  43.5170559  42.9983154  75.2343635
  43.7110323  41.7074020  76.0010405  50.2188767  32.5734131  67.2031289
  49.4089495  32.2281216  67.5786535  50.9073184  32.2641675  67.7918901
  52.1479315  31.6512178  68.8255586  52.7010354  32.0707632  69.4845609
  52.3849401  30.7247926  68.8678542  48.1712414  37.6399252  84.6058350
  48.0709141  38.5893609  84.5370441  47.9533956  37.3117491  83.7334420
  47.3725486  34.8884177  61.1899027  48.2344650  35.2139075  61.4494845
  47.5575830  34.1015673  60.6772093  39.3892901  42.9706516  73.4679216
  38.6956373  42.5560469  72.9549170  40.1365892  43.0127053  72.8712635
  55.5258122  33.7612703  68.3334250  54.9456791  34.4197507  67.9512303
  55.2594055  32.9390048  67.9221668  53.9761688  33.1617761  70.5355571
  54.4761467  33.2734296  69.7269889  54.6197296  32.8578814  71.1756379
  48.0343684  41.0696391  83.4223412  47.5510766  41.8696751  83.6287301
  48.1204623  41.0804335  82.4690856  41.3029644  42.9024770  71.3445231
  41.2800332  43.0012458  70.3927114  41.6130280  43.7489921  71.6662397
  43.9617022  44.9600925  75.4591845  44.9160275  44.9284868  75.3921777
  43.7629545  44.4991549  76.2742071  44.5516404  43.5302041  78.0262643
  45.3709293  44.0246120  78.0497480  44.8253212  42.6134009  77.9980211
  54.3083000  35.9212794  67.3890599  53.4208855  36.2062444  67.1710793
  54.7236989  35.7606557  66.5417875  57.6597536  35.9459315  71.1044938
  58.4357926  36.4355767  71.3769555  56.9345670  36.3717369  71.5616807
  60.0970095  36.6586934  72.1618878  60.6914586  36.4182670  71.4512187
  60.1696679  35.9394064  72.7892415  42.3167250  50.5020545  72.4762043
  42.1821718  49.7420946  71.9100041  41.8999313  51.2261445  72.0090832
  53.4526214  45.6857468  61.4838619  54.1562064  45.8907471  62.0996274
  52.7288862  46.2534230  61.7487702  54.2824024  41.4367330  67.6040889
  54.2259225  41.8935881  66.7648521  54.8352366  40.6758014  67.4263731
  58.0928830  37.2257061  68.4291008  57.8365764  36.8253697  69.2599216
  57.4681698  37.9400855  68.3041147  55.3612911  46.1239998  63.5337079
  56.1958515  45.6921196  63.3514553  55.1997254  45.9522011  64.4613973
  55.0158803  42.6272111  64.8993418  54.9607607  42.4616382  63.9581862
  54.3904858  43.3348144  65.0555608  39.8051318  37.8640175  78.7254840
  40.4510182  37.3539129  79.2142065  39.5968469  38.6008857  79.2998265
  52.3304710  44.9321023  84.2246981  53.1995870  45.1061675  83.8633616
  51.8511462  45.7515440  84.1022710  48.3254929  32.1280220  64.4778736
  48.3133598  33.0722060  64.6347007  49.2178350  31.9450365  64.1838197
  52.1407048  28.7222996  68.7324673  51.3739444  28.1681483  68.8781355
  52.5517753  28.7944865  69.5938825  44.1448809  35.0107792  82.8229854
  45.0080271  34.6544597  83.0333179  43.5714220  34.6721687  83.5105259
  58.4995172  55.3625324  62.8970720  58.7520692  54.8406845  62.1354183
  57.5619731  55.1991470  62.9997404  58.2191460  57.2653430  65.0995095
  58.1027719  56.5898333  65.7676179  58.3293720  56.7785804  64.2827248
  56.8226766  52.5777545  64.0472031  55.9864078  52.9152231  64.3681306
  56.6831536  52.4426525  63.1099168  59.9091052  57.7033628  60.6704507
  59.0018113  57.4722881  60.8695656  60.4062084  56.9071247  60.8578489
  56.6965146  52.4224772  61.2469938  55.8194613  52.3013573  60.8832185
  57.1722900  51.6310851  60.9948827  53.1531682  51.6980725  66.8122169
  52.8244388  50.8178104  66.6297275  53.5071053  51.6428394  67.6998558
  54.3983615  53.3623775  64.8051593  53.7052860  53.4368130  64.1491629
  54.1535367  52.5984119  65.3273110  59.4420455  53.3589159  61.0487048
  58.5351911  53.0622272  61.1249762  59.7196436  53.0618977  60.1821334
  82.9594184  88.4055764  79.5239986  82.9482825  88.0108562  78.6520489
  83.1214824  87.6721836  80.1173757  75.8825649  90.6007580  72.3934891
  76.6746941  90.2598405  71.9781191  76.1222299  90.7102555  73.3137045
  79.6801445  91.1892876  78.4719170  79.3891311  92.0938506  78.3565836
  80.3158430  91.2309403  79.1863239  79.8978969  87.9237265  65.0995095
  79.7815227  87.2482169  65.7676179  80.0081229  87.4369639  64.2827248
  84.6391330  90.8754291  75.4668963  84.3392054  91.7779330  75.3584770
  84.2942390  90.6086474  76.3190116  79.6212110  97.6398611  68.4339931
  79.5436140  98.5906437  68.5128411  79.0173754  97.2944484  69.0914857
  85.8431052  89.7641071  79.2491426  86.2514408  89.3223481  78.5046059
  85.1208314  89.1893698  79.5025619  81.7187829  90.0616669  70.2693800
  82.1826174  90.3404372  69.4798423  81.4544627  89.1600114  70.0866891
  80.6556715  86.1839822  67.0783365  81.3580758  86.6360865  67.5457292
  80.3237343  85.5423641  67.7063259  88.4145858  91.7828614  75.1305780
  89.2363302  91.3808801  74.8488461  88.4108261  91.6796848  76.0821896
  82.1802462  91.3312657  77.2866490  82.2446894  91.7933064  78.1224662
  81.4713385  90.7010022  77.4148800  72.6819752  84.6953865  74.8115490
  72.9327790  85.5800875  75.0773066  73.2179300  84.5158466  74.0390582
  81.8950479  92.9980764  67.1545471  81.7596154  93.8432300  67.5830318
  82.4360292  93.2000042  66.3911404  75.3479877  90.5156202  67.7273396
  75.8604397  91.3099453  67.8778960  76.0002589  89.8182493  67.6606997
  77.1574761  93.6321959  69.8096149  77.3341390  94.5539923  69.6217133
  77.9531595  93.3180378  70.2390529  83.5218956  93.6204331  81.2845813
  83.0782810  92.8340710  80.9666717  84.1836169  93.8083481  80.6189703
  78.2806077  95.1500133  75.8106491  78.8313502  95.0217196  75.0383485
  77.4417553  95.4495022  75.4601384  85.6200194  93.9007131  79.3127214
  85.6018669  94.7216012  78.8207483  86.5420114  93.7761206  79.5377355
  82.0773248  91.4151260  80.1550722  82.6101585  90.6539549  79.9250030
  81.5487329  91.1224912  80.8974877  83.4425961  90.5437253  67.6669534
  82.9147322  89.8090012  67.3542772  82.9413463  91.3211929  67.4209503
  84.4946640  97.0714970  63.5901194  83.8208338  97.3746667  64.1986151
  84.8812462  97.8744051  63.2406651  86.4419001  93.9113144  69.8969483
  86.7341975  94.4718201  69.1781849  86.9517621  94.2041705  70.6522642
  79.2544048  84.6935738  69.0528672  78.4411914  84.9929909  69.4593864
  79.7503042  84.2991427  69.7703154  81.4052626  94.6893495  70.9862936
  81.3628805  94.9154342  70.0571468  82.3215325  94.4556870  71.1348738
  79.5218427  91.5656524  70.7824899  80.3159025  91.0706844  70.5807474
  78.8110119  91.0374387  70.4192605  84.3413271  93.9474620  75.1337267
  84.3950293  94.5165556  75.9014983  83.4728053  94.1176505  74.7691304
  86.5316035  90.5402969  81.7077932  86.3801541  90.3113521  80.7908016
  86.5220714  91.4973571  81.7209277  83.3001371  88.1134882  76.6924199
  84.2293431  88.2646041  76.5193166  82.8792401  88.2018903  75.8372845
  82.0989703  92.1385546  74.4622736  81.9600788  91.7704331  75.3348674
  81.3104299  92.6533186  74.2906694  82.6937855  97.2394643  65.8048273
  82.8689610  96.7682686  66.6193895  82.0070643  97.8660409  66.0329533
  83.6494918  91.5167149  71.8511574  83.3144750  91.4767919  72.7469224
  83.1498864  90.8511865  71.3781984  88.2408241  93.5722092  79.7854414
  88.1820787  92.8881312  79.1184997  88.6427760  94.3141082  79.3335040
  77.2598940 100.3884005  72.5788133  77.4995538 101.0202530  73.2567151
  76.4168136 100.0372046  72.8653492  88.2425648  91.5361676  78.0168394
  87.3552427  91.1987597  78.1394793  88.8124200  90.8044707  78.2537159
  81.7726802  96.1963128  74.9829637  81.6996973  97.0018099  75.4948941
  81.3304195  96.3955094  74.1577658  81.5616581  95.4334898  68.4932458
  80.7784103  95.9756578  68.5870683  82.2609327  95.9508878  68.8926700
  84.2325485  96.0949962  77.1387796  84.9453458  96.7297427  77.0663697
  83.7415514  96.1913828  76.3227797  79.2837399  93.8444405  77.9593366
  79.9846858  94.4780888  78.1122761  78.8132514  94.1859137  77.1989006
  84.0445859  96.4348706  69.8874087  84.2268253  95.6170362  70.3501839
  84.8678845  96.6516398  69.4498977  84.3788024  95.3616891  67.1489135
  84.9075791  94.8509346  66.5359298  84.6416244  95.0459421  68.0134669
  83.1326258  87.1408824  82.2711954  82.4566895  87.0402953  82.9414329
  83.9553892  86.9848038  82.7347951  74.8805117  93.3780760  74.8924469
  75.4658554  92.6324448  75.0252373  74.6829955  93.6884717  75.7761133
  77.7343772  96.4132008  69.9086911  77.0654147  96.8978136  69.4250951
  77.5956642  96.6601228  70.8230290  81.8749041  98.4475751  76.5069570
  82.4267349  98.6107373  77.2718655  82.2155234  99.0380189  75.8349595
  86.7259915  93.2737009  82.3618224  87.2699819  93.8866967  81.8673179
  86.1446760  93.8316587  82.8785237  85.0117428  96.3957727  73.4933252
  84.8868568  95.5947467  72.9844197  85.6696519  96.8903920  73.0047222
  87.0752336  94.1966747  75.1212802  86.1282672  94.0772098  75.0491129
  87.4235110  93.3089245  75.2039063  84.0798770  93.9919463  71.3217154
  83.9323732  93.0636171  71.5024724  84.9052263  94.0139554  70.8374230
  87.6832892  94.8148022  72.4082027  88.6079439  94.6090883  72.2706478
  87.5148195  94.5664423  73.3171369  87.4728208  95.3333689  67.7644118
  87.6465085  94.7680112  67.0117971  87.9657099  96.1334584  67.5823608
  73.2905168  87.3448358  75.8307677  72.7458636  88.1208166  75.9627952
  74.1684517  87.6919163  75.6726799  88.4603380  94.6500454  64.8641017
  89.1554285  95.2707146  65.0828331  88.8026530  93.7995805  65.1393395
  74.0771189  86.4718255  78.7237834  73.3352925  86.6200890  79.3102465
  73.7563934  86.7326520  77.8604584  82.0214852  96.0134233  78.5218224
  82.3301979  95.7683380  79.3940924  82.8190334  96.2180871  78.0337094
  82.0435464  98.1672143  70.7523601  81.6040454  97.6748521  71.4456457
  82.7943581  97.6245110  70.5115676  74.5227803  94.3583683  70.7548229
  75.3485823  94.0587455  70.3746872  74.1721855  93.5891306  71.2038017
  79.4909336  93.7110152  72.8245902  78.8689346  93.0480857  72.5248130
  80.1614203  93.7371284  72.1419550  72.7236408  92.2770010  71.7137162
  71.8868316  91.8492184  71.5321164  72.6960054  92.4702453  72.6507954
  90.0488709  92.7333063  81.6979545  89.2584253  92.7157202  81.1584045
  89.8122064  93.2721357  82.4528582  79.0522843  92.2614075  66.3004363
  79.2010964  92.9449539  65.6471036  79.8589287  92.2419165  66.8153819
  87.4590347  85.5656457  80.3271581  88.3600210  85.4262922  80.0355579
  87.5338321  85.7310912  81.2669758  76.8075476  88.2879253  67.3065432
  76.5621518  87.3841583  67.5045642  76.9771391  88.2896403  66.3644910
  85.7715509  95.0399356  64.9024693  86.7046182  94.9744917  65.1057568
  85.6838721  95.8755622  64.4439225  88.4003525  94.3565226  61.8628640
  88.3217157  94.0225090  62.7564398  89.2213192  94.8486994  61.8620113
  82.8203740  90.1440764  82.5732820  83.7406749  90.3219363  82.7672866
  82.7853323  89.1996810  82.4212519  72.0385905  85.3379358  71.4986094
  71.7188689  84.4844666  71.2060468  71.4919333  85.5527936  72.2544062
  71.9074165  88.9582270  73.4679216  71.2137636  88.5436222  72.9549170
  72.6547156  89.0002806  72.8712635  76.4798285  90.9476678  75.4591845
  77.4341539  90.9160621  75.3921777  76.2810809  90.4867302  76.2742071
  74.8348514  96.4896298  72.4762043  74.7002982  95.7296699  71.9100041
  74.4180576  97.2137198  72.0090832  77.9917640  97.3865615  72.6880486
  77.8750024  98.3311047  72.5859176  77.1710086  97.0839176  73.0766285
  72.3232582  83.8515928  78.7254840  72.9691445  83.3414882  79.2142065
  72.1149733  84.5884610  79.2998265  84.8485974  90.9196776  84.2246981
  85.7177133  91.0937428  83.8633616  84.3692725  91.7391193  84.1022710
  79.0172154  98.0393877  75.9036414  79.9199401  98.0717487  76.2202909
  78.7909524  97.1094328  75.9182750  80.7725756  96.7924863  72.5646493
  79.8221387  96.7926725  72.4510865  81.0758242  96.0457598  72.0482528
  96.5078449 102.6285402  73.6292255  97.1456859 102.5092149  72.9255595
  96.3899292 103.5766246  73.6880207  93.3168156 102.5812830  73.5653780
  92.9786667 102.4653894  72.6774315  94.1857924 102.1803995  73.5454786
  89.1754971 104.4348306  69.5550671  88.6119837 104.3438243  68.7866959
  89.0607366 103.6148211  70.0353163  93.7987939 103.7347682  79.5239986
  93.7876580 103.3400480  78.6520489  93.9608578 103.0013754  80.1173757
  86.7219403 105.9299498  72.3934891  87.5140695 105.5890322  71.9781191
  86.9616054 106.0394473  73.3137045  94.7554530 108.1019274  64.8665136
  94.1042510 108.6873354  64.4799150  95.5498893 108.6325469  64.9260173
  88.6810157 105.1908411  65.2652270  89.4541033 104.6437398  65.1265146
  89.0335556 106.0552660  65.4766732  90.5195200 106.5184793  78.4719170
  90.2285066 107.4230424  78.3565836  91.1552184 106.5601321  79.1863239
  91.4451407 103.8961642  75.0620529  92.0414979 103.6717664  74.3477492
  91.5026378 103.1546387  75.6645977  91.0176435 101.3501077  62.8970720
  91.2701956 100.8282598  62.1354183  90.0800994 101.1867223  62.9997404
  96.0619718 100.3536856  70.7045463  96.8482807  99.9356279  70.3535880
  96.3258422 101.2582948  70.8727112  96.2329795 105.7909706  65.4034120
  95.5975628 105.8644332  66.1155025  95.9027202 106.3803305  64.7253199
 101.4628145 100.2912089  71.6078442 102.1953317  99.7211306  71.8416271
 100.7067501  99.9033689  72.0484947  90.7372724 103.2529183  65.0995095
  90.6208982 102.5774087  65.7676179  90.8474984 102.7661557  64.2827248
  93.0804265 102.7139330  68.8041784  92.7162472 102.1869951  69.5154706
  93.9371381 102.3237799  68.6308270  92.7209752  97.7429230  63.8003133
  92.8884154  98.6109466  64.1673604  92.5306921  97.9056512  62.8764422
  95.4785085 106.2046209  75.4668963  95.1785808 107.1071248  75.3584770
  95.1336144 105.9378392  76.3190116  88.9297566 102.6560006  71.5005668
  88.0048063 102.5236220  71.7083359  89.1781980 103.4354225  71.9975610
  98.8782229  98.7228749  73.1466401  97.9699106  98.6544157  72.8525161
  98.8269825  99.2000694  73.9748226  92.6998973 100.1986887  64.7849800
  92.5798598 100.6443938  65.6235280  92.0051561 100.5472205  64.2263338
  86.2906377 102.2993279  72.3349457  86.4198759 102.5527758  73.2488868
  85.6103829 102.8920987  72.0154112  90.4605865 112.9690529  68.4339931
  90.3829894 113.9198354  68.5128411  89.8567508 112.6236402  69.0914857
  92.9523095 100.1418395  81.0901298  92.1756429 100.7012315  81.0804162
  93.5913658 100.6275178  81.6116168 100.7443875  96.9245187  74.9244274
 100.1018255  97.2177721  74.2784069 100.2398804  96.8098108  75.7297471
  98.3984039 100.6708361  65.6130134  99.3101895 100.9035747  65.4377831
  97.8893686 101.2545405  65.0505212  91.2069467 102.9503848  80.6519265
  91.9484151 103.4888892  80.3754088  90.5006452 103.5770137  80.8090817
  96.6824806 105.0932988  79.2491426  97.0908163 104.6515399  78.5046059
  95.9602068 104.5185616  79.5025619  93.0355877 100.0305595  76.6224983
  93.8817072 100.4545009  76.7659632  92.9754514  99.3739220  77.3163546
  97.0053621 105.6534179  73.0043715  96.3762484 105.8179893  72.3019783
  96.6179283 106.0675789  73.7754679 100.8842853 106.5888617  70.3588079
 100.1993891 106.9687518  69.8085112 100.9686702 107.1983944  71.0920027
  96.1855322  97.6909964  78.2806157  95.9416254  98.4452024  77.7440433
  96.4615252  98.0695311  79.1153404  98.1393785 104.2348576  76.9583422
  98.3510680 104.8780336  76.2817804  98.0923533 103.4010892  76.4905353
  95.7420014  96.8466397  73.8619995  94.8804493  97.1447650  74.1536732
  95.7682448  97.0636795  72.9301027  92.5581583 105.3908587  70.2693800
  93.0219929 105.6696290  69.4798423  92.2938381 104.4892032  70.0866891
  89.4505664 104.9380069  73.2073564  90.0207021 105.3667337  72.5691048
  90.0413776 104.6562653  73.9057749  91.4950469 101.5131740  67.0783365
  92.1974512 101.9652783  67.5457292  91.1631098 100.8715558  67.7063259
  89.9430831 100.1043496  81.4534575  89.3129491 100.7859777  81.6869972
  89.8366918  99.9926578  80.5087713  85.2375803  99.7715292  72.3800499
  84.4474857 100.0272821  71.9040610  85.7287050 100.5863630  72.4852540
  99.2539613 107.1120531  75.1305780 100.0757056 106.7100719  74.8488461
  99.2502015 107.0088766  76.0821896  87.1890548 100.1359871  69.3383976
  86.3921712 100.2478566  69.8567471  86.9616141 100.4746524  68.4724866
  93.0196216 106.6604575  77.2866490  93.0840649 107.1224982  78.1224662
  92.3107140 106.0301940  77.4148800  83.5213506 100.0245783  74.8115490
  83.7721544 100.9092793  75.0773066  84.0573054  99.8450384  74.0390582
 107.3445606 103.4559280  71.4790751 106.5909314 102.8866678  71.3234756
 107.4793147 103.4221944  72.4261386  92.7344234 108.3272682  67.1545471
  92.5989908 109.1724218  67.5830318  93.2754046 108.5291960  66.3911404
  89.2211573  94.4064262  83.8159826  88.8278519  93.8530461  84.4907470
  90.0377714  94.7174840  84.2066343  86.1873631 105.8448120  67.7273396
  86.6998152 106.6391370  67.8778960  86.8396344 105.1474411  67.6606997
  87.9968516 108.9613876  69.8096149  88.1735144 109.8831841  69.6217133
  88.7925349 108.6472296  70.2390529  92.1379534  95.8222141  81.4080082
  92.8789248  96.4229294  81.3284545  92.3697457  95.0799779  80.8498125
  87.2820872 101.0078508  79.6858312  87.1674387 100.1063766  79.9865411
  86.4265390 101.2542205  79.3343129  94.3612710 108.9496249  81.2845813
  93.9176564 108.1632627  80.9666717  95.0229924 109.1375399  80.6189703
  89.1199831 110.4792050  75.8106491  89.6707256 110.3509114  75.0383485
  88.2811307 110.7786939  75.4601384  96.4593948 109.2299049  79.3127214
  96.4412423 110.0507930  78.8207483  97.3813868 109.1053124  79.5377355
  92.9167002 106.7443178  80.1550722  93.4495339 105.9831466  79.9250030
  92.3881083 106.4516830  80.8974877  84.1522548 104.1736774  68.5032966
  84.9897770 104.5833783  68.2866674  84.3300816 103.2336217  68.4733160
  96.0486980 101.8411855  64.1916799  95.5333603 102.6116460  64.4305187
  95.7764288 101.1676991  64.8149861  93.6334091  96.6861556  69.2502038
  92.7775687  96.2968406  69.0707676  94.0461043  96.7653517  68.3901823
  95.1633238  94.2207899  73.6493597  94.6598033  94.1838034  72.8361403
  95.4563845  95.1300642  73.7090254  91.4076124  94.3046629  72.6559779
  92.2729120  94.1089438  72.2965669  91.4753632  94.0756981  73.5829136
 101.0221254 104.5944210  66.1269973 100.2450697 104.2555369  65.6825135
 101.7012735 104.5996833  65.4524938  95.8373283  99.7138947  66.0176580
  95.5323419 100.0285096  66.8686724  96.7903725  99.7920367  66.0603913
  94.2819715 105.8729171  67.6669534  93.7541077 105.1381930  67.3542772
  93.7807218 106.6503847  67.4209503  99.2612561 104.0678191  72.7836581
  98.6036235 104.7577452  72.8716709 100.0652960 104.4574623  73.1270567
  89.0138443  96.5348837  70.0276146  89.5882195  96.3124018  69.2949339
  89.6009425  96.6037531  70.7804747  98.0718020 102.4222564  70.8340522
  98.5849902 103.0552556  71.3362232  98.7219244 101.8223759  70.4683882
  89.3408030  98.5653298  64.0472031  88.5045342  98.9027984  64.3681306
  89.2012799  98.4302278  63.1099168  91.3161110  93.4090086  68.7551215
  90.6625523  93.0939103  68.1307830  91.2741584  92.7865826  69.4811038
  92.4272315 103.6909381  60.6704507  91.5199377 103.4598634  60.8695656
  92.9243347 102.8947000  60.8578489  95.3340394 112.4006888  63.5901194
  94.6602093 112.7038585  64.1986151  95.7206216 113.2035968  63.2406651
  94.5498851  99.8972019  73.0798863  93.6321412 100.1186966  72.9220551
  94.9658994  99.9718330  72.2210570  95.3333898 101.2963435  68.2101543
  96.0805717 101.8084832  67.9008665  95.6025488 100.9747488  69.0705937
  93.6060549 103.7921976  65.1928497  92.6971768 103.5081008  65.2900967
  93.6355632 104.2121054  64.3331804  98.8379816 107.4028565  68.9619665
  98.3842143 106.5619475  69.0184856  98.2073783 108.0389964  69.2994445
  97.7812736  98.3320551  70.1920332  97.0435492  97.8197937  70.5230575
  98.0339509  97.8920933  69.3803609  97.2812755 109.2405062  69.8969483
  97.5735730 109.8010119  69.1781849  97.7911376 109.5333623  70.6522642
  84.1748719 101.5127490  69.1743700  83.9773119 100.9196850  68.4494766
  83.6195383 101.2079700  69.8919638  92.1545443 101.4050596  71.2938293
  92.2094052 100.4524433  71.2180769  91.3436645 101.5610035  71.7779591
  93.3036636 105.3330719  62.5316576  92.8656066 104.6166578  62.0722213
  94.0447077 105.5606834  61.9701667  90.0937803 100.0227656  69.0528672
  89.2805668 100.3221827  69.4593864  90.5896797  99.6283345  69.7703154
  92.2446380 110.0185413  70.9862936  92.2022559 110.2446259  70.0571468
  93.1609079 109.7848788  71.1348738  95.6912014 100.4869480  77.8843566
  96.0461402 100.7140954  78.7438031  96.3384145 100.8187857  77.2620821
 101.4209751 103.6087916  68.5892895 101.2827650 103.7989512  67.6614084
 101.0645970 104.3707299  69.0460946  89.5851877  97.5946012  74.6689907
  90.2251257  97.4534771  73.9712870  88.7529408  97.3080525  74.2928509
 101.4479131 105.6764443  73.6004166 101.8815637 105.5839732  74.4487220
 102.1610712 105.6521944  72.9624182  90.3612181 106.8948442  70.7824899
  91.1552780 106.3998762  70.5807474  89.6503874 106.3666305  70.4192605
  95.1807026 109.2766537  75.1337267  95.2344048 109.8457474  75.9014983
  94.3121807 109.4468423  74.7691304  86.6694945 101.0391524  66.8584652
  85.7392533 100.9775979  67.0754614  86.7652417 100.5167476  66.0621293
  86.5880494  97.5646337  69.4462893  86.8487311  98.4791670  69.3372054
  87.4097666  97.0970779  69.5959506  88.0605419  98.9784094  76.6161718
  88.7328473  98.7701456  75.9674367  87.2335206  98.7806180  76.1766950
 102.3094680 105.7188144  76.1337052 102.5030570 106.6233955  76.3796326
 102.2095299 105.2595563  76.9675637  97.3709789 105.8694887  81.7077932
  97.2195295 105.6405438  80.7908016  97.3614469 106.8265488  81.7209277
  94.1395125 103.4426800  76.6924199  95.0687185 103.5937959  76.5193166
  93.7186155 103.5310820  75.8372845  92.9383457 107.4677464  74.4622736
  92.7994543 107.0996248  75.3348674  92.1498053 107.9825103  74.2906694
  93.5331609 112.5686560  65.8048273  93.7083365 112.0974604  66.6193895
  92.8464397 113.1952327  66.0329533  94.4888672 106.8459067  71.8511574
  94.1538505 106.8059837  72.7469224  93.9892618 106.1803783  71.3781984
  88.4632916 102.2526697  77.3764155  88.3252714 101.5206935  77.9775694
  89.3737840 102.1635597  77.0948343  97.4247864 104.1915101  62.1248634
  96.8077035 103.4661929  62.0281686  96.9564352 104.9524461  61.7815708
  91.0915217 101.9646656  76.8647835  91.8014836 101.3239848  76.8234453
  91.0484525 102.2159551  77.7874016  99.0801996 108.9014009  79.7854414
  99.0214542 108.2173229  79.1184997  99.4821514 109.6432999  79.3335040
  89.8044151  98.9511874  78.6843474  89.2681508  98.5002612  79.3365071
  89.2160859  99.0857783  77.9413939  88.0992694 115.7175923  72.5788133
  88.3389293 116.3494447  73.2567151  87.2561891 115.3663963  72.8653492
  89.2146410  98.4100525  61.2469938  88.3375876  98.2889326  60.8832185
  89.6904163  97.6186604  60.9948827  99.0819403 106.8653593  78.0168394
  98.1946182 106.5279515  78.1394793  99.6517954 106.1336624  78.2537159
  80.7348550 103.1977685  71.3411445  81.4219590 102.8839415  70.7532460
  80.5796679 104.1019050  71.0678696  85.5383272  98.0867882  75.7696469
  85.4541461  97.4793551  75.0346879  84.7165979  98.5776900  75.7705965
  92.6120556 111.5255046  74.9829637  92.5390728 112.3310017  75.4948941
  92.1697949 111.7247011  74.1577658  92.4010336 110.7626816  68.4932458
  91.6177858 111.3048496  68.5870683  93.1003081 111.2800795  68.8926700
  95.7106986  96.5721445  71.1366664  96.2075686  95.8191407  70.8167734
  94.9393968  96.6085762  70.5709873 103.5636743 102.2761811  72.7784955
 103.5526620 103.1586526  72.4078888 102.6954123 101.9233361  72.5839492
  95.0719240 111.4241880  77.1387796  95.7847212 112.0589344  77.0663697
  94.5809269 111.5205746  76.3227797  96.7936767 105.3293132  68.7105087
  95.8593046 105.4494595  68.5409792  96.9713435 104.4265599  68.4465097
  92.2941955  98.7138828  70.8638348  91.9239742  98.1609868  71.5519254
  92.7901047  98.1096962  70.3113348 100.1809318 101.1710452  69.2455121
 100.6469770 102.0038443  69.1715424 100.6316819 100.7055433  69.9500380
  90.1231153 109.1736323  77.9593366  90.8240613 109.8072806  78.1122761
  89.6526268 109.5151055  77.1989006  98.2485549 107.5154273  66.2441273
  98.5245393 107.4010867  67.1535147  97.3790048 107.1171758  66.2053446
  98.1525981  93.5391039  73.2846023  97.2389061  93.7695265  73.4528230
  98.5819082  93.6229483  74.1360055  97.9232439 101.7280931  75.7845917
  97.2703890 101.9756838  75.1298369  98.3012819 100.9145069  75.4508394
  94.8839613 111.7640624  69.8874087  95.0662008 110.9462280  70.3501839
  95.7072599 111.9808316  69.4498977  95.2181779 110.6908809  67.1489135
  95.7469545 110.1801263  66.5359298  95.4809998 110.3751339  68.0134669
  93.9720012 102.4700742  82.2711954  93.2960649 102.3694871  82.9414329
  94.7947646 102.3139955  82.7347951  85.7198871 108.7072678  74.8924469
  86.3052308 107.9616366  75.0252373  85.5223710 109.0176635  75.7761133
  88.5737527 111.7423926  69.9086911  87.9047902 112.2270053  69.4250951
  88.4350396 111.9893146  70.8230290  80.3116526 101.2778278  73.6128912
  80.3500626 100.7441869  74.4066030  79.8056819 100.7513484  72.9939889
  92.7142795 113.7767669  76.5069570  93.2661103 113.9399291  77.2718655
  93.0548989 114.3672107  75.8349595  87.6907288  96.1242819  77.1091454
  87.7548615  96.9857650  76.6968852  87.6274409  95.5116821  76.3763813
  87.1659561  98.1965951  80.7564489  87.7931600  97.8143029  81.3702013
  86.3087480  97.9780153  81.1220181  97.5653670 108.6028927  82.3618224
  98.1093574 109.2158885  81.8673179  96.9840514 109.1608505  82.8785237
  83.9425104 100.0042381  66.6882844  84.2378545  99.0953059  66.6349897
  83.0413140  99.9830120  66.3663846  95.8511183 111.7249645  73.4933252
  95.7262322 110.9239384  72.9844197  96.5090274 112.2195838  73.0047222
  87.4719351  98.0798377  72.6710392  86.7505937  98.6934345  72.5317865
  88.2612607  98.6156142  72.5927038  97.9146091 109.5258665  75.1212802
  96.9676426 109.4064016  75.0491129  98.2628864 108.6381163  75.2039063
  90.2745664  95.4152804  78.9451044  90.7980066  95.6615100  79.7077353
  90.0557998  96.2472838  78.5254181  85.6712945  97.6856478  66.8122169
  85.3425652  96.8053857  66.6297275  86.0252316  97.6304147  67.6998558
  94.9192524 109.3211381  71.3217154  94.7717487 108.3928088  71.5024724
  95.7446018 109.3431472  70.8374230  88.7854769  97.9729448  67.1797646
  89.1250841  98.5015369  66.4576255  89.2326889  98.3109854  67.9556213
  98.5226646 110.1439940  72.4082027  99.4473194 109.9382801  72.2706478
  98.3541949 109.8956341  73.3171369  91.4798209  96.3566499  76.6300714
  91.1395030  95.5574312  77.0321394  90.7737216  96.6568210  76.0577548
  90.7722916  96.4704070  65.3790939  91.4931278  96.8485322  64.8754656
  90.1488220  97.1892946  65.4825917  94.9154039  97.1749219  66.3149272
  95.1317653  98.0573856  66.0138100  94.4348106  96.7835432  65.5854914
  89.6553260 100.1334932  72.8920016  89.5097841 100.4475235  73.7844298
  89.1778464 100.7519832  72.3390915  91.5149643  97.1237480  72.9400906
  91.5011212  96.2278573  72.6033204  92.2322071  97.1308143  73.5739192
  93.3675774  97.5574820  74.9854033  93.1093551  98.4791891  74.9838364
  92.8360814  97.1605254  75.6754497  98.3121962 110.6625607  67.7644118
  98.4858840 110.0972030  67.0117971  98.8050854 111.4626502  67.5823608
  84.1298922 102.6740276  75.8307677  83.5852390 103.4500084  75.9627952
  85.0078272 103.0211081  75.6726799  90.9186539  96.0051860  68.2088476
  91.0402450  95.0768506  68.4079363  90.6288581  96.0190546  67.2966791
 104.1661353 103.4262030  69.3834418 104.6092499 102.6769355  68.9853541
 103.2887864 103.4172166  69.0008150  99.2997135 109.9792371  64.8641017
  99.9948039 110.5999064  65.0828331  99.6420285 109.1287723  65.1393395
  84.9164944 101.8010172  78.7237834  84.1746680 101.9492808  79.3102465
  84.5957688 102.0618438  77.8604584 101.1988558 107.4292077  66.3928348
 101.7239882 107.7679350  65.6677668 101.1110910 106.4939092  66.2091482
  92.8608607 111.3426151  78.5218224  93.1695733 111.0975297  79.3940924
  93.6584089 111.5472789  78.0337094  92.8829219 113.4964060  70.7523601
  92.4434209 113.0040439  71.4456457  93.6337336 112.9537028  70.5115676
  85.3621558 109.6875601  70.7548229  86.1879578 109.3879373  70.3746872
  85.0115610 108.9183224  71.2038017  90.3303091 109.0402069  72.8245902
  89.7083100 108.3772774  72.5248130  91.0007958 109.0663201  72.1419550
  83.5630163 107.6061928  71.7137162  82.7262071 107.1784102  71.5321164
  83.5353808 107.7994371  72.6507954  90.4027618  97.5183857  82.4178408
  90.4515774  98.3945980  82.0356178  90.9450132  96.9761250  81.8450052
 100.8882464 108.0624981  81.6979545 100.0978008 108.0449120  81.1584045
 100.6515819 108.6013274  82.4528582 101.0080339 104.9117447  79.0112274
 101.0578344 104.7467454  79.9527797 100.8994262 104.0444706  78.6210155
  89.8916598 107.5905993  66.3004363  90.0404718 108.2741457  65.6471036
  90.6983041 107.5711083  66.8153819  98.2984101 100.8948375  80.3271581
  99.1993964 100.7554840  80.0355579  98.3732076 101.0602830  81.2669758
  92.6326907  98.2715230  79.1724767  91.7630216  98.5648796  78.9007356
  92.8686387  98.8555675  79.8932031 102.5098536 107.3314389  79.2554296
 102.2183344 107.6944369  80.0917757 101.8970667 106.6181397  79.0767628
 103.7094218 104.8967268  71.7756866 104.5441110 105.3357072  71.9394426
 103.8453347 104.4205922  70.9565112 100.7585724 102.4547003  77.7234354
 101.2339846 102.6474649  76.9153205  99.8351289 102.5106189  77.4777737
  87.6469231 103.6171170  67.3065432  87.4015273 102.7133500  67.5045642
  87.8165145 103.6188321  66.3644910  86.9164878  99.3499528  64.8051593
  86.2234123  99.4243883  64.1491629  86.6716630  98.5859872  65.3273110
  93.3912003 110.0854123  63.7716110  92.8185970 110.7044310  63.3186582
  93.9644797 110.6353485  64.3056032  99.4587393  99.3312763  75.9562659
 100.4104816  99.4310861  75.9774883  99.2890843  98.5391032  76.4660744
  96.6109263 110.3691273  64.9024693  97.5439936 110.3036835  65.1057568
  96.5232476 111.2047540  64.4439225  99.2397280 109.6857144  61.8628640
  99.1610911 109.3517007  62.7564398 100.0606946 110.1778912  61.8620113
 101.9375471 102.5518883  75.0704959 101.9051791 101.6134884  75.2564643
 102.5476095 102.6302920  74.3370784  93.7758802 101.4214936  61.1132163
  94.7217906 101.2921144  61.1820581  93.3973047 100.6829598  61.5901591
 102.0869959  99.3429926  75.1163242 101.5709008  98.5588383  74.9293171
 102.9709908  99.0148643  75.2809761 107.7552021 103.6134890  74.2110996
 108.4855409 103.3520178  74.7718699 107.1458966 102.8763612  74.2513064
 105.8367318 101.7542752  74.8085447 105.1100481 101.6198717  74.2001938
 105.4214605 102.0619581  75.6142165  93.6597494 105.4732682  82.5732820
  94.5800504 105.6511281  82.7672866  93.6247077 104.5288727  82.4212519
  91.9601719  99.3464912  61.0487048  91.0533174  99.0498025  61.1249762
  92.2377700  99.0494730  60.1821334  82.8779659 100.6671276  71.4986094
  82.5582444  99.8136584  71.2060468  82.3313087 100.8819854  72.2544062
  86.6559567 103.3833717  75.2155601  86.8745577 104.3150825  75.2343635
  87.0685341 103.0241691  76.0010405  93.5763785  93.8901802  67.2031289
  92.7664513  93.5448887  67.5786535  94.2648202  93.5809346  67.7918901
  91.5287432  98.9566922  84.6058350  91.4284159  99.9061279  84.5370441
  91.3108974  98.6285161  83.7334420  90.7300504  96.2051848  61.1899027
  91.5919668  96.5306746  61.4494845  90.9150848  95.4183343  60.6772093
  82.7467919 104.2874187  73.4679216  82.0531391 103.8728140  72.9549170
  83.4940910 104.3294724  72.8712635  98.8833140  95.0780374  68.3334250
  98.3031809  95.7365178  67.9512303  98.6169073  94.2557719  67.9221668
  91.3918702 102.3864061  83.4223412  90.9085784 103.1864421  83.6287301
  91.4779641 102.3972006  82.4690856  84.6604662 104.2192441  71.3445231
  84.6375350 104.3180128  70.3927114  84.9705298 105.0657592  71.6662397
  87.3192040 106.2768596  75.4591845  88.2735293 106.2452538  75.3921777
  87.1204563 105.8159220  76.2742071  87.9091422 104.8469712  78.0262643
  88.7284311 105.3413791  78.0497480  88.1828230 103.9301680  77.9980211
  97.6658018  97.2380464  67.3890599  96.7783873  97.5230115  67.1710793
  98.0812007  97.0774228  66.5417875 101.0172554  97.2626985  71.1044938
 101.7932944  97.7523438  71.3769555 100.2920688  97.6885040  71.5616807
 103.4545113  97.9754605  72.1618878 104.0489604  97.7350341  71.4512187
 103.5271696  97.2561735  72.7892415  85.6742268 111.8188216  72.4762043
  85.5396736 111.0588616  71.9100041  85.2574331 112.5429115  72.0090832
  96.8101231 107.0025139  61.4838619  97.5137082 107.2075142  62.0996274
  96.0863880 107.5701901  61.7487702  97.6399042 102.7535000  67.6040889
  97.5834243 103.2103552  66.7648521  98.1927384 101.9925685  67.4263731
 101.4503848  98.5424732  68.4291008 101.1940782  98.1421368  69.2599216
 100.8256716  99.2568526  68.3041147 105.7616186 101.2820805  70.9362300
 105.2015743 101.3513995  71.7093862 105.1559689 101.1061790  70.2161796
  88.8311394 112.7157533  72.6880486  88.7143778 113.6602965  72.5859176
  88.0103841 112.4131094  73.0766285  98.7187929 107.4407668  63.5337079
  99.5533533 107.0088867  63.3514553  98.5572272 107.2689682  64.4613973
  98.3733821 103.9439782  64.8993418  98.3182625 103.7784053  63.9581862
  97.7479876 104.6515814  65.0555608  83.1626336  99.1807846  78.7254840
  83.8085200  98.6706800  79.2142065  82.9543487  99.9176528  79.2998265
  95.6879728 106.2488693  84.2246981  96.5570888 106.4229346  83.8633616
  95.2086480 107.0683110  84.1022710  91.6829947  93.4447891  64.4778736
  91.6708616  94.3889730  64.6347007  92.5753368  93.2618036  64.1838197
  89.8565908 113.3685794  75.9036414  90.7593155 113.4009405  76.2202909
  89.6303279 112.4386245  75.9182750  91.6119510 112.1216781  72.5646493
  90.6615141 112.1218643  72.4510865  91.9151997 111.3749516  72.0482528
  87.5023827  96.3275463  82.8229854  88.3655289  95.9712268  83.0333179
  86.9289238  95.9889358  83.5105259 107.3472204 117.9577319  73.6292255
 107.9850614 117.8384067  72.9255595 107.2293047 118.9058163  73.6880207
 104.1561910 117.9104747  73.5653780 103.8180422 117.7945812  72.6774315
 105.0251678 117.5095913  73.5454786 100.0148726 119.7640224  69.5550671
  99.4513591 119.6730161  68.7866959  99.9001121 118.9440128  70.0353163
 104.6381693 119.0639599  79.5239986 104.6270334 118.6692397  78.6520489
 104.8002333 118.3305672  80.1173757  97.5613158 121.2591415  72.3934891
  98.3534450 120.9182240  71.9781191  97.8009808 121.3686391  73.3137045
 105.5948285 123.4311192  64.8665136 104.9436264 124.0165272  64.4799150
 106.3892647 123.9617386  64.9260173  99.5203912 120.5200329  65.2652270
 100.2934788 119.9729316  65.1265146  99.8729311 121.3844578  65.4766732
 101.3588954 121.8476711  78.4719170 101.0678820 122.7522342  78.3565836
 101.9945939 121.8893239  79.1863239 102.2845161 119.2253560  75.0620529
 102.8808733 119.0009582  74.3477492 102.3420133 118.4838305  75.6645977
 101.8570190 116.6792995  62.8970720 102.1095710 116.1574516  62.1354183
 100.9194749 116.5159140  62.9997404 106.9013472 115.6828773  70.7045463
 107.6876562 115.2648196  70.3535880 107.1652177 116.5874865  70.8727112
 107.0723550 121.1201624  65.4034120 106.4369383 121.1936250  66.1155025
 106.7420956 121.7095222  64.7253199 112.3021900 115.6204006  71.6078442
 113.0347072 115.0503223  71.8416271 111.5461255 115.2325607  72.0484947
 101.5766478 118.5821101  65.0995095 101.4602736 117.9066004  65.7676179
 101.6868738 118.0953475  64.2827248 103.9198019 118.0431248  68.8041784
 103.5556227 117.5161869  69.5154706 104.7765135 117.6529717  68.6308270
 109.8247320 109.3325581  76.0673050 109.4930645 110.2020991  75.8434265
 109.2292933 109.0161865  76.7467081 103.5603506 113.0721148  63.8003133
 103.7277909 113.9401384  64.1673604 103.3700675 113.2348429  62.8764422
 106.3178839 121.5338127  75.4668963 106.0179563 122.4363165  75.3584770
 105.9729899 121.2670310  76.3190116  99.7691321 117.9851923  71.5005668
  98.8441817 117.8528137  71.7083359 100.0175734 118.7646143  71.9975610
 109.7175983 114.0520667  73.1466401 108.8092861 113.9836075  72.8525161
 109.6663579 114.5292612  73.9748226 103.5392727 115.5278805  64.7849800
 103.4192352 115.9735856  65.6235280 102.8445316 115.8764123  64.2263338
  97.1300132 117.6285197  72.3349457  97.2592513 117.8819676  73.2488868
  96.4497583 118.2212905  72.0154112 101.2999619 128.2982447  68.4339931
 101.2223649 129.2490272  68.5128411 100.6961263 127.9528319  69.0914857
 103.7916849 115.4710312  81.0901298 103.0150183 116.0304232  81.0804162
 104.4307412 115.9567095  81.6116168 111.5837630 112.2537105  74.9244274
 110.9412010 112.5469638  74.2784069 111.0792558 112.1390025  75.7297471
 109.2377793 116.0000278  65.6130134 110.1495649 116.2327665  65.4377831
 108.7287440 116.5837322  65.0505212 102.0463221 118.2795766  80.6519265
 102.7877906 118.8180810  80.3754088 101.3400207 118.9062054  80.8090817
 107.5218561 120.4224906  79.2491426 107.9301917 119.9807317  78.5046059
 106.7995822 119.8477534  79.5025619 103.8749631 115.3597513  76.6224983
 104.7210826 115.7836926  76.7659632 103.8148269 114.7031137  77.3163546
 107.8447376 120.9826097  73.0043715 107.2156238 121.1471811  72.3019783
 107.4573038 121.3967706  73.7754679 111.7236608 121.9180535  70.3588079
 111.0387646 122.2979436  69.8085112 111.8080457 122.5275861  71.0920027
 107.0249076 113.0201881  78.2806157 106.7810008 113.7743942  77.7440433
 107.3009007 113.3987229  79.1153404 108.9787539 119.5640494  76.9583422
 109.1904434 120.2072253  76.2817804 108.9317287 118.7302810  76.4905353
 106.5813768 112.1758314  73.8619995 105.7198247 112.4739568  74.1536732
 106.6076203 112.3928713  72.9301027 103.3975337 120.7200505  70.2693800
 103.8613683 120.9988208  69.4798423 103.1332136 119.8183949  70.0866891
 100.2899419 120.2671986  73.2073564 100.8600776 120.6959255  72.5691048
 100.8807530 119.9854571  73.9057749 102.3344224 116.8423657  67.0783365
 103.0368267 117.2944701  67.5457292 102.0024852 116.2007476  67.7063259
 100.7824585 115.4335414  81.4534575 100.1523246 116.1151695  81.6869972
 100.6760673 115.3218495  80.5087713  96.0769558 115.1007210  72.3800499
  95.2868611 115.3564738  71.9040610  96.5680805 115.9155548  72.4852540
 110.0933367 122.4412449  75.1305780 110.9150811 122.0392636  74.8488461
 110.0895770 122.3380683  76.0821896  98.0284303 115.4651789  69.3383976
  97.2315466 115.5770483  69.8567471  97.8009895 115.8038441  68.4724866
 103.8589971 121.9896492  77.2866490 103.9234403 122.4516900  78.1224662
 103.1500894 121.3593857  77.4148800  94.3607261 115.3537700  74.8115490
  94.6115299 116.2384710  75.0773066  94.8966809 115.1742302  74.0390582
 118.1839360 118.7851198  71.4790751 117.4303069 118.2158596  71.3234756
 118.3186901 118.7513862  72.4261386 103.5737988 123.6564600  67.1545471
 103.4383663 124.5016136  67.5830318 104.1147801 123.8583877  66.3911404
 100.0605328 109.7356180  83.8159826  99.6672273 109.1822378  84.4907470
 100.8771468 110.0466758  84.2066343  97.0267386 121.1740038  67.7273396
  97.5391906 121.9683288  67.8778960  97.6790098 120.4766328  67.6606997
  98.8362270 124.2905794  69.8096149  99.0128899 125.2123759  69.6217133
  99.6319104 123.9764213  70.2390529 102.9773289 111.1514059  81.4080082
 103.7183002 111.7521212  81.3284545 103.2091212 110.4091697  80.8498125
  98.1214627 116.3370426  79.6858312  98.0068142 115.4355683  79.9865411
  97.2659145 116.5834123  79.3343129 105.2006465 124.2788166  81.2845813
 104.7570319 123.4924545  80.9666717 105.8623678 124.4667317  80.6189703
  99.9593586 125.8083968  75.8106491 100.5101011 125.6801031  75.0383485
  99.1205062 126.1078857  75.4601384 107.2987703 124.5590966  79.3127214
 107.2806178 125.3799847  78.8207483 108.2207623 124.4345041  79.5377355
 103.7560757 122.0735096  80.1550722 104.2889094 121.3123384  79.9250030
 103.2274838 121.7808748  80.8974877 106.9230452 107.1795162  75.6844364
 106.5794721 108.0696803  75.6083475 107.2909414 106.9896819  74.8213949
  94.9916302 119.5028692  68.5032966  95.8291524 119.9125701  68.2866674
  95.1694570 118.5628134  68.4733160 106.8880734 117.1703773  64.1916799
 106.3727358 117.9408377  64.4305187 106.6158043 116.4968909  64.8149861
 104.4727846 112.0153474  69.2502038 103.6169442 111.6260324  69.0707676
 104.8854797 112.0945434  68.3901823 106.0026992 109.5499817  73.6493597
 105.4991788 109.5129952  72.8361403 106.2957599 110.4592560  73.7090254
 102.2469878 109.6338547  72.6559779 103.1122875 109.4381355  72.2965669
 102.3147387 109.4048898  73.5829136 111.8615009 119.9236127  66.1269973
 111.0844451 119.5847287  65.6825135 112.5406490 119.9288751  65.4524938
 106.6767038 115.0430865  66.0176580 106.3717173 115.3577014  66.8686724
 107.6297480 115.1212285  66.0603913 105.1213469 121.2021088  67.6669534
 104.5934831 120.4673848  67.3542772 104.6200972 121.9795765  67.4209503
 110.1006316 119.3970109  72.7836581 109.4429990 120.0869370  72.8716709
 110.9046715 119.7866541  73.1270567  99.8532197 111.8640754  70.0276146
 100.4275949 111.6415936  69.2949339 100.4403180 111.9329449  70.7804747
 108.9111774 117.7514481  70.8340522 109.4243656 118.3844473  71.3362232
 109.5612998 117.1515677  70.4683882 100.1801784 113.8945216  64.0472031
  99.3439096 114.2319902  64.3681306 100.0406554 113.7594195  63.1099168
 102.1554865 108.7382003  68.7551215 101.5019277 108.4231021  68.1307830
 102.1135339 108.1157744  69.4811038 103.2666070 119.0201298  60.6704507
 102.3593131 118.7890552  60.8695656 103.7637102 118.2238918  60.8578489
 106.1734149 127.7298806  63.5901194 105.4995847 128.0330502  64.1986151
 106.5599971 128.5327886  63.2406651 105.3892605 115.2263937  73.0798863
 104.4715167 115.4478884  72.9220551 105.8052749 115.3010247  72.2210570
 106.1727653 116.6255353  68.2101543 106.9199472 117.1376750  67.9008665
 106.4419242 116.3039405  69.0705937 104.4454303 119.1213893  65.1928497
 103.5365522 118.8372926  65.2900967 104.4749387 119.5412972  64.3331804
 109.6773571 122.7320483  68.9619665 109.2235898 121.8911393  69.0184856
 109.0467537 123.3681881  69.2994445 108.6206490 113.6612469  70.1920332
 107.8829247 113.1489855  70.5230575 108.8733264 113.2212850  69.3803609
 108.1206510 124.5696980  69.8969483 108.4129484 125.1302037  69.1781849
 108.6305130 124.8625541  70.6522642 108.7218117 106.4388721  70.7862102
 109.0276994 105.5786084  70.4988017 109.4470722 107.0306341  70.5861096
  95.0142473 116.8419407  69.1743700  94.8166873 116.2488768  68.4494766
  94.4589137 116.5371618  69.8919638 102.9939197 116.7342514  71.2938293
 103.0487807 115.7816350  71.2180769 102.1830399 116.8901953  71.7779591
 104.1430391 120.6622637  62.5316576 103.7049821 119.9458496  62.0722213
 104.8840832 120.8898752  61.9701667 100.9331557 115.3519574  69.0528672
 100.1199423 115.6513744  69.4593864 101.4290551 114.9575262  69.7703154
 103.0840135 125.3477331  70.9862936 103.0416314 125.5738177  70.0571468
 104.0002834 125.1140705  71.1348738 106.5305769 115.8161398  77.8843566
 106.8855156 116.0432871  78.7438031 107.1777900 116.1479775  77.2620821
 112.2603506 118.9379834  68.5892895 112.1221404 119.1281430  67.6614084
 111.9039725 119.6999217  69.0460946 100.4245632 112.9237929  74.6689907
 101.0645011 112.7826688  73.9712870  99.5923162 112.6372443  74.2928509
 112.2872885 121.0056361  73.6004166 112.7209392 120.9131650  74.4487220
 113.0004466 120.9813862  72.9624182 101.2005936 122.2240360  70.7824899
 101.9946534 121.7290680  70.5807474 100.4897628 121.6958223  70.4192605
 106.0200780 124.6058455  75.1337267 106.0737802 125.1749391  75.9014983
 105.1515562 124.7760340  74.7691304  97.5088699 116.3683441  66.8584652
  96.5786287 116.3067897  67.0754614  97.6046171 115.8459394  66.0621293
  97.4274248 112.8938254  69.4462893  97.6881066 113.8083587  69.3372054
  98.2491421 112.4262697  69.5959506  98.8999174 114.3076011  76.6161718
  99.5722227 114.0993373  75.9674367  98.0728960 114.1098097  76.1766950
 113.1488435 121.0480062  76.1337052 113.3424325 121.9525872  76.3796326
 113.0489053 120.5887481  76.9675637 104.8024746 110.9337952  78.6327379
 104.1552661 111.6327902  78.5391855 105.5725761 111.3674096  79.0003627
 108.2103544 121.1986804  81.7077932 108.0589050 120.9697356  80.7908016
 108.2008223 122.1557406  81.7209277 104.9788880 118.7718717  76.6924199
 105.9080940 118.9229877  76.5193166 104.5579910 118.8602738  75.8372845
 103.7777212 122.7969382  74.4622736 103.6388297 122.4288166  75.3348674
 102.9891808 123.3117021  74.2906694 104.3725364 127.8978478  65.8048273
 104.5477119 127.4266521  66.6193895 103.6858152 128.5244244  66.0329533
 105.3282427 122.1750984  71.8511574 104.9932259 122.1351754  72.7469224
 104.8286373 121.5095700  71.3781984  99.3026671 117.5818614  77.3764155
  99.1646469 116.8498853  77.9775694 100.2131594 117.4927514  77.0948343
 108.2641619 119.5207019  62.1248634 107.6470789 118.7953847  62.0281686
 107.7958107 120.2816379  61.7815708 101.9308971 117.2938574  76.8647835
 102.6408590 116.6531766  76.8234453 101.8878280 117.5451469  77.7874016
 109.9195750 124.2305927  79.7854414 109.8608296 123.5465147  79.1184997
 110.3215269 124.9724917  79.3335040 100.6437905 114.2803792  78.6843474
 100.1075262 113.8294530  79.3365071 100.0554614 114.4149700  77.9413939
  98.9386449 131.0467841  72.5788133  99.1783047 131.6786365  73.2567151
  98.0955645 130.6955881  72.8653492 100.0540164 113.7392443  61.2469938
  99.1769631 113.6181244  60.8832185 100.5297917 112.9478521  60.9948827
 109.9213157 122.1945511  78.0168394 109.0339936 121.8571433  78.1394793
 110.4911709 121.4628542  78.2537159  91.5742305 118.5269603  71.3411445
  92.2613344 118.2131333  70.7532460  91.4190433 119.4310967  71.0678696
  96.3777027 113.4159799  75.7696469  96.2935215 112.8085469  75.0346879
  95.5559733 113.9068818  75.7705965 103.4514311 126.8546963  74.9829637
 103.3784482 127.6601935  75.4948941 103.0091704 127.0538929  74.1577658
 103.2404090 126.0918733  68.4932458 102.4571612 126.6340414  68.5870683
 103.9396836 126.6092713  68.8926700 106.5500741 111.9013363  71.1366664
 107.0469440 111.1483325  70.8167734 105.7787722 111.9377679  70.5709873
 114.4030498 117.6053728  72.7784955 114.3920374 118.4878444  72.4078888
 113.5347877 117.2525279  72.5839492 105.9112994 126.7533797  77.1387796
 106.6240967 127.3881262  77.0663697 105.4203023 126.8497663  76.3227797
 107.6330521 120.6585050  68.7105087 106.6986800 120.7786512  68.5409792
 107.8107190 119.7557517  68.4465097 103.1335709 114.0430746  70.8638348
 102.7633497 113.4901786  71.5519254 103.6294802 113.4388879  70.3113348
 111.0203073 116.5002369  69.2455121 111.4863525 117.3330361  69.1715424
 111.4710573 116.0347351  69.9500380 100.9624908 124.5028241  77.9593366
 101.6634367 125.1364724  78.1122761 100.4920023 124.8442972  77.1989006
 109.0879304 122.8446191  66.2441273 109.3639148 122.7302785  67.1535147
 108.2183802 122.4463675  66.2053446 108.9919735 108.8682956  73.2846023
 108.0782815 109.0987183  73.4528230 109.4212837 108.9521400  74.1360055
 108.7626194 117.0572848  75.7845917 108.1097644 117.3048756  75.1298369
 109.1406574 116.2436986  75.4508394 105.7233368 127.0932541  69.8874087
 105.9055762 126.2754197  70.3501839 106.5466354 127.3100234  69.4498977
 106.0575533 126.0200727  67.1489135 106.5863300 125.5093181  66.5359298
 106.3203753 125.7043257  68.0134669 104.8113767 117.7992659  82.2711954
 104.1354404 117.6986789  82.9414329 105.6341401 117.6431873  82.7347951
  96.5592626 124.0364596  74.8924469  97.1446063 123.2908284  75.0252373
  96.3617464 124.3468553  75.7761133  99.4131281 127.0715843  69.9086911
  98.7441656 127.5561971  69.4250951  99.2744151 127.3185064  70.8230290
  91.1510281 116.6070196  73.6128912  91.1894380 116.0733787  74.4066030
  90.6450574 116.0805402  72.9939889 103.5536550 129.1059587  76.5069570
 104.1054858 129.2691208  77.2718655 103.8942743 129.6964025  75.8349595
  98.5301043 111.4534737  77.1091454  98.5942369 112.3149567  76.6968852
  98.4668163 110.8408738  76.3763813  98.0053316 113.5257869  80.7564489
  98.6325354 113.1434946  81.3702013  97.1481234 113.3072071  81.1220181
 108.4047424 123.9320844  82.3618224 108.9487328 124.5450803  81.8673179
 107.8234269 124.4900423  82.8785237  94.7818858 115.3334298  66.6882844
  95.0772299 114.4244977  66.6349897  93.8806894 115.3122038  66.3663846
 106.6904937 127.0541562  73.4933252 106.5656076 126.2531302  72.9844197
 107.3484028 127.5487756  73.0047222  98.3113105 113.4090295  72.6710392
  97.5899691 114.0226262  72.5317865  99.1006361 113.9448060  72.5927038
 108.7539845 124.8550582  75.1212802 107.8070181 124.7355934  75.0491129
 109.1022619 123.9673080  75.2039063 101.1139419 110.7444721  78.9451044
 101.6373821 110.9907018  79.7077353 100.8951752 111.5764756  78.5254181
  96.5106700 113.0148396  66.8122169  96.1819406 112.1345775  66.6297275
  96.8646071 112.9596065  67.6998558 105.7586279 124.6503299  71.3217154
 105.6111241 123.7220006  71.5024724 106.5839772 124.6723389  70.8374230
  99.6248523 113.3021366  67.1797646  99.9644596 113.8307287  66.4576255
 100.0720643 113.6401772  67.9556213 109.3620401 125.4731857  72.4082027
 110.2866948 125.2674719  72.2706478 109.1935704 125.2248258  73.3171369
 102.3191964 111.6858416  76.6300714 101.9788784 110.8866229  77.0321394
 101.6130970 111.9860127  76.0577548 102.9708436 108.7707729  75.0828037
 103.7934505 108.2968207  74.9606928 103.2146499 109.5498213  75.5826724
 101.6116670 111.7995987  65.3790939 102.3325033 112.1777240  64.8754656
 100.9881974 112.5184864  65.4825917 105.7547793 112.5041136  66.3149272
 105.9711407 113.3865774  66.0138100 105.2741860 112.1127350  65.5854914
 100.4947014 115.4626849  72.8920016 100.3491595 115.7767153  73.7844298
 100.0172218 116.0811750  72.3390915 102.3543397 112.4529397  72.9400906
 102.3404966 111.5570491  72.6033204 103.0715825 112.4600061  73.5739192
 104.2069528 112.8866738  74.9854033 103.9487306 113.8083808  74.9838364
 103.6754568 112.4897172  75.6754497 109.1515717 125.9917525  67.7644118
 109.3252594 125.4263947  67.0117971 109.6444608 126.7918420  67.5823608
  94.9692677 118.0032194  75.8307677  94.4246145 118.7792002  75.9627952
  95.8472026 118.3502998  75.6726799 101.7580293 111.3343778  68.2088476
 101.8796204 110.4060424  68.4079363 101.4682336 111.3482464  67.2966791
 104.6271484 109.0198688  71.3455196 104.6493180 109.0838021  70.3907175
 105.0439543 108.1803197  71.5395702 115.0055108 118.7553948  69.3834418
 115.4486254 118.0061273  68.9853541 114.1281618 118.7464084  69.0008150
 110.1390889 125.3084289  64.8641017 110.8341794 125.9290982  65.0828331
 110.4814039 124.4579640  65.1393395  95.7558698 117.1302090  78.7237834
  95.0140434 117.2784725  79.3102465  95.4351443 117.3910356  77.8604584
 112.0382312 122.7583995  66.3928348 112.5633636 123.0971267  65.6677668
 111.9504665 121.8231010  66.2091482 103.7002361 126.6718068  78.5218224
 104.0089488 126.4267215  79.3940924 104.4977843 126.8764707  78.0337094
 103.7222973 128.8255978  70.7523601 103.2827963 128.3332357  71.4456457
 104.4731090 128.2828946  70.5115676  96.2015312 125.0167519  70.7548229
  97.0273332 124.7171291  70.3746872  95.8509364 124.2475141  71.2038017
 101.1696845 124.3693987  72.8245902 100.5476855 123.7064692  72.5248130
 101.8401712 124.3955119  72.1419550  94.4023917 122.9353845  71.7137162
  93.5655825 122.5076020  71.5321164  94.3747563 123.1286289  72.6507954
 101.2421373 112.8475775  82.4178408 101.2909528 113.7237898  82.0356178
 101.7843887 112.3053168  81.8450052 111.7276218 123.3916898  81.6979545
 110.9371762 123.3741037  81.1584045 111.4909573 123.9305192  82.4528582
 111.8474093 120.2409365  79.0112274 111.8972098 120.0759372  79.9527797
 111.7388017 119.3736624  78.6210155 100.7310352 122.9197910  66.3004363
 100.8798473 123.6033375  65.6471036 101.5376796 122.9003000  66.8153819
 109.1377856 116.2240293  80.3271581 110.0387719 116.0846758  80.0355579
 109.2125830 116.3894748  81.2669758 103.4720661 113.6007147  79.1724767
 102.6023971 113.8940714  78.9007356 103.7080142 114.1847592  79.8932031
 113.3492290 122.6606306  79.2554296 113.0577099 123.0236287  80.0917757
 112.7364422 121.9473315  79.0767628 114.5487973 120.2259186  71.7756866
 115.3834864 120.6648990  71.9394426 114.6847101 119.7497839  70.9565112
 111.5979479 117.7838921  77.7234354 112.0733600 117.9766567  76.9153205
 110.6745044 117.8398107  77.4777737  98.4862985 118.9463088  67.3065432
  98.2409027 118.0425418  67.5045642  98.6558900 118.9480238  66.3644910
 106.1759695 109.8186764  76.6890187 106.6941639 110.5547791  76.3636676
 105.8214828 110.1250758  77.5236947  97.7558633 114.6791446  64.8051593
  97.0627878 114.7535801  64.1491629  97.5110385 113.9151789  65.3273110
 106.4272289 106.2387047  72.2091084 106.7074043 105.5710236  72.8351511
 107.2122896 106.4316143  71.6965748 104.2305758 125.4146041  63.7716110
 103.6579725 126.0336228  63.3186582 104.8038551 125.9645403  64.3056032
 110.2981148 114.6604681  75.9562659 111.2498570 114.7602779  75.9774883
 110.1284598 113.8682949  76.4660744 108.3195527 111.7460264  76.1422060
 107.7245459 112.0265277  75.4468549 108.0345224 112.2354165  76.9138801
 107.4503018 125.6983191  64.9024693 108.3833691 125.6328753  65.1057568
 107.3626230 126.5339458  64.4439225 110.0791034 125.0149061  61.8628640
 110.0004666 124.6808925  62.7564398 110.9000701 125.5070829  61.8620113
 112.7769225 117.8810801  75.0704959 112.7445545 116.9426801  75.2564643
 113.3869849 117.9594837  74.3370784 104.6152556 116.7506854  61.1132163
 105.5611661 116.6213062  61.1820581 104.2366801 116.0121516  61.5901591
 112.9263714 114.6721844  75.1163242 112.4102762 113.8880301  74.9293171
 113.8103662 114.3440561  75.2809761 110.5874441 108.4162860  71.0759055
 110.3899262 108.1077948  71.9602387 111.1974146 109.1424499  71.2056985
 118.5945775 118.9426807  74.2110996 119.3249164 118.6812096  74.7718699
 117.9852721 118.2055529  74.2513064 116.6761072 117.0834670  74.8085447
 115.9494236 116.9490635  74.2001938 116.2608359 117.3911499  75.6142165
 104.4991249 120.8024600  82.5732820 105.4194258 120.9803199  82.7672866
 104.4640832 119.8580645  82.4212519 102.7995473 114.6756830  61.0487048
 101.8926929 114.3789943  61.1249762 103.0771454 114.3786648  60.1821334
  93.7173414 115.9963193  71.4986094  93.3976198 115.1428502  71.2060468
  93.1706842 116.2111772  72.2544062  97.4953321 118.7125634  75.2155601
  97.7139331 119.6442742  75.2343635  97.9079095 118.3533609  76.0010405
 104.4157539 109.2193720  67.2031289 103.6058267 108.8740805  67.5786535
 105.1041956 108.9101263  67.7918901 106.3448087 108.2971767  68.8255586
 106.8979126 108.7167220  69.4845609 106.5818174 107.3707515  68.8678542
 102.3681187 114.2858840  84.6058350 102.2677914 115.2353197  84.5370441
 102.1502729 113.9577079  83.7334420 101.5694258 111.5343765  61.1899027
 102.4313422 111.8598664  61.4494845 101.7544602 110.7475261  60.6772093
  93.5861674 119.6166105  73.4679216  92.8925145 119.2020058  72.9549170
  94.3334665 119.6586641  72.8712635 109.7226894 110.4072292  68.3334250
 109.1425564 111.0657096  67.9512303 109.4562827 109.5849636  67.9221668
 108.1730461 109.8077349  70.5355571 108.6730239 109.9193884  69.7269889
 108.8166069 109.5038402  71.1756379 102.2312457 117.7155979  83.4223412
 101.7479538 118.5156339  83.6287301 102.3173396 117.7263924  82.4690856
  95.4998416 119.5484359  71.3445231  95.4769104 119.6472046  70.3927114
  95.8099053 120.3949509  71.6662397  98.1585794 121.6060514  75.4591845
  99.1129048 121.5744456  75.3921777  97.9598318 121.1451137  76.2742071
  98.7485176 120.1761630  78.0262643  99.5678065 120.6705708  78.0497480
  99.0221984 119.2593598  77.9980211 108.5051772 112.5672382  67.3890599
 107.6177628 112.8522033  67.1710793 108.9205762 112.4066145  66.5417875
 111.8566309 112.5918903  71.1044938 112.6326699 113.0815355  71.3769555
 111.1314443 113.0176957  71.5616807 114.2938867 113.3046522  72.1618878
 114.8883358 113.0642258  71.4512187 114.3665451 112.5853653  72.7892415
  96.5136023 127.1480133  72.4762043  96.3790491 126.3880534  71.9100041
  96.0968085 127.8721033  72.0090832 107.6494986 122.3317057  61.4838619
 108.3530836 122.5367059  62.0996274 106.9257635 122.8993819  61.7487702
 108.4792796 118.0826918  67.6040889 108.4227998 118.5395469  66.7648521
 109.0321139 117.3217603  67.4263731 112.2897602 113.8716650  68.4291008
 112.0334536 113.4713286  69.2599216 111.6650470 114.5860444  68.3041147
 116.6009940 116.6112723  70.9362300 116.0409498 116.6805912  71.7093862
 115.9953443 116.4353708  70.2161796  99.6705149 128.0449450  72.6880486
  99.5537533 128.9894883  72.5859176  98.8497595 127.7423012  73.0766285
 109.5581683 122.7699586  63.5337079 110.3927287 122.3380784  63.3514553
 109.3966026 122.5981600  64.4613973 109.2127576 119.2731699  64.8993418
 109.1576379 119.1075971  63.9581862 108.5873631 119.9807732  65.0555608
  94.0020091 114.5099764  78.7254840  94.6478954 113.9998718  79.2142065
  93.7937242 115.2468445  79.2998265 106.5273483 121.5780611  84.2246981
 107.3964642 121.7521263  83.8633616 106.0480234 122.3975028  84.1022710
 102.5223701 108.7739808  64.4778736 102.5102371 109.7181648  64.6347007
 103.4147123 108.5909954  64.1838197 100.6959663 128.6977712  75.9036414
 101.5986910 128.7301322  76.2202909 100.4697033 127.7678163  75.9182750
 102.4513265 127.4508699  72.5646493 101.5008896 127.4510560  72.4510865
 102.7545751 126.7041433  72.0482528 106.3375820 105.3682585  68.7324673
 105.5708216 104.8141072  68.8781355 106.7486525 105.4404454  69.5938825
  98.3417582 111.6567381  82.8229854  99.2049043 111.3004186  83.0333179
  97.7682992 111.3181276  83.5105259 118.1865958 133.2869237  73.6292255
 118.8244368 133.1675984  72.9255595 118.0686801 134.2350081  73.6880207
 114.9955665 133.2396665  73.5653780 114.6574176 133.1237730  72.6774315
 115.8645433 132.8387830  73.5454786 110.8542480 135.0932142  69.5550671
 110.2907346 135.0022078  68.7866959 110.7394875 134.2732046  70.0353163
 115.4775448 134.3931517  79.5239986 115.4664088 133.9984315  78.6520489
 115.6396087 133.6597589  80.1173757 108.4006912 136.5883333  72.3934891
 109.1928204 136.2474158  71.9781191 108.6403563 136.6978308  73.3137045
 116.4342039 138.7603109  64.8665136 115.7830019 139.3457190  64.4799150
 117.2286402 139.2909304  64.9260173 110.3597666 135.8492246  65.2652270
 111.1328542 135.3021233  65.1265146 110.7123065 136.7136496  65.4766732
 112.1982709 137.1768629  78.4719170 111.9072575 138.0814260  78.3565836
 112.8339693 137.2185156  79.1863239 113.1238916 134.5545477  75.0620529
 113.7202488 134.3301500  74.3477492 113.1813887 133.8130223  75.6645977
 112.6963944 132.0084913  62.8970720 112.9489465 131.4866434  62.1354183
 111.7588503 131.8451058  62.9997404 117.7407227 131.0120691  70.7045463
 118.5270316 130.5940114  70.3535880 118.0045931 131.9166783  70.8727112
 117.9117304 136.4493541  65.4034120 117.2763137 136.5228168  66.1155025
 117.5814711 137.0387140  64.7253199 123.1415654 130.9495924  71.6078442
 123.8740826 130.3795141  71.8416271 122.3855010 130.5617525  72.0484947
 112.4160233 133.9113018  65.0995095 112.2996491 133.2357922  65.7676179
 112.5262493 133.4245392  64.2827248 114.7591774 133.3723166  68.8041784
 114.3949981 132.8453787  69.5154706 115.6158890 132.9821635  68.6308270
 120.6641074 124.6617498  76.0673050 120.3324399 125.5312909  75.8434265
 120.0686688 124.3453782  76.7467081 114.3997261 128.4013065  63.8003133
 114.5671663 129.2693302  64.1673604 114.2094430 128.5640347  62.8764422
 117.1572594 136.8630044  75.4668963 116.8573317 137.7655083  75.3584770
 116.8123653 136.5962227  76.3190116 110.6085075 133.3143841  71.5005668
 109.6835572 133.1820055  71.7083359 110.8569489 134.0938060  71.9975610
 120.5569738 129.3812584  73.1466401 119.6486615 129.3127993  72.8525161
 120.5057334 129.8584529  73.9748226 114.3786482 130.8570723  64.7849800
 114.2586107 131.3027774  65.6235280 113.6839070 131.2056040  64.2263338
 107.9693886 132.9577115  72.3349457 108.0986268 133.2111594  73.2488868
 107.2891338 133.5504823  72.0154112 112.1393374 143.6274365  68.4339931
 112.0617403 144.5782190  68.5128411 111.5355017 143.2820237  69.0914857
 114.6310604 130.8002230  81.0901298 113.8543938 131.3596150  81.0804162
 115.2701167 131.2859013  81.6116168 122.4231384 127.5829023  74.9244274
 121.7805764 127.8761556  74.2784069 121.9186313 127.4681943  75.7297471
 120.0771548 131.3292196  65.6130134 120.9889404 131.5619583  65.4377831
 119.5681195 131.9129240  65.0505212 112.8856976 133.6087683  80.6519265
 113.6271660 134.1472727  80.3754088 112.1793961 134.2353972  80.8090817
 118.3612315 135.7516824  79.2491426 118.7695672 135.3099234  78.5046059
 117.6389577 135.1769451  79.5025619 114.7143386 130.6889431  76.6224983
 115.5604581 131.1128844  76.7659632 114.6542023 130.0323055  77.3163546
 118.6841130 136.3118014  73.0043715 118.0549993 136.4763729  72.3019783
 118.2966792 136.7259624  73.7754679 117.8642831 128.3493799  78.2806157
 117.6203763 129.1035859  77.7440433 118.1402761 128.7279147  79.1153404
 119.8181294 134.8932411  76.9583422 120.0298189 135.5364171  76.2817804
 119.7711042 134.0594728  76.4905353 117.4207523 127.5050232  73.8619995
 116.5592002 127.8031485  74.1536732 117.4469957 127.7220631  72.9301027
 114.2369092 136.0492422  70.2693800 114.7007438 136.3280125  69.4798423
 113.9725890 135.1475867  70.0866891 111.1293173 135.5963904  73.2073564
 111.6994530 136.0251172  72.5691048 111.7201285 135.3146489  73.9057749
 113.1737978 132.1715575  67.0783365 113.8762021 132.6236619  67.5457292
 112.8418607 131.5299394  67.7063259 111.6218340 130.7627331  81.4534575
 110.9917000 131.4443612  81.6869972 111.5154427 130.6510413  80.5087713
 106.9163312 130.4299128  72.3800499 106.1262366 130.6856656  71.9040610
 107.4074559 131.2447465  72.4852540 120.9327122 137.7704367  75.1305780
 121.7544565 137.3684554  74.8488461 120.9289524 137.6672601  76.0821896
 108.8678057 130.7943707  69.3383976 108.0709221 130.9062401  69.8567471
 108.6403650 131.1330359  68.4724866 114.6983725 137.3188410  77.2866490
 114.7628158 137.7808817  78.1224662 113.9894649 136.6885775  77.4148800
 105.2001015 130.6829618  74.8115490 105.4509053 131.5676628  75.0773066
 105.7360563 130.5034220  74.0390582 114.4131743 138.9856517  67.1545471
 114.2777417 139.8308053  67.5830318 114.9541555 139.1875795  66.3911404
 110.8999082 125.0648097  83.8159826 110.5066028 124.5114296  84.4907470
 111.7165223 125.3758676  84.2066343 107.8661140 136.5031956  67.7273396
 108.3785661 137.2975206  67.8778960 108.5183853 135.8058246  67.6606997
 109.6756025 139.6197712  69.8096149 109.8522653 140.5415676  69.6217133
 110.4712858 139.3056131  70.2390529 113.8167043 126.4805976  81.4080082
 114.5576757 127.0813130  81.3284545 114.0484966 125.7383614  80.8498125
 108.9608381 131.6662344  79.6858312 108.8461896 130.7647601  79.9865411
 108.1052899 131.9126040  79.3343129 116.0400219 139.6080084  81.2845813
 115.5964073 138.8216463  80.9666717 116.7017433 139.7959234  80.6189703
 110.7987340 141.1375886  75.8106491 111.3494765 141.0092949  75.0383485
 109.9598816 141.4370775  75.4601384 114.5954511 137.4027013  80.1550722
 115.1282848 136.6415302  79.9250030 114.0668592 137.1100665  80.8974877
 117.7624206 122.5087079  75.6844364 117.4188476 123.3988721  75.6083475
 118.1303169 122.3188737  74.8213949 105.8310057 134.8320610  68.5032966
 106.6685279 135.2417618  68.2866674 106.0088325 133.8920052  68.4733160
 117.7274489 132.4995690  64.1916799 117.2121112 133.2700295  64.4305187
 117.4551797 131.8260827  64.8149861 115.3121600 127.3445391  69.2502038
 114.4563196 126.9552242  69.0707676 115.7248552 127.4237352  68.3901823
 116.8420747 124.8791735  73.6493597 116.3385542 124.8421870  72.8361403
 117.1351353 125.7884477  73.7090254 113.0863633 124.9630464  72.6559779
 113.9516629 124.7673273  72.2965669 113.1541141 124.7340816  73.5829136
 122.7008763 135.2528045  66.1269973 121.9238206 134.9139205  65.6825135
 123.3800244 135.2580668  65.4524938 117.5160792 130.3722783  66.0176580
 117.2110928 130.6868932  66.8686724 118.4691234 130.4504202  66.0603913
 115.9607224 136.5313006  67.6669534 115.4328586 135.7965765  67.3542772
 115.4594727 137.3087682  67.4209503 120.9400070 134.7262026  72.7836581
 120.2823744 135.4161288  72.8716709 121.7440469 135.1158458  73.1270567
 110.6925952 127.1932672  70.0276146 111.2669703 126.9707854  69.2949339
 111.2796934 127.2621367  70.7804747 119.7505529 133.0806399  70.8340522
 120.2637411 133.7136391  71.3362232 120.4006753 132.4807595  70.4683882
 111.0195539 129.2237133  64.0472031 110.1832851 129.5611820  64.3681306
 110.8800308 129.0886113  63.1099168 112.9948619 124.0673921  68.7551215
 112.3413032 123.7522938  68.1307830 112.9529093 123.4449662  69.4811038
 114.1059824 134.3493216  60.6704507 113.1986886 134.1182470  60.8695656
 114.6030856 133.5530835  60.8578489 116.2286360 130.5555855  73.0798863
 115.3108921 130.7770802  72.9220551 116.6446503 130.6302165  72.2210570
 117.0121407 131.9547270  68.2101543 117.7593226 132.4668668  67.9008665
 117.2812997 131.6331323  69.0705937 115.2848058 134.4505811  65.1928497
 114.3759277 134.1664844  65.2900967 115.3143141 134.8704890  64.3331804
 120.5167325 138.0612401  68.9619665 120.0629652 137.2203310  69.0184856
 119.8861292 138.6973799  69.2994445 119.4600245 128.9904387  70.1920332
 118.7223001 128.4781773  70.5230575 119.7127018 128.5504768  69.3803609
 119.5611872 121.7680639  70.7862102 119.8670749 120.9078002  70.4988017
 120.2864477 122.3598259  70.5861096 105.8536228 132.1711325  69.1743700
 105.6560628 131.5780686  68.4494766 105.2982892 131.8663535  69.8919638
 113.8332952 132.0634432  71.2938293 113.8881561 131.1108268  71.2180769
 113.0224154 132.2193871  71.7779591 114.9824145 135.9914555  62.5316576
 114.5443575 135.2750414  62.0722213 115.7234586 136.2190670  61.9701667
 111.7725312 130.6811491  69.0528672 110.9593177 130.9805662  69.4593864
 112.2684306 130.2867180  69.7703154 113.9233889 140.6769248  70.9862936
 113.8810068 140.9030095  70.0571468 114.8396588 140.4432623  71.1348738
 117.3699523 131.1453316  77.8843566 117.7248911 131.3724789  78.7438031
 118.0171654 131.4771693  77.2620821 123.0997260 134.2671752  68.5892895
 122.9615159 134.4573348  67.6614084 122.7433479 135.0291135  69.0460946
 111.2639386 128.2529847  74.6689907 111.9038766 128.1118606  73.9712870
 110.4316917 127.9664360  74.2928509 123.1266640 136.3348279  73.6004166
 123.5603146 136.2423568  74.4487220 123.8398220 136.3105779  72.9624182
 112.0399690 137.5532277  70.7824899 112.8340289 137.0582597  70.5807474
 111.3291383 137.0250140  70.4192605 116.8594535 139.9350373  75.1337267
 116.9131557 140.5041309  75.9014983 115.9909316 140.1052258  74.7691304
 108.3482454 131.6975359  66.8584652 107.4180042 131.6359815  67.0754614
 108.4439926 131.1751312  66.0621293 108.2668003 128.2230172  69.4462893
 108.5274820 129.1375505  69.3372054 109.0885175 127.7554614  69.5959506
 109.7392928 129.6367929  76.6161718 110.4115981 129.4285291  75.9674367
 108.9122715 129.4390015  76.1766950 115.6418500 126.2629870  78.6327379
 114.9946415 126.9619820  78.5391855 116.4119515 126.6966014  79.0003627
 119.0497298 136.5278722  81.7077932 118.8982804 136.2989274  80.7908016
 119.0401977 137.4849324  81.7209277 115.8182634 134.1010635  76.6924199
 116.7474694 134.2521794  76.5193166 115.3973664 134.1894656  75.8372845
 114.6170966 138.1261299  74.4622736 114.4782052 137.7580084  75.3348674
 113.8285562 138.6408939  74.2906694 116.1676181 137.5042902  71.8511574
 115.8326014 137.4643672  72.7469224 115.6680127 136.8387618  71.3781984
 110.1420425 132.9110532  77.3764155 110.0040223 132.1790771  77.9775694
 111.0525349 132.8219432  77.0948343 119.1035373 134.8498936  62.1248634
 118.4864544 134.1245764  62.0281686 118.6351861 135.6108297  61.7815708
 112.7702726 132.6230491  76.8647835 113.4802345 131.9823684  76.8234453
 112.7272034 132.8743386  77.7874016 111.4831660 129.6095709  78.6843474
 110.9469017 129.1586448  79.3365071 110.8948368 129.7441618  77.9413939
 110.8933919 129.0684361  61.2469938 110.0163385 128.9473161  60.8832185
 111.3691672 128.2770439  60.9948827 120.7606912 137.5237429  78.0168394
 119.8733691 137.1863350  78.1394793 121.3305463 136.7920460  78.2537159
 102.4136059 133.8561520  71.3411445 103.1007099 133.5423250  70.7532460
 102.2584188 134.7602885  71.0678696 107.2170781 128.7451717  75.7696469
 107.1328970 128.1377386  75.0346879 106.3953488 129.2360735  75.7705965
 114.2908065 142.1838881  74.9829637 114.2178237 142.9893852  75.4948941
 113.8485458 142.3830847  74.1577658 114.0797845 141.4210651  68.4932458
 113.2965367 141.9632331  68.5870683 114.7790590 141.9384631  68.8926700
 117.3894495 127.2305280  71.1366664 117.8863195 126.4775243  70.8167734
 116.6181477 127.2669597  70.5709873 125.2424252 132.9345646  72.7784955
 125.2314129 133.8170361  72.4078888 124.3741632 132.5817197  72.5839492
 118.4724276 135.9876968  68.7105087 117.5380554 136.1078430  68.5409792
 118.6500944 135.0849434  68.4465097 113.9729464 129.3722663  70.8638348
 113.6027251 128.8193704  71.5519254 114.4688556 128.7680797  70.3113348
 121.8596827 131.8294287  69.2455121 122.3257279 132.6622279  69.1715424
 122.3104328 131.3639269  69.9500380 111.8018662 139.8320158  77.9593366
 112.5028122 140.4656641  78.1122761 111.3313777 140.1734890  77.1989006
 119.9273058 138.1738108  66.2441273 120.2032902 138.0594703  67.1535147
 119.0577557 137.7755593  66.2053446 119.8313490 124.1974874  73.2846023
 118.9176570 124.4279101  73.4528230 120.2606591 124.2813318  74.1360055
 119.6019948 132.3864766  75.7845917 118.9491399 132.6340673  75.1298369
 119.9800328 131.5728904  75.4508394 116.8969288 141.3492644  67.1489135
 117.4257054 140.8385099  66.5359298 117.1597507 141.0335174  68.0134669
 115.6507521 133.1284577  82.2711954 114.9748158 133.0278706  82.9414329
 116.4735155 132.9723791  82.7347951 107.3986380 139.3656514  74.8924469
 107.9839817 138.6200201  75.0252373 107.2011219 139.6760470  75.7761133
 110.2525036 142.4007761  69.9086911 109.5835411 142.8853889  69.4250951
 110.1137905 142.6476981  70.8230290 101.9904035 131.9362114  73.6128912
 102.0288135 131.4025704  74.4066030 101.4844328 131.4097319  72.9939889
 109.3694797 126.7826654  77.1091454 109.4336124 127.6441485  76.6968852
 109.3061918 126.1700656  76.3763813 108.8447070 128.8549787  80.7564489
 109.4719109 128.4726864  81.3702013 107.9874989 128.6363989  81.1220181
 105.6212613 130.6626216  66.6882844 105.9166054 129.7536894  66.6349897
 104.7200649 130.6413955  66.3663846 109.1506860 128.7382212  72.6710392
 108.4293446 129.3518180  72.5317865 109.9400116 129.2739977  72.5927038
 111.9533173 126.0736639  78.9451044 112.4767575 126.3198935  79.7077353
 111.7345507 126.9056674  78.5254181 107.3500454 128.3440314  66.8122169
 107.0213161 127.4637692  66.6297275 107.7039825 128.2887982  67.6998558
 116.5980033 139.9795216  71.3217154 116.4504996 139.0511924  71.5024724
 117.4233527 140.0015307  70.8374230 110.4642278 128.6313283  67.1797646
 110.8038350 129.1599205  66.4576255 110.9114398 128.9693689  67.9556213
 113.1585718 127.0150334  76.6300714 112.8182539 126.2158147  77.0321394
 112.4524725 127.3152045  76.0577548 113.8102190 124.0999646  75.0828037
 114.6328259 123.6260125  74.9606928 114.0540254 124.8790130  75.5826724
 112.4510425 127.1287905  65.3790939 113.1718787 127.5069158  64.8754656
 111.8275729 127.8476782  65.4825917 116.5941548 127.8333054  66.3149272
 116.8105162 128.7157692  66.0138100 116.1135615 127.4419267  65.5854914
 111.3340769 130.7918767  72.8920016 111.1885350 131.1059070  73.7844298
 110.8565973 131.4103667  72.3390915 113.1937152 127.7821315  72.9400906
 113.1798721 126.8862408  72.6033204 113.9109580 127.7891979  73.5739192
 115.0463283 128.2158655  74.9854033 114.7881060 129.1375726  74.9838364
 114.5148323 127.8189090  75.6754497 105.8086431 133.3324112  75.8307677
 105.2639899 134.1083919  75.9627952 106.6865781 133.6794916  75.6726799
 112.5974048 126.6635695  68.2088476 112.7189959 125.7352342  68.4079363
 112.3076090 126.6774381  67.2966791 115.4665238 124.3490606  71.3455196
 115.4886935 124.4129939  70.3907175 115.8833297 123.5095114  71.5395702
 125.8448862 134.0845865  69.3834418 126.2880008 133.3353191  68.9853541
 124.9675373 134.0756002  69.0008150 106.5952453 132.4594008  78.7237834
 105.8534189 132.6076643  79.3102465 106.2745197 132.7202273  77.8604584
 114.5396116 142.0009986  78.5218224 114.8483242 141.7559133  79.3940924
 115.3371598 142.2056624  78.0337094 107.0409067 140.3459436  70.7548229
 107.8667087 140.0463208  70.3746872 106.6903119 139.5767059  71.2038017
 112.0090600 139.6985905  72.8245902 111.3870609 139.0356610  72.5248130
 112.6795467 139.7247037  72.1419550 105.2417672 138.2645763  71.7137162
 104.4049580 137.8367937  71.5321164 105.2141317 138.4578206  72.6507954
 112.0815127 128.1767693  82.4178408 112.1303283 129.0529816  82.0356178
 112.6237641 127.6345086  81.8450052 122.6867848 135.5701282  79.0112274
 122.7365853 135.4051290  79.9527797 122.5781771 134.7028541  78.6210155
 111.5704107 138.2489828  66.3004363 111.7192227 138.9325292  65.6471036
 112.3770550 138.2294918  66.8153819 119.9771610 131.5532210  80.3271581
 120.8781473 131.4138675  80.0355579 120.0519585 131.7186665  81.2669758
 114.3114416 128.9299065  79.1724767 113.4417725 129.2232631  78.9007356
 114.5473896 129.5139510  79.8932031 122.4373233 133.1130839  77.7234354
 122.9127355 133.3058485  76.9153205 121.5138798 133.1690024  77.4777737
 109.3256740 134.2755006  67.3065432 109.0802782 133.3717336  67.5045642
 109.4952654 134.2772156  66.3644910 117.0153450 125.1478682  76.6890187
 117.5335393 125.8839709  76.3636676 116.6608582 125.4542675  77.5236947
 108.5952387 130.0083363  64.8051593 107.9021632 130.0827718  64.1491629
 108.3504139 129.2443707  65.3273110 117.2666044 121.5678965  72.2091084
 117.5467797 120.9002154  72.8351511 118.0516651 121.7608060  71.6965748
 115.0699512 140.7437959  63.7716110 114.4973479 141.3628146  63.3186582
 115.6432306 141.2937320  64.3056032 121.1374902 129.9896599  75.9562659
 122.0892325 130.0894696  75.9774883 120.9678352 129.1974867  76.4660744
 119.1589282 127.0752182  76.1422060 118.5639214 127.3557195  75.4468549
 118.8738978 127.5646083  76.9138801 123.6162980 133.2102718  75.0704959
 123.5839300 132.2718719  75.2564643 124.2263603 133.2886755  74.3370784
 115.4546311 132.0798771  61.1132163 116.4005415 131.9504979  61.1820581
 115.0760556 131.3413433  61.5901591 123.7657468 130.0013762  75.1163242
 123.2496517 129.2172218  74.9293171 124.6497417 129.6732478  75.2809761
 121.4268195 123.7454777  71.0759055 121.2293016 123.4369865  71.9602387
 122.0367901 124.4716416  71.2056985 127.5154827 132.4126588  74.8085447
 126.7887990 132.2782553  74.2001938 127.1002114 132.7203416  75.6142165
 115.3385003 136.1316517  82.5732820 116.2588013 136.3095116  82.7672866
 115.3034586 135.1872563  82.4212519 113.6389228 130.0048748  61.0487048
 112.7320683 129.7081860  61.1249762 113.9165209 129.7078566  60.1821334
 104.5567168 131.3255111  71.4986094 104.2369953 130.4720419  71.2060468
 104.0100596 131.5403689  72.2544062 108.3347076 134.0417552  75.2155601
 108.5533086 134.9734660  75.2343635 108.7472850 133.6825526  76.0010405
 115.2551294 124.5485637  67.2031289 114.4452022 124.2032722  67.5786535
 115.9435711 124.2393181  67.7918901 117.1841842 123.6263684  68.8255586
 117.7372880 124.0459138  69.4845609 117.4211928 122.6999432  68.8678542
 113.2074941 129.6150758  84.6058350 113.1071668 130.5645115  84.5370441
 112.9896483 129.2868997  83.7334420 112.4088012 126.8635683  61.1899027
 113.2707176 127.1890581  61.4494845 112.5938357 126.0767179  60.6772093
 104.4255428 134.9458023  73.4679216 103.7318900 134.5311975  72.9549170
 105.1728419 134.9878559  72.8712635 120.5620649 125.7364209  68.3334250
 119.9819318 126.3949013  67.9512303 120.2956582 124.9141554  67.9221668
 119.0124215 125.1369267  70.5355571 119.5123994 125.2485802  69.7269889
 119.6559823 124.8330320  71.1756379 113.0706211 133.0447897  83.4223412
 112.5873293 133.8448257  83.6287301 113.1567150 133.0555842  82.4690856
 106.3392171 134.8776276  71.3445231 106.3162859 134.9763964  70.3927114
 106.6492807 135.7241427  71.6662397 108.9979549 136.9352431  75.4591845
 109.9522802 136.9036374  75.3921777 108.7992072 136.4743055  76.2742071
 109.5878931 135.5053547  78.0262643 110.4071820 135.9997626  78.0497480
 109.8615738 134.5885516  77.9980211 119.3445527 127.8964300  67.3890599
 118.4571382 128.1813950  67.1710793 119.7599516 127.7358063  66.5417875
 122.6960063 127.9210821  71.1044938 123.4720453 128.4107273  71.3769555
 121.9708197 128.3468875  71.5616807 125.1332622 128.6338440  72.1618878
 125.7277113 128.3934176  71.4512187 125.2059205 127.9145570  72.7892415
 107.3529777 142.4772051  72.4762043 107.2184245 141.7172452  71.9100041
 106.9361840 143.2012951  72.0090832 118.4888740 137.6608974  61.4838619
 119.1924591 137.8658977  62.0996274 117.7651389 138.2285736  61.7487702
 119.3186551 133.4118836  67.6040889 119.2621752 133.8687387  66.7648521
 119.8714893 132.6509520  67.4263731 123.1291357 129.2008568  68.4291008
 122.8728291 128.8005203  69.2599216 122.5044225 129.9152361  68.3041147
 127.4403694 131.9404641  70.9362300 126.8803252 132.0097830  71.7093862
 126.8347198 131.7645625  70.2161796 110.5098903 143.3741368  72.6880486
 110.3931287 144.3186800  72.5859176 109.6891350 143.0714929  73.0766285
 120.3975438 138.0991504  63.5337079 121.2321042 137.6672702  63.3514553
 120.2359781 137.9273517  64.4613973 120.0521330 134.6023617  64.8993418
 119.9970134 134.4367888  63.9581862 119.4267385 135.3099650  65.0555608
 104.8413845 129.8391681  78.7254840 105.4872709 129.3290635  79.2142065
 104.6330996 130.5760363  79.2998265 117.3667237 136.9072529  84.2246981
 118.2358397 137.0813181  83.8633616 116.8873989 137.7266946  84.1022710
 113.3617456 124.1031726  64.4778736 113.3496125 125.0473566  64.6347007
 114.2540877 123.9201871  64.1838197 111.5353417 144.0269630  75.9036414
 112.4380664 144.0593240  76.2202909 111.3090788 143.0970081  75.9182750
 113.2907019 142.7800616  72.5646493 112.3402650 142.7802478  72.4510865
 113.5939506 142.0333351  72.0482528 117.1769575 120.6974503  68.7324673
 116.4101971 120.1432989  68.8781355 117.5880280 120.7696371  69.5938825
 109.1811336 126.9859298  82.8229854 110.0442798 126.6296103  83.0333179
 108.6076747 126.6473193  83.5105259  42.3109678   2.9887936  60.3537562
  42.9488088   2.8694683  59.6500902  42.1930521   3.9368780  60.4125514
  39.1199385   2.9415364  60.2899087  38.7817896   2.8256429  59.4019622
  39.9889153   2.5406529  60.2700093  34.9786200   4.7950840  56.2795978
  34.4151065   4.7040777  55.5112265  34.8638595   3.9750745  56.7598470
  39.6019168   4.0950216  66.2485292  39.5907808   3.7003014  65.3765796
  39.7639807   3.3616288  66.8419064  32.5250632   6.2902032  59.1180198
  33.3171924   5.9492857  58.7026497  32.7647282   6.3997007  60.0382351
  40.5585759   8.4621808  51.5910443  39.9073739   9.0475889  51.2044456
  41.3530122   8.9928003  51.6505480  34.4841386   5.5510945  51.9897577
  35.2572262   5.0039932  51.8510453  34.8366785   6.4155195  52.2012038
  36.3226429   6.8787328  65.1964476  36.0316295   7.7832958  65.0811142
  36.9583413   6.9203855  65.9108546  37.2482636   4.2564176  61.7865836
  37.8446208   4.0320198  61.0722799  37.3057607   3.5148922  62.3891284
  36.8207664   1.7103611  49.6216027  37.0733185   1.1885133  48.8599490
  35.8832223   1.5469757  49.7242710  41.8650947   0.7139390  57.4290770
  42.6514036   0.2958813  57.0781187  42.1289651   1.6185482  57.5972418
  42.0361024   6.1512240  52.1279427  41.4006857   6.2246867  52.8400331
  41.7058431   6.7405839  51.4498506  47.2659374   0.6514623  58.3323749
  47.9984546   0.0813840  58.5661578  46.5098730   0.2636223  58.7730254
  36.5403953   3.6131717  51.8240402  36.4240211   2.9376621  52.4921486
  36.6506213   3.1264091  51.0072555  38.8835494   3.0741864  55.5287091
  38.5193701   2.5472485  56.2400012  39.7402610   2.6840333  55.3553576
  44.7884794  -5.6363803  62.7918357  44.4568119  -4.7668392  62.5679572
  44.1930408  -5.9527519  63.4712388  38.5240981  -1.8968236  50.5248439
  38.6915383  -1.0287999  50.8918911  38.3338150  -1.7340954  49.6009729
  41.2816314   6.5648743  62.1914270  40.9817037   7.4673782  62.0830077
  40.9367373   6.2980926  63.0435423  34.7328795   3.0162540  58.2250974
  33.8079292   2.8838754  58.4328666  34.9813208   3.7956759  58.7220917
  44.6813458  -0.9168717  59.8711707  43.7730335  -0.9853308  59.5770468
  44.6301053  -0.4396772  60.6993533  38.5030201   0.5589422  51.5095106
  38.3829827   1.0046472  52.3480587  37.8082790   0.9074739  50.9508644
  32.0937606   2.6595813  59.0594763  32.2229987   2.9130292  59.9734175
  31.4135058   3.2523521  58.7399418  36.2637094  13.3293063  55.1585238
  36.1861123  14.2800888  55.2373718  35.6598737  12.9838936  55.8160164
  38.7554323   0.5020929  67.8146604  37.9787657   1.0614849  67.8049469
  39.3944886   0.9877712  68.3361475  46.5475104  -2.7152278  61.6489581
  45.9049484  -2.4219745  61.0029376  46.0430032  -2.8299358  62.4542778
  44.2015268   1.0310895  52.3375440  45.1133124   1.2638282  52.1623138
  43.6924915   1.6147939  51.7750519  37.0100696   3.3106382  67.3764571
  37.7515380   3.8491426  67.0999395  36.3037681   3.9372671  67.5336123
  42.4856035   5.4535523  65.9736733  42.8939391   5.0117933  65.2291365
  41.7633297   4.8788150  66.2270926  38.8387105   0.3908129  63.3470290
  39.6848301   0.8147543  63.4904939  38.7785743  -0.2658246  64.0408853
  42.8084850   6.0136713  59.7289022  42.1793712   6.1782427  59.0265090
  42.4210512   6.4278323  60.4999986  46.6874082   6.9491151  57.0833386
  46.0025120   7.3290052  56.5330419  46.7717931   7.5586478  57.8165333
  41.9886551  -1.9487502  65.0051464  41.7447483  -1.1945442  64.4685739
  42.2646481  -1.5702155  65.8398711  43.9425013   4.5951110  63.6828729
  44.1541909   5.2382870  63.0063110  43.8954762   3.7613427  63.2150659
  41.5451242  -2.7931069  60.5865301  40.6835721  -2.4949816  60.8782039
  41.5713677  -2.5760670  59.6546334  38.3612812   5.7511121  56.9939107
  38.8251157   6.0298824  56.2043729  38.0969610   4.8494566  56.8112198
  35.2536893   5.2982603  59.9318870  35.8238250   5.7269871  59.2936355
  35.8445005   5.0165188  60.6303056  37.2981698   1.8734274  53.8028672
  38.0005741   2.3255317  54.2702598  36.9662326   1.2318093  54.4308565
  35.7462059   0.4646030  68.1779881  35.1160720   1.1462311  68.4115278
  35.6398147   0.3529112  67.2333020  31.0407032   0.1317826  59.1045806
  30.2506086   0.3875355  58.6285916  31.5318279   0.9466164  59.2097846
  45.0570841   7.4723066  61.8551086  45.8788285   7.0703253  61.5733768
  45.0533244   7.3691300  62.8067202  32.9921777   0.4962406  56.0629282
  32.1952940   0.6081100  56.5812778  32.7647369   0.8349058  55.1970173
  38.8227445   7.0207109  64.0111797  38.8871877   7.4827516  64.8469969
  38.1138369   6.3904474  64.1394107  53.1476834   3.8161814  58.2036058
  52.3940543   3.2469212  58.0480062  53.2824376   3.7824479  59.1506693
  38.5375462   8.6875216  53.8790777  38.4021137   9.5326752  54.3075625
  39.0785275   8.8894494  53.1156711  31.9904860   6.2050654  54.4518702
  32.5029380   6.9993905  54.6024267  32.6427573   5.5076945  54.3852304
  33.7999745   9.3216411  56.5341456  33.9766373  10.2434375  56.3462439
  34.5956578   9.0074830  56.9635835  37.9410763  -3.8175325  68.1325389
  38.6820476  -3.2168172  68.0529852  38.1728686  -4.5597687  67.5743432
  33.0852101   1.3681043  66.4103619  32.9705616   0.4666300  66.7110718
  32.2296619   1.6144739  66.0588435  40.1643939   9.3098783  68.0091119
  39.7207793   8.5235161  67.6912024  40.8261152   9.4977933  67.3435010
  34.9231060  10.8394584  62.5351798  35.4738485  10.7111648  61.7628792
  34.0842536  11.1389473  62.1846691  42.2625177   9.5901583  66.0372521
  42.2443652  10.4110464  65.5452790  43.1845097   9.4655658  66.2622662
  38.7198231   7.1045712  66.8796029  39.2526568   6.3434000  66.6495337
  38.1912312   6.8119364  67.6220183  41.8867926  -7.7894222  62.4089671
  41.5432195  -6.8992580  62.3328781  42.2546889  -7.9792564  61.5459256
  29.9553777   4.5339309  55.2278273  30.7928999   4.9436317  55.0111981
  30.1332044   3.5938751  55.1978467  41.8518209   2.2014389  50.9162106
  41.3364832   2.9718994  51.1550493  41.5795517   1.5279525  51.5395167
  39.4365320  -2.9535910  55.9747344  38.5806916  -3.3429059  55.7952983
  39.8492272  -2.8743949  55.1147130  40.9664466  -5.4189567  60.3738904
  40.4629262  -5.4559431  59.5606709  41.2595073  -4.5096824  60.4335561
  46.8252483   4.9546744  52.8515279  46.0481926   4.6157903  52.4070441
  47.5043964   4.9599367  52.1770244  41.6404512   0.0741481  52.7421887
  41.3354648   0.3887631  53.5932030  42.5934954   0.1522901  52.7849220
  40.0850944   6.2331705  54.3914841  39.5572305   5.4984464  54.0788078
  39.5838447   7.0106381  54.1454809  45.0643790   4.4280725  59.5081887
  44.4067464   5.1179987  59.5962016  45.8684189   4.8177157  59.8515874
  43.8749249   2.7825098  57.5585829  44.3881130   3.4155090  58.0607539
  44.5250473   2.1826293  57.1929189  35.1439259  -1.0744168  50.7717338
  34.3076571  -0.7369481  51.0926613  35.0044028  -1.2095188  49.8344475
  38.2303544   4.0511915  47.3949814  37.3230606   3.8201168  47.5940963
  38.7274576   3.2549534  47.5823796  41.1371623  12.7609422  50.3146500
  40.4633322  13.0641119  50.9231458  41.5237445  13.5638503  49.9651957
  40.3530079   0.2574553  59.8044170  39.4352641   0.4789500  59.6465858
  40.7690223   0.3320864  58.9455877  41.1365127   1.6565969  54.9346850
  41.8836946   2.1687366  54.6253972  41.4056717   1.3350022  55.7951243
  39.4091777   4.1524510  51.9173804  38.5002997   3.8683543  52.0146274
  39.4386861   4.5723588  51.0577111  44.6411045   7.7631099  55.6864972
  44.1873372   6.9222009  55.7430162  44.0105012   8.3992498  56.0239752
  43.5843964  -1.3076915  56.9165639  42.8466721  -1.8199528  57.2475882
  43.8370738  -1.7476533  56.1048916  43.0843984   9.6007596  56.6214790
  43.3766958  10.1612653  55.9027155  43.5942605   9.8936157  57.3767949
  43.6855592  -8.5300663  57.5107408  43.9914469  -9.3903299  57.2233323
  44.4108197  -7.9383042  57.3106402  29.9779948   1.8730024  55.8989006
  29.7804348   1.2799385  55.1740073  29.4226612   1.5682234  56.6164945
  37.9576671   1.7653130  58.0183599  38.0125281   0.8126967  57.9426076
  37.1467873   1.9212570  58.5024898  39.1067865   5.6933254  49.2561883
  38.6687295   4.9769112  48.7967520  39.8478306   5.9209368  48.6946974
  35.8969031   0.3830190  55.7773978  35.0836897   0.6824361  56.1839170
  36.3928026  -0.0114121  56.4948461  38.0477609  10.3787947  57.7108243
  38.0053788  10.6048793  56.7816775  38.9640308  10.1451322  57.8594044
  41.4943243   0.8472015  64.6088872  41.8492631   1.0743488  65.4683338
  42.1415374   1.1790391  63.9866128  47.2240980   3.9690451  55.3138201
  47.0858879   4.1592047  54.3859390  46.8677199   4.7309833  55.7706252
  35.3883106  -2.0451454  61.3935213  36.0282485  -2.1862695  60.6958177
  34.5560637  -2.3316941  61.0173815  47.2510360   6.0366978  60.3249473
  47.6846866   5.9442267  61.1732527  47.9641940   6.0124478  59.6869489
  36.1643410   7.2550976  57.5070206  36.9584009   6.7601296  57.3052781
  35.4535102   6.7268839  57.1437911  40.9838255   9.6369072  61.8582573
  41.0375277  10.2060008  62.6260289  40.1153036   9.8070957  61.4936611
  32.4726174   1.3994058  53.5829958  31.5423762   1.3378513  53.7999921
  32.5683645   0.8770011  52.7866600  33.8636648  -0.6613372  63.3407025
  34.5359701  -0.8696010  62.6919674  33.0366434  -0.8591286  62.9012257
  48.1125909   6.0790678  62.8582358  48.3061799   6.9836489  63.1041633
  48.0126527   5.6198097  63.6920943  39.7662220  -4.0351431  65.3572686
  39.1190135  -3.3361482  65.2637162  40.5363235  -3.6015287  65.7248934
  43.1741018   6.2297421  68.4323239  43.0226524   6.0007973  67.5153322
  43.1645697   7.1868022  68.4454584  39.9426354   3.8029334  63.4169505
  40.8718414   3.9540493  63.2438473  39.5217384   3.8913355  62.5618152
  38.7414686   7.8279998  61.1868043  38.6025772   7.4598783  62.0593981
  37.9529282   8.3427638  61.0152001  39.3362838  12.9289095  52.5293579
  39.5114594  12.4577138  53.3439202  38.6495626  13.5554861  52.7574840
  40.2919901   7.2061601  58.5756881  39.9569734   7.1662371  59.4714531
  39.7923847   6.5406317  58.1027291  34.2664145   2.6129231  64.1009462
  34.1283943   1.8809470  64.7021001  35.1769069   2.5238131  63.8193650
  43.2279093   4.5517635  48.8493940  42.6108263   3.8264463  48.7526993
  42.7595581   5.3126995  48.5061015  36.8946446   2.3249190  63.5893141
  37.6046064   1.6842382  63.5479760  36.8515754   2.5762085  64.5119322
  44.8833224   9.2616544  66.5099721  44.8245771   8.5775764  65.8430304
  45.2852743  10.0035534  66.0580347  35.6075380  -0.6885592  65.4088781
  35.0712737  -1.1394853  66.0610377  35.0192088  -0.5539683  64.6659245
  33.9023923  16.0778457  59.3033440  34.1420522  16.7096982  59.9812458
  33.0593120  15.7266497  59.5898799  35.0177639  -1.2296941  47.9715245
  34.1407105  -1.3508140  47.6077491  35.4935392  -2.0210862  47.7194133
  44.8850632   7.2256127  64.7413700  43.9977411   6.8882049  64.8640099
  45.4549183   6.4939159  64.9782466  26.5379779   3.5580219  58.0656752
  27.2250819   3.2441949  57.4777767  26.3827908   4.4621584  57.7924003
  38.4151785  11.8857580  61.7074944  38.3421957  12.6912551  62.2194248
  37.9729178  12.0849546  60.8822965  38.2041565  11.1229350  55.2177765
  37.4209087  11.6651030  55.3115990  38.9034310  11.6403329  55.6172006
  41.5138215  -3.0676021  57.8611970  42.0106914  -3.8206058  57.5413041
  40.7425196  -3.0311704  57.2955180  49.3667972   2.6364345  59.5030262
  49.3557849   3.5189060  59.1324195  48.4985352   2.2835896  59.3084799
  40.8750469  11.7844414  63.8633102  41.5878441  12.4191879  63.7909004
  40.3840497  11.8808280  63.0473104  42.5967996   5.6895667  55.4350394
  41.6624274   5.8097129  55.2655098  42.7744664   4.7868133  55.1710404
  38.0973184  -0.9258638  57.5883655  37.7270971  -1.4787597  58.2764561
  38.5932276  -1.5300504  57.0358655  45.9840547   1.5312986  55.9700428
  46.4500999   2.3640977  55.8960731  46.4348047   1.0657967  56.6745686
  35.9262382   9.5338857  64.6838673  36.6271842  10.1675340  64.8368067
  35.4557497   9.8753589  63.9234312  44.0516778   7.8756807  52.9686580
  44.3276622   7.7613402  53.8780454  43.1821277   7.4774292  52.9298753
  43.9557210  -6.1006427  60.0091329  43.0420289  -5.8702200  60.1773536
  44.3850311  -6.0167983  60.8605362  43.7263668   2.0883465  62.5091223
  43.0735118   2.3359372  61.8543676  44.1044048   1.2747603  62.1753701
  40.6870842  12.1243158  56.6119394  40.8693237  11.3064814  57.0747146
  41.5103828  12.3410850  56.1744284  41.0213008  11.0511343  53.8734442
  41.5500774  10.5403798  53.2604604  41.2841227  10.7353873  54.7379975
  39.7751241   2.8303276  68.9957260  39.0991878   2.7297405  69.6659636
  40.5978875   2.6742490  69.4593258  31.5230100   9.0675212  61.6169776
  32.1083537   8.3218900  61.7497680  31.3254939   9.3779169  62.5006440
  34.3768755  12.1026460  56.6332218  33.7079131  12.5872587  56.1496258
  34.2381625  12.3495680  57.5475597  38.5174024  14.1370203  63.2314876
  39.0692332  14.3001825  63.9963962  38.8580218  14.7274641  62.5594901
  43.3684898   8.9631461  69.0863531  43.9124802   9.5761419  68.5918486
  42.7871743   9.5211039  69.6030544  41.6542411  12.0852179  60.2178559
  41.5293551  11.2841919  59.7089504  42.3121502  12.5798372  59.7292529
  33.2750580  -1.5599089  59.3955699  32.5537165  -0.9463121  59.2563172
  34.0643835  -1.0241324  59.3172345  43.7177320   9.8861199  61.8458109
  42.7707655   9.7666550  61.7736435  44.0660093   8.9983697  61.9284370
  40.7223753   9.6813915  58.0462461  40.5748715   8.7530623  58.2270031
  41.5477247   9.7034006  57.5619536  34.5885997  -1.6668018  53.9042953
  34.9282070  -1.1382097  53.1821561  35.0358118  -1.3287612  54.6801520
  44.3257875  10.5042474  59.1327334  45.2504422  10.2985335  58.9951785
  44.1573178  10.2558875  60.0416675  37.2829438  -3.2830967  63.3546021
  36.9426259  -4.0823154  63.7566701  36.5768444  -2.9829256  62.7822854
  36.5754144  -3.1693396  52.1036246  37.2962507  -2.7912143  51.5999963
  35.9519449  -2.4504519  52.2071224  40.7185267  -2.4648247  53.0394578
  40.9348882  -1.5823609  52.7383406  40.2379335  -2.8562034  52.3100220
  35.4584489   0.4937466  59.6165323  35.3129069   0.8077769  60.5089604
  34.9809692   1.1122366  59.0636221  37.3180872  -2.5159986  59.6646212
  37.3042440  -3.4118893  59.3278510  38.0353300  -2.5089322  60.2984498
  39.1707002  -2.0822646  61.7099340  38.9124780  -1.1605575  61.7083670
  38.6392043  -2.4792211  62.3999804  44.1153191  11.0228141  54.4889425
  44.2890069  10.4574564  53.7363278  44.6082082  11.8229036  54.3068915
  29.9330151   3.0342810  62.5552984  29.3883619   3.8102618  62.6873258
  30.8109501   3.3813615  62.3972105  49.9692582   3.7864564  56.1079725
  50.4123728   3.0371889  55.7098848  49.0919093   3.7774701  55.7253457
  45.1028364  10.3394906  51.5886323  45.7979268  10.9601598  51.8073638
  45.4451514   9.4890257  51.8638701  30.7196173   2.1612707  65.4483141
  29.9777909   2.3095342  66.0347771  30.3988917   2.4220972  64.5849890
  47.0019787   7.7894611  53.1173654  47.5271111   8.1281884  52.3922974
  46.9142139   6.8541627  52.9336789  38.6639835  11.7028685  65.2463531
  38.9726962  11.4577832  66.1186230  39.4615317  11.9075323  64.7582401
  38.6860447  13.8566595  57.4768907  38.2465438  13.3642973  58.1701764
  39.4368564  13.3139562  57.2360983  31.1652786  10.0478135  57.4793535
  31.9910806   9.7481907  57.0992179  30.8146838   9.2785758  57.9283324
  36.1334320   9.4004604  59.5491209  35.5114329   8.7375309  59.2493437
  36.8039186   9.4265735  58.8664857  29.3661391   7.9664462  58.4382469
  28.5293300   7.5386636  58.2566470  29.3385037   8.1596905  59.3753260
  36.2058847  -2.1213608  69.1423715  36.2547003  -1.2451486  68.7601485
  36.7481361  -2.6636215  68.5695358  46.6913693   8.4227515  68.4224852
  45.9009236   8.4051654  67.8829352  46.4547047   8.9615809  69.1773889
  46.8111568   5.2719981  65.7357581  46.8609573   5.1069989  66.6773103
  46.7025491   4.4047240  65.3455461  35.6947827   7.9508527  53.0249670
  35.8435947   8.6343991  52.3716342  36.5014270   7.9313617  53.5399125
  44.1015330   1.2550909  67.0516887  45.0025193   1.1157374  66.7600885
  44.1763305   1.4205364  67.9915065  38.4358136  -1.3682236  65.8970074
  37.5661445  -1.0748670  65.6252662  38.6717616  -0.7841791  66.6177337
  48.3129765   7.6916923  65.9799602  48.0214573   8.0546903  66.8163063
  47.7001896   6.9783931  65.8012934  49.5125447   5.2569803  58.5002172
  50.3472338   5.6959607  58.6639733  49.6484576   4.7808456  57.6810418
  46.5616953   2.8149537  64.4479660  47.0371074   3.0077184  63.6398512
  45.6382518   2.8708723  64.2023044  33.4500459   3.9773705  54.0310738
  33.2046501   3.0736035  54.2290949  33.6196374   3.9790855  53.0890216
  41.1397169  -5.1502619  63.4135494  41.6579113  -4.4141592  63.0881983
  40.7852302  -4.8438626  64.2482253  32.7196107  -0.2897938  51.5296900
  32.0265352  -0.2153583  50.8736936  32.4747859  -1.0537594  52.0518417
  39.1943232  10.4456657  50.4961417  38.6217199  11.0646845  50.0431889
  39.7676026  10.9956019  51.0301339  45.2618622  -0.3084703  62.6807966
  46.2136045  -0.2086605  62.7020190  45.0922072  -1.1006434  63.1906050
  43.2833001  -3.2229119  62.8667367  42.6882933  -2.9424107  62.1713855
  42.9982698  -2.7335218  63.6384108  42.4140492  10.7293808  51.6269999
  43.3471165  10.6639369  51.8302875  42.3263705  11.5650074  51.1684532
  45.0428508  10.0459678  48.5873947  44.9642140   9.7119541  49.4809705
  45.8638175  10.5381446  48.5865419  47.7406700   2.9121417  61.7950265
  47.7083020   1.9737418  61.9809949  48.3507323   2.9905454  61.0616090
  39.5790031   1.7817470  47.8377469  40.5249135   1.6523678  47.9065888
  39.2004275   1.0432132  48.3146898  47.8901188  -0.2967539  61.8408549
  47.3740237  -1.0809083  61.6538477  48.7741137  -0.6248823  62.0055068
  45.5511915  -6.5526524  57.8004361  45.3536736  -6.8611436  58.6847693
  46.1611621  -5.8264885  57.9302291  53.5583250   3.9737424  60.9356302
  54.2886638   3.7122712  61.4964006  52.9490195   3.2366146  60.9758370
  51.6398547   2.1145287  61.5330753  50.9131710   1.9801252  60.9247245
  51.2245834   2.4222115  62.3387471  39.4628723   5.8335216  69.2978126
  40.3831733   6.0113815  69.4918173  39.4278306   4.8891262  69.1457826
  37.7632948  -0.2932553  47.7732355  36.8564403  -0.5899441  47.8495068
  38.0408929  -0.5902735  46.9066641  32.4590796   3.7436251  61.9400908
  32.6776805   4.6753359  61.9588941  32.8716569   3.3844225  62.7255711
  41.3085562  -6.6717617  55.5500893  41.8616600  -6.2522164  56.2090916
  41.5455648  -7.5981869  55.5923849  37.3318661  -0.6830543  71.3303657
  37.2315388   0.2663814  71.2615748  37.1140203  -1.0112304  70.4579727
  36.5331732  -3.4345618  47.9144334  37.3950896  -3.1090720  48.1740151
  36.7182076  -4.2214122  47.4017400  28.5499148   4.6476721  60.1924523
  27.8562619   4.2330674  59.6794477  29.2972139   4.6897258  59.5957942
  44.6864369  -4.5617092  55.0579557  44.1063038  -3.9032288  54.6757609
  44.4200301  -5.3839747  54.6466974  43.1367935  -5.1612034  57.2600877
  43.6367714  -5.0495500  56.4515196  43.7803543  -5.4650981  57.9001686
  37.1949931   2.7466596  70.1468718  36.7117013   3.5466956  70.3532607
  37.2810870   2.7574540  69.1936162  30.4635891   4.5794975  58.0690538
  30.4406579   4.6782662  57.1172421  30.7736527   5.4260126  58.3907704
  33.1223268   6.6371130  62.1837152  34.0766522   6.6055073  62.1167084
  32.9235792   6.1761754  62.9987378  33.7122651   5.2072246  64.7507950
  34.5315540   5.7016325  64.7742787  33.9859458   4.2904214  64.7225517
  43.4689247  -2.4017001  54.1135905  42.5815102  -2.1167351  53.8956100
  43.8843236  -2.5623238  53.2663182  46.8203783  -2.3770480  57.8290244
  47.5964173  -1.8874028  58.1014861  46.0951917  -1.9512426  58.2862114
  49.2576342  -1.6642861  58.8864185  49.8520832  -1.9047125  58.1757493
  49.3302925  -2.3835731  59.5137721  31.4773497  12.1790750  59.2007350
  31.3427965  11.4191151  58.6345348  31.0605560  12.9031650  58.7336139
  42.6132460   7.3627673  48.2083925  43.3168310   7.5677676  48.8241581
  41.8895109   7.9304435  48.4733009  43.4430271   3.1137535  54.3286195
  43.3865472   3.5706086  53.4893828  43.9958613   2.3528219  54.1509038
  47.2535076  -1.0972734  55.1536315  46.9972011  -1.4976098  55.9844523
  46.6287944  -0.3828940  55.0286454  51.5647414   1.6423340  57.6607606
  51.0046972   1.7116529  58.4339168  50.9590918   1.4664324  56.9407102
  34.6342623  13.0760067  59.4125793  34.5175007  14.0205499  59.3104483
  33.8135069  12.7733628  59.8011592  44.5219158   7.8010202  50.2582385
  45.3564762   7.3691401  50.0759860  44.3603501   7.6292216  51.1859280
  44.1765050   4.3042316  51.6238725  44.1213854   4.1386587  50.6827169
  43.5511105   5.0118349  51.7800914  41.4910957   6.6091228  70.9492287
  42.3602117   6.7831880  70.5878922  41.0117709   7.4285644  70.8268017
  35.6597137  13.7288329  62.6281721  36.5624384  13.7611939  62.9448216
  35.4334507  12.7988780  62.6428057  37.4150739  12.4819315  59.2891800
  36.4646370  12.4821177  59.1756172  37.7183225  11.7352050  58.7727834
  53.1503433  18.3179854  60.3537562  53.7881843  18.1986601  59.6500902
  53.0324276  19.2660698  60.4125514  49.9593139  18.2707282  60.2899087
  49.6211651  18.1548346  59.4019622  50.8282907  17.8698447  60.2700093
  45.8179955  20.1242758  56.2795978  45.2544820  20.0332695  55.5112265
  45.7032350  19.3042663  56.7598470  50.4412922  19.4242133  66.2485292
  50.4301563  19.0294932  65.3765796  50.6033562  18.6908206  66.8419064
  43.3644387  21.6193950  59.1180198  44.1565679  21.2784774  58.7026497
  43.6041037  21.7288925  60.0382351  51.3979513  23.7913726  51.5910443
  50.7467493  24.3767806  51.2044456  52.1923876  24.3219921  51.6505480
  45.3235141  20.8802863  51.9897577  46.0966017  20.3331850  51.8510453
  45.6760539  21.7447112  52.2012038  47.1620183  22.2079245  65.1964476
  46.8710049  23.1124876  65.0811142  47.7977168  22.2495773  65.9108546
  48.0876390  19.5856094  61.7865836  48.6839962  19.3612116  61.0722799
  48.1451362  18.8440839  62.3891284  47.6601418  17.0395529  49.6216027
  47.9126939  16.5177050  48.8599490  46.7225978  16.8761675  49.7242710
  52.7044701  16.0431307  57.4290770  53.4907790  15.6250731  57.0781187
  52.9683406  16.9477400  57.5972418  52.8754779  21.4804158  52.1279427
  52.2400612  21.5538784  52.8400331  52.5452185  22.0697757  51.4498506
  58.1053128  15.9806541  58.3323749  58.8378300  15.4105757  58.5661578
  57.3492484  15.5928141  58.7730254  47.3797707  18.9423635  51.8240402
  47.2633965  18.2668538  52.4921486  47.4899967  18.4556009  51.0072555
  49.7229248  18.4033782  55.5287091  49.3587455  17.8764403  56.2400012
  50.5796364  18.0132251  55.3553576  55.6278549   9.6928115  62.7918357
  55.2961874  10.5623526  62.5679572  55.0324162   9.3764399  63.4712388
  49.3634735  13.4323682  50.5248439  49.5309137  14.3003918  50.8918911
  49.1731904  13.5950964  49.6009729  52.1210068  21.8940661  62.1914270
  51.8210791  22.7965700  62.0830077  51.7761128  21.6272844  63.0435423
  45.5722550  18.3454458  58.2250974  44.6473046  18.2130672  58.4328666
  45.8206963  19.1248677  58.7220917  55.5207212  14.4123201  59.8711707
  54.6124089  14.3438609  59.5770468  55.4694808  14.8895146  60.6993533
  49.3423956  15.8881339  51.5095106  49.2223581  16.3338390  52.3480587
  48.6476544  16.2366657  50.9508644  42.9331361  17.9887731  59.0594763
  43.0623742  18.2422210  59.9734175  42.2528812  18.5815439  58.7399418
  47.1030848  28.6584981  55.1585238  47.0254878  29.6092806  55.2373718
  46.4992492  28.3130854  55.8160164  49.5948078  15.8312846  67.8146604
  48.8181412  16.3906767  67.8049469  50.2338641  16.3169629  68.3361475
  57.3868858  12.6139639  61.6489581  56.7443239  12.9072172  61.0029376
  56.8823787  12.4992560  62.4542778  55.0409022  16.3602812  52.3375440
  55.9526878  16.5930199  52.1623138  54.5318669  16.9439857  51.7750519
  47.8494450  18.6398300  67.3764571  48.5909135  19.1783344  67.0999395
  47.1431436  19.2664589  67.5336123  53.3249790  20.7827440  65.9736733
  53.7333146  20.3409851  65.2291365  52.6027051  20.2080068  66.2270926
  49.6780860  15.7200047  63.3470290  50.5242055  16.1439461  63.4904939
  49.6179498  15.0633671  64.0408853  53.6478604  21.3428631  59.7289022
  53.0187467  21.5074345  59.0265090  53.2604267  21.7570240  60.4999986
  57.5267836  22.2783069  57.0833386  56.8418874  22.6581970  56.5330419
  57.6111686  22.8878395  57.8165333  52.8280305  13.3804415  65.0051464
  52.5841237  14.1346476  64.4685739  53.1040236  13.7589763  65.8398711
  54.7818768  19.9243028  63.6828729  54.9935663  20.5674788  63.0063110
  54.7348516  19.0905344  63.2150659  52.3844997  12.5360848  60.5865301
  51.5229476  12.8342102  60.8782039  52.4107432  12.7531247  59.6546334
  49.2006566  21.0803039  56.9939107  49.6644912  21.3590742  56.2043729
  48.9363364  20.1786484  56.8112198  46.0930647  20.6274521  59.9318870
  46.6632004  21.0561789  59.2936355  46.6838759  20.3457105  60.6303056
  48.1375452  17.2026191  53.8028672  48.8399496  17.6547235  54.2702598
  47.8056081  16.5610010  54.4308565  46.5855814  15.7937948  68.1779881
  45.9554474  16.4754229  68.4115278  46.4791902  15.6821030  67.2333020
  41.8800786  15.4609744  59.1045806  41.0899840  15.7167273  58.6285916
  42.3712034  16.2758082  59.2097846  55.8964596  22.8014983  61.8551086
  56.7182040  22.3995171  61.5733768  55.8926999  22.6983217  62.8067202
  43.8315532  15.8254323  56.0629282  43.0346695  15.9373018  56.5812778
  43.6041124  16.1640976  55.1970173  49.6621199  22.3499027  64.0111797
  49.7265632  22.8119434  64.8469969  48.9532123  21.7196391  64.1394107
  40.1638489  15.7140235  61.5360796  40.4146528  16.5987244  61.8018372
  40.6998038  15.5344836  60.7635888  63.9870589  19.1453732  58.2036058
  63.2334297  18.5761130  58.0480062  64.1218130  19.1116396  59.1506693
  49.3769217  24.0167134  53.8790777  49.2414892  24.8618670  54.3075625
  49.9179029  24.2186412  53.1156711  45.8636557  10.0958714  70.5405132
  45.4703502   9.5424912  71.2152777  46.6802697  10.4069292  70.9311650
  42.8298614  21.5342572  54.4518702  43.3423135  22.3285822  54.6024267
  43.4821327  20.8368863  54.3852304  44.6393499  24.6508328  56.5341456
  44.8160127  25.5726293  56.3462439  45.4350333  24.3366748  56.9635835
  48.7804518  11.5116593  68.1325389  49.5214231  12.1123746  68.0529852
  49.0122440  10.7694231  67.5743432  43.9245856  16.6972960  66.4103619
  43.8099371  15.7958217  66.7110718  43.0690373  16.9436657  66.0588435
  51.0037693  24.6390701  68.0091119  50.5601548  23.8527079  67.6912024
  51.6654907  24.8269851  67.3435010  45.7624815  26.1686502  62.5351798
  46.3132240  26.0403565  61.7628792  44.9236290  26.4681391  62.1846691
  53.1018931  24.9193500  66.0372521  53.0837407  25.7402382  65.5452790
  54.0238851  24.7947576  66.2622662  49.5591986  22.4337630  66.8796029
  50.0920322  21.6725918  66.6495337  49.0306067  22.1411282  67.6220183
  52.7261681   7.5397696  62.4089671  52.3825950   8.4299338  62.3328781
  53.0940643   7.3499354  61.5459256  40.7947531  19.8631226  55.2278273
  41.6322753  20.2728235  55.0111981  40.9725799  18.9230669  55.1978467
  52.6911963  17.5306307  50.9162106  52.1758587  18.3010912  51.1550493
  52.4189272  16.8571443  51.5395167  50.2759074  12.3756008  55.9747344
  49.4200671  11.9862858  55.7952983  50.6886026  12.4547969  55.1147130
  51.8058221   9.9102351  60.3738904  51.3023017   9.8732486  59.5606709
  52.0988828  10.8195094  60.4335561  48.0501107   9.9941081  59.3805086
  48.9154104   9.7983889  59.0210975  48.1178616   9.7651433  60.3074442
  57.6646237  20.2838662  52.8515279  56.8875680  19.9449821  52.4070441
  58.3437718  20.2891285  52.1770244  52.4798266  15.4033399  52.7421887
  52.1748402  15.7179548  53.5932030  53.4328709  15.4814819  52.7849220
  50.9244698  21.5623622  54.3914841  50.3966060  20.8276382  54.0788078
  50.4232201  22.3398299  54.1454809  55.9037544  19.7572643  59.5081887
  55.2461219  20.4471904  59.5962016  56.7077944  20.1469075  59.8515874
  45.6563426  12.2243289  56.7521453  46.2307178  12.0018470  56.0194645
  46.2434408  12.2931983  57.5050054  54.7143003  18.1117016  57.5585829
  55.2274885  18.7447007  58.0607539  55.3644227  17.5118211  57.1929189
  45.9833013  14.2547750  50.7717338  45.1470325  14.5922436  51.0926613
  45.8437783  14.1196730  49.8344475  47.9586094   9.0984538  55.4796522
  47.3050506   8.7833555  54.8553137  47.9166568   8.4760278  56.2056345
  49.0697298  19.3803833  47.3949814  48.1624360  19.1493086  47.5940963
  49.5668330  18.5841452  47.5823796  51.1923834  15.5866471  59.8044170
  50.2746395  15.8081418  59.6465858  51.6083978  15.6612782  58.9455877
  51.9758882  16.9857887  54.9346850  52.7230701  17.4979284  54.6253972
  52.2450471  16.6641940  55.7951243  50.2485532  19.4816428  51.9173804
  49.3396751  19.1975460  52.0146274  50.2780616  19.9015506  51.0577111
  55.4804799  23.0923017  55.6864972  55.0267126  22.2513927  55.7430162
  54.8498766  23.7284415  56.0239752  54.4237719  14.0215003  56.9165639
  53.6860476  13.5092389  57.2475882  54.6764492  13.5815385  56.1048916
  53.9237739  24.9299514  56.6214790  54.2160713  25.4904571  55.9027155
  54.4336359  25.2228075  57.3767949  54.5249346   6.7991255  57.5107408
  54.8308223   5.9388619  57.2233323  55.2501951   7.3908875  57.3106402
  40.8173702  17.2021942  55.8989006  40.6198102  16.6091302  55.1740073
  40.2620366  16.8974152  56.6164945  48.7970426  17.0945048  58.0183599
  48.8519036  16.1418885  57.9426076  47.9861628  17.2504487  58.5024898
  49.9461620  21.0225171  49.2561883  49.5081050  20.3061030  48.7967520
  50.6872061  21.2501286  48.6946974  46.7362786  15.7122108  55.7773978
  45.9230651  16.0116278  56.1839170  47.2321780  15.3177797  56.4948461
  48.8871364  25.7079865  57.7108243  48.8447543  25.9340711  56.7816775
  49.8034063  25.4743239  57.8594044  52.3336998  16.1763932  64.6088872
  52.6886385  16.4035406  65.4683338  52.9809129  16.5082309  63.9866128
  58.0634734  19.2982368  55.3138201  57.9252633  19.4883964  54.3859390
  57.7070953  20.0601751  55.7706252  46.2276861  13.2840463  61.3935213
  46.8676240  13.1429223  60.6958177  45.3954391  12.9974977  61.0173815
  58.0904114  21.3658895  60.3249473  58.5240621  21.2734184  61.1732527
  58.8035695  21.3416396  59.6869489  47.0037165  22.5842894  57.5070206
  47.7977763  22.0893214  57.3052781  46.2928857  22.0560757  57.1437911
  51.8232009  24.9660989  61.8582573  51.8769031  25.5351926  62.6260289
  50.9546790  25.1362874  61.4936611  43.3119928  16.7285976  53.5829958
  42.3817516  16.6670431  53.7999921  43.4077400  16.2061928  52.7866600
  43.2305477  13.2540788  56.1708200  43.4912294  14.1686122  56.0617361
  44.0522649  12.7865231  56.3204813  44.7030402  14.6678546  63.3407025
  45.3753456  14.4595908  62.6919674  43.8760189  14.4700632  62.9012257
  58.9519664  21.4082596  62.8582358  59.1455554  22.3128406  63.1041633
  58.8520282  20.9490015  63.6920943  50.6055974  11.2940487  65.3572686
  49.9583889  11.9930436  65.2637162  51.3756990  11.7276630  65.7248934
  54.0134772  21.5589339  68.4323239  53.8620279  21.3299890  67.5153322
  54.0039452  22.5159940  68.4454584  50.7820109  19.1321251  63.4169505
  51.7112169  19.2832411  63.2438473  50.3611139  19.2205272  62.5618152
  49.5808441  23.1571916  61.1868043  49.4419526  22.7890700  62.0593981
  48.7923037  23.6719555  61.0152001  51.1313656  22.5353519  58.5756881
  50.7963488  22.4954288  59.4714531  50.6317601  21.8698234  58.1027291
  45.1057900  17.9421149  64.1009462  44.9677698  17.2101387  64.7021001
  46.0162823  17.8530049  63.8193650  54.0672847  19.8809553  48.8493940
  53.4502018  19.1556381  48.7526993  53.5989336  20.6418913  48.5061015
  47.7340200  17.6541108  63.5893141  48.4439819  17.0134300  63.5479760
  47.6909508  17.9054003  64.5119322  55.7226979  24.5908461  66.5099721
  55.6639525  23.9067681  65.8430304  56.1246497  25.3327451  66.0580347
  46.4469134  14.6406326  65.4088781  45.9106491  14.1897064  66.0610377
  45.8585843  14.7752235  64.6659245  44.7417678  31.4070375  59.3033440
  44.9814276  32.0388899  59.9812458  43.8986874  31.0558415  59.5898799
  45.8571393  14.0994977  47.9715245  44.9800860  13.9783778  47.6077491
  46.3329146  13.3081055  47.7194133  55.7244386  22.5548045  64.7413700
  54.8371165  22.2173967  64.8640099  56.2942937  21.8231076  64.9782466
  37.3773533  18.8872137  58.0656752  38.0644573  18.5733867  57.4777767
  37.2221662  19.7913502  57.7924003  42.1808256  13.7762333  62.4941775
  42.0966444  13.1688003  61.7592185  41.3590962  14.2671352  62.4951272
  49.2545540  27.2149498  61.7074944  49.1815711  28.0204469  62.2194248
  48.8122933  27.4141463  60.8822965  49.0435319  26.4521268  55.2177765
  48.2602841  26.9942948  55.3115990  49.7428064  26.9695247  55.6172006
  52.3531969  12.2615897  57.8611970  52.8500669  11.5085859  57.5413041
  51.5818951  12.2980214  57.2955180  60.2061727  17.9656263  59.5030262
  60.1951603  18.8480978  59.1324195  59.3379106  17.6127813  59.3084799
  51.7144223  27.1136332  63.8633102  52.4272195  27.7483796  63.7909004
  51.2234252  27.2100198  63.0473104  53.4361750  21.0187584  55.4350394
  52.5018029  21.1389047  55.2655098  53.6138419  20.1160051  55.1710404
  48.9366938  14.4033280  57.5883655  48.5664726  13.8504320  58.2764561
  49.4326031  13.7991413  57.0358655  56.8234301  16.8604903  55.9700428
  57.2894754  17.6932895  55.8960731  57.2741802  16.3949885  56.6745686
  46.7656137  24.8630775  64.6838673  47.4665596  25.4967258  64.8368067
  46.2951252  25.2045507  63.9234312  54.8910533  23.2048725  52.9686580
  55.1670376  23.0905319  53.8780454  54.0215031  22.8066210  52.9298753
  54.7950964   9.2285490  60.0091329  53.8814044   9.4589717  60.1773536
  55.2244066   9.3123935  60.8605362  54.5657423  17.4175382  62.5091223
  53.9128873  17.6651290  61.8543676  54.9437803  16.6039521  62.1753701
  50.6144996  18.1595194  68.9957260  49.9385633  18.0589323  69.6659636
  51.4372630  18.0034407  69.4593258  42.3623855  24.3967130  61.6169776
  42.9477292  23.6510818  61.7497680  42.1648693  24.7071087  62.5006440
  45.2162510  27.4318377  56.6332218  44.5472885  27.9164505  56.1496258
  45.0775380  27.6787598  57.5475597  36.9541509  16.9672730  60.3374219
  36.9925609  16.4336321  61.1311337  36.4481802  16.4407936  59.7185196
  49.3567779  29.4662121  63.2314876  49.9086087  29.6293742  63.9963962
  49.6973972  30.0566559  62.5594901  44.3332272  11.8137271  63.8336761
  44.3973598  12.6752102  63.4214159  44.2699392  11.2011272  63.1009120
  43.8084544  13.8860403  67.4809795  44.4356583  13.5037481  68.0947320
  42.9512463  13.6674605  67.8465488  54.2078653  24.2923378  69.0863531
  54.7518557  24.9053337  68.5918486  53.6265498  24.8502957  69.6030544
  40.5850087  15.6936832  53.4128150  40.8803528  14.7847511  53.3595204
  39.6838123  15.6724572  53.0909153  52.4936166  27.4144096  60.2178559
  52.3687305  26.6133836  59.7089504  53.1515257  27.9090290  59.7292529
  44.1144334  13.7692829  59.3955699  43.3930920  14.3828797  59.2563172
  44.9037590  14.3050594  59.3172345  54.5571074  25.2153117  61.8458109
  53.6101410  25.0958468  61.7736435  54.9053847  24.3275615  61.9284370
  46.9170648  11.1047255  65.6696351  47.4405049  11.3509552  66.4322660
  46.6982981  11.9367290  65.2499488  42.3137929  13.3750930  53.5367475
  41.9850635  12.4948309  53.3542581  42.6677299  13.3198599  54.4243865
  51.5617508  25.0105833  58.0462461  51.4142470  24.0822540  58.2270031
  52.3871001  25.0325923  57.5619536  45.4279752  13.6623900  53.9042953
  45.7675824  14.1909821  53.1821561  45.8751872  14.0004306  54.6801520
  48.1223193  12.0460951  63.3546021  47.7820013  11.2468764  63.7566701
  47.4162199  12.3462661  62.7822854  48.7739664   9.1310263  61.8073344
  49.5965734   8.6570741  61.6852234  49.0177728   9.9100747  62.3072030
  47.4147899  12.1598521  52.1036246  48.1356261  12.5379774  51.5999963
  46.7913203  12.8787398  52.2071224  51.5579022  12.8643670  53.0394578
  51.7742636  13.7468308  52.7383406  51.0773089  12.4729884  52.3100220
  46.2978243  15.8229384  59.6165323  46.1522824  16.1369687  60.5089604
  45.8203447  16.4414284  59.0636221  48.1574626  12.8131932  59.6646212
  48.1436195  11.9173025  59.3278510  48.8747054  12.8202595  60.2984498
  50.0100757  13.2469272  61.7099340  49.7518535  14.1686342  61.7083670
  49.4785797  12.8499706  62.3999804  40.7723905  18.3634728  62.5552984
  40.2277373  19.1394536  62.6873258  41.6503255  18.7105533  62.3972105
  47.5611522  11.6946312  54.9333782  47.6827433  10.7662958  55.1324670
  47.2713564  11.7084998  54.0212098  50.4302712   9.3801222  58.0700502
  50.4524409   9.4440555  57.1152482  50.8470771   8.5405731  58.2641008
  60.8086337  19.1156482  56.1079725  61.2517483  18.3663807  55.7098848
  59.9312847  19.1066618  55.7253457  55.9422118  25.6686823  51.5886323
  56.6373023  26.2893516  51.8073638  56.2845268  24.8182175  51.8638701
  41.5589927  17.4904624  65.4483141  40.8171663  17.6387260  66.0347771
  41.2382672  17.7512890  64.5849890  57.8413541  23.1186529  53.1173654
  58.3664865  23.4573802  52.3922974  57.7535894  22.1833544  52.9336789
  49.5033590  27.0320603  65.2463531  49.8120716  26.7869749  66.1186230
  50.3009072  27.2367241  64.7582401  49.5254202  29.1858512  57.4768907
  49.0859192  28.6934891  58.1701764  50.2762319  28.6431480  57.2360983
  42.0046541  25.3770053  57.4793535  42.8304561  25.0773825  57.0992179
  41.6540593  24.6077675  57.9283324  46.9728074  24.7296521  59.5491209
  46.3508083  24.0667226  59.2493437  47.6432941  24.7557653  58.8664857
  40.2055146  23.2956379  58.4382469  39.3687054  22.8678554  58.2566470
  40.1778791  23.4888823  59.3753260  47.0452602  13.2078309  69.1423715
  47.0940757  14.0840432  68.7601485  47.5875116  12.6655702  68.5695358
  57.5307447  23.7519433  68.4224852  56.7402991  23.7343571  67.8829352
  57.2940802  24.2907726  69.1773889  57.6505322  20.6011899  65.7357581
  57.7003327  20.4361906  66.6773103  57.5419246  19.7339158  65.3455461
  46.5341581  23.2800445  53.0249670  46.6829701  23.9635909  52.3716342
  47.3408024  23.2605535  53.5399125  54.9409085  16.5842827  67.0516887
  55.8418947  16.4449292  66.7600885  55.0157059  16.7497282  67.9915065
  49.2751890  13.9609682  65.8970074  48.4055199  14.2543248  65.6252662
  49.5111370  14.5450127  66.6177337  59.1523519  23.0208840  65.9799602
  58.8608327  23.3838821  66.8163063  58.5395650  22.3075849  65.8012934
  60.3519201  20.5861720  58.5002172  61.1866093  21.0251524  58.6639733
  60.4878330  20.1100373  57.6810418  57.4010707  18.1441455  64.4479660
  57.8764829  18.3369101  63.6398512  56.4776273  18.2000641  64.2023044
  44.2894214  19.3065622  54.0310738  44.0440256  18.4027952  54.2290949
  44.4590129  19.3082773  53.0890216  51.9790924  10.1789299  63.4135494
  52.4972868  10.9150326  63.0881983  51.6246057  10.4853292  64.2482253
  43.5589862  15.0393980  51.5296900  42.8659106  15.1138335  50.8736936
  43.3141613  14.2754323  52.0518417  52.2303518   6.5989581  58.9336391
  52.5105272   5.9312770  59.5596817  53.0154125   6.7918677  58.4211055
  50.0336987  25.7748575  50.4961417  49.4610954  26.3938762  50.0431889
  50.6069780  26.3247937  51.0301339  56.1012376  15.0207215  62.6807966
  57.0529799  15.1205313  62.7020190  55.9315827  14.2285484  63.1906050
  54.1226756  12.1062798  62.8667367  53.5276688  12.3867811  62.1713855
  53.8376453  12.5956699  63.6384108  53.2534246  26.0585725  51.6269999
  54.1864919  25.9931287  51.8302875  53.1657459  26.8941992  51.1684532
  55.8822263  25.3751596  48.5873947  55.8035895  25.0411459  49.4809705
  56.7031930  25.8673363  48.5865419  58.5800454  18.2413335  61.7950265
  58.5476774  17.3029336  61.9809949  59.1901078  18.3197372  61.0616090
  50.4183785  17.1109388  47.8377469  51.3642890  16.9815596  47.9065888
  50.0398030  16.3724050  48.3146898  58.7294943  15.0324378  61.8408549
  58.2133991  14.2482835  61.6538477  59.6134891  14.7043095  62.0055068
  56.3905670   8.7765394  57.8004361  56.1930491   8.4680482  58.6847693
  57.0005375   9.5027033  57.9302291  64.3977004  19.3029342  60.9356302
  65.1280392  19.0414630  61.4964006  63.7883949  18.5658064  60.9758370
  62.4792301  17.4437204  61.5330753  61.7525465  17.3093169  60.9247245
  62.0639588  17.7514033  62.3387471  50.3022478  21.1627134  69.2978126
  51.2225487  21.3405733  69.4918173  50.2672061  20.2183179  69.1457826
  48.6026702  15.0359364  47.7732355  47.6958158  14.7392477  47.8495068
  48.8802683  14.7389182  46.9066641  39.5204643  16.3565728  58.2231401
  39.2007427  15.5031036  57.9305775  38.9738071  16.5714306  58.9789368
  43.2984550  19.0728169  61.9400908  43.5170560  20.0045276  61.9588941
  43.7110324  18.7136143  62.7255711  50.2188768   9.5796254  53.9276596
  49.4089496   9.2343339  54.3031842  50.9073185   9.2703798  54.5164208
  52.1479316   8.6574301  55.5500893  52.7010355   9.0769754  56.2090916
  52.3849403   7.7310049  55.5923849  48.1712415  14.6461374  71.3303657
  48.0709142  15.5955731  71.2615748  47.9533957  14.3179613  70.4579727
  47.3725487  11.8946299  47.9144334  48.2344651  12.2201198  48.1740151
  47.5575831  11.1077795  47.4017400  39.3892903  19.9768639  60.1924523
  38.6956374  19.5622592  59.6794477  40.1365894  20.0189176  59.5957942
  55.5258123  10.7674826  55.0579557  54.9456792  11.4259630  54.6757609
  55.2594056   9.9452170  54.6466974  53.9761690  10.1679884  57.2600877
  54.4761468  10.2796418  56.4515196  54.6197298   9.8640936  57.9001686
  48.0343685  18.0758513  70.1468718  47.5510767  18.8758873  70.3532607
  48.1204625  18.0866458  69.1936162  41.3029645  19.9086893  58.0690538
  41.2800333  20.0074580  57.1172421  41.6130282  20.7552044  58.3907704
  43.9617023  21.9663048  62.1837152  44.9160277  21.9346990  62.1167084
  43.7629547  21.5053672  62.9987378  44.5516405  20.5364164  64.7507950
  45.3709294  21.0308243  64.7742787  44.8253213  19.6196132  64.7225517
  54.3083001  12.9274916  54.1135905  53.4208856  13.2124567  53.8956100
  54.7236990  12.7668680  53.2663182  57.6597537  12.9521437  57.8290244
  58.4357928  13.4417890  58.1014861  56.9345672  13.3779491  58.2862114
  60.0970096  13.6649056  58.8864185  60.6914587  13.4244792  58.1757493
  60.1696680  12.9456187  59.5137721  42.3167252  27.5082667  59.2007350
  42.1821720  26.7483068  58.6345348  41.8999314  28.2323567  58.7336139
  53.4526215  22.6919591  48.2083925  54.1562065  22.8969593  48.8241581
  52.7288864  23.2596353  48.4733009  54.2824025  18.4429452  54.3286195
  54.2259226  18.8998004  53.4893828  54.8352368  17.6820137  54.1509038
  58.0928831  14.2319184  55.1536315  57.8365765  13.8315820  55.9844523
  57.4681699  14.9462978  55.0286454  62.4041169  16.9715257  57.6607606
  61.8440727  17.0408447  58.4339168  61.7984672  16.7956242  56.9407102
  45.4736378  28.4051984  59.4125793  45.3568762  29.3497417  59.3104483
  44.6528824  28.1025546  59.8011592  55.3612912  23.1302120  50.2582385
  56.1958516  22.6983319  50.0759860  55.1997255  22.9584134  51.1859280
  55.0158804  19.6334233  51.6238725  54.9607608  19.4678505  50.6827169
  54.3904860  20.3410266  51.7800914  39.8051319  14.8702298  65.4500147
  40.4510183  14.3601252  65.9387372  39.5968470  15.6070979  66.0243572
  52.3304712  21.9383145  70.9492287  53.1995871  22.1123798  70.5878922
  51.8511463  22.7577562  70.8268017  48.3254930   9.1342342  51.2024043
  48.3133600  10.0784182  51.3592314  49.2178352   8.9512488  50.9083504
  46.4990892  29.0580246  62.6281721  47.4018138  29.0903857  62.9448216
  46.2728262  28.1280697  62.6428057  48.2544494  27.8111233  59.2891800
  47.3040125  27.8113094  59.1756172  48.5576980  27.0643967  58.7727834
  52.1407049   5.7285119  55.4569980  51.3739445   5.1743606  55.6026662
  52.5517754   5.8006988  56.3184131  44.1448810  12.0169915  69.5475161
  45.0080272  11.6606720  69.7578486  43.5714221  11.6783810  70.2350565
  60.7986894  33.5999199  60.2899087  60.4605405  33.4840264  59.4019622
  61.6676662  33.1990364  60.2700093  54.2038141  36.9485867  59.1180198
  54.9959433  36.6076692  58.7026497  54.4434791  37.0580842  60.0382351
  58.9270145  34.9148011  61.7865836  59.5233717  34.6904034  61.0722799
  58.9845116  34.1732757  62.3891284  66.4672303  25.0220032  62.7918357
  66.1355628  25.8915443  62.5679572  65.8717917  24.7056316  63.4712388
  56.4116304  33.6746375  58.2250974  55.4866801  33.5422589  58.4328666
  56.6600717  34.4540594  58.7220917  60.4341832  31.1604764  67.8146604
  59.6575166  31.7198684  67.8049469  61.0732395  31.6461547  68.3361475
  68.2262613  27.9431557  61.6489581  67.5836993  28.2364090  61.0029376
  67.7217541  27.8284477  62.4542778  58.6888205  33.9690218  67.3764571
  59.4302889  34.5075261  67.0999395  57.9825190  34.5956506  67.5336123
  60.5174614  31.0491965  63.3470290  61.3635810  31.4731378  63.4904939
  60.4573252  30.3925589  64.0408853  63.6674060  28.7096333  65.0051464
  63.4234992  29.4638394  64.4685739  63.9433990  29.0881681  65.8398711
  63.2238751  27.8652766  60.5865301  62.3623230  28.1634020  60.8782039
  63.2501186  28.0823165  59.6546334  60.0400321  36.4094957  56.9939107
  60.5038666  36.6882660  56.2043729  59.7757119  35.5078401  56.8112198
  56.9324402  35.9566438  59.9318870  57.5025759  36.3853707  59.2936355
  57.5232514  35.6749023  60.6303056  57.4249568  31.1229866  68.1779881
  56.7948229  31.8046147  68.4115278  57.3185656  31.0112947  67.2333020
  52.7194541  30.7901662  59.1045806  51.9293595  31.0459190  58.6285916
  53.2105788  31.6050000  59.2097846  51.0032244  31.0432152  61.5360796
  51.2540282  31.9279162  61.8018372  51.5391792  30.8636754  60.7635888
  56.7030311  25.4250632  70.5405132  56.3097257  24.8716830  71.2152777
  57.5196451  25.7361210  70.9311650  59.6198272  26.8408511  68.1325389
  60.3607985  27.4415664  68.0529852  59.8516195  26.0986148  67.5743432
  54.7639610  32.0264878  66.4103619  54.6493125  31.1250135  66.7110718
  53.9084128  32.2728575  66.0588435  56.6018569  41.4978420  62.5351798
  57.1525994  41.3695483  61.7628792  55.7630045  41.7973309  62.1846691
  63.5655435  22.8689614  62.4089671  63.2219704  23.7591255  62.3328781
  63.9334398  22.6791271  61.5459256  63.5305718  32.8598225  50.9162106
  63.0152341  33.6302829  51.1550493  63.2583026  32.1863361  51.5395167
  62.6451975  25.2394269  60.3738904  62.1416771  25.2024404  59.5606709
  62.9382582  26.1487011  60.4335561  64.7631493  40.2591431  56.6214790
  65.0554467  40.8196489  55.9027155  65.2730114  40.5519992  57.3767949
  65.3643101  22.1283173  57.5107408  65.6701978  21.2680536  57.2233323
  66.0895706  22.7200793  57.3106402  59.7265118  41.0371783  57.7108243
  59.6841297  41.2632629  56.7816775  60.6427817  40.8035157  57.8594044
  63.1730752  31.5055850  64.6088872  63.5280140  31.7327323  65.4683338
  63.8202883  31.8374227  63.9866128  57.0670615  28.6132381  61.3935213
  57.7069994  28.4721140  60.6958177  56.2348146  28.3266894  61.0173815
  57.8430919  37.9134812  57.5070206  58.6371518  37.4185132  57.3052781
  57.1322611  37.3852675  57.1437911  55.5424157  29.9970463  63.3407025
  56.2147210  29.7887825  62.6919674  54.7153943  29.7992549  62.9012257
  61.4449729  26.6232404  65.3572686  60.7977644  27.3222354  65.2637162
  62.2150744  27.0568548  65.7248934  61.9707410  37.8645436  58.5756881
  61.6357243  37.8246206  59.4714531  61.4711356  37.1990152  58.1027291
  55.9451654  33.2713066  64.1009462  55.8071452  32.5393305  64.7021001
  56.8556578  33.1821966  63.8193650  64.9066602  35.2101471  48.8493940
  64.2895772  34.4848299  48.7526993  64.4383090  35.9710831  48.5061015
  58.5733955  32.9833026  63.5893141  59.2833573  32.3426218  63.5479760
  58.5303263  33.2345920  64.5119322  57.2862889  29.9698243  65.4088781
  56.7500246  29.5188982  66.0610377  56.6979597  30.1044152  64.6659245
  55.5811432  46.7362293  59.3033440  55.8208030  47.3680817  59.9812458
  54.7380629  46.3850333  59.5898799  56.6965148  29.4286895  47.9715245
  55.8194614  29.3075696  47.6077491  57.1722901  28.6372973  47.7194133
  48.2167288  34.2164055  58.0656752  48.9038328  33.9025785  57.4777767
  48.0615417  35.1205419  57.7924003  53.0202010  29.1054251  62.4941775
  52.9360199  28.4979921  61.7592185  52.1984716  29.5963269  62.4951272
  57.6049891  40.1922693  64.6838673  58.3059351  40.8259176  64.8368067
  57.1345006  40.5337424  63.9234312  65.6344719  24.5577408  60.0091329
  64.7207798  24.7881635  60.1773536  66.0637820  24.6415852  60.8605362
  61.4538750  33.4887111  68.9957260  60.7779387  33.3881241  69.6659636
  62.2766384  33.3326325  69.4593258  53.2017609  39.7259048  61.6169776
  53.7871046  38.9802736  61.7497680  53.0042448  40.0363004  62.5006440
  56.0556264  42.7610295  56.6332218  55.3866640  43.2456423  56.1496258
  55.9169134  43.0079516  57.5475597  47.7935264  32.2964648  60.3374219
  47.8319363  31.7628239  61.1311337  47.2875557  31.7699853  59.7185196
  55.1726026  27.1429188  63.8336761  55.2367353  28.0044019  63.4214159
  55.1093147  26.5303190  63.1009120  54.6478299  29.2152321  67.4809795
  55.2750338  28.8329398  68.0947320  53.7906218  28.9966523  67.8465488
  57.7564402  26.4339173  65.6696351  58.2798804  26.6801470  66.4322660
  57.5376735  27.2659208  65.2499488  62.4011262  40.3397750  58.0462461
  62.2536224  39.4114458  58.2270031  63.2264756  40.3617841  57.5619536
  58.9616947  27.3752868  63.3546021  58.6213767  26.5760681  63.7566701
  58.2555953  27.6754579  62.7822854  59.6133419  24.4602181  61.8073344
  60.4359488  23.9862659  61.6852234  59.8571482  25.2392664  62.3072030
  57.1371998  31.1521301  59.6165323  56.9916578  31.4661604  60.5089604
  56.6597201  31.7706202  59.0636221  60.8494511  28.5761190  61.7099340
  60.5912289  29.4978260  61.7083670  60.3179552  28.1791624  62.3999804
  51.6117660  33.6926646  62.5552984  51.0671128  34.4686454  62.6873258
  52.4897010  34.0397450  62.3972105  52.3983682  32.8196542  65.4483141
  51.6565418  32.9679177  66.0347771  52.0776426  33.0804808  64.5849890
  60.3427344  42.3612520  65.2463531  60.6514471  42.1161667  66.1186230
  61.1402826  42.5659159  64.7582401  52.8440295  40.7061971  57.4793535
  53.6698315  40.4065743  57.0992179  52.4934347  39.9369593  57.9283324
  57.8121829  40.0588439  59.5491209  57.1901838  39.3959144  59.2493437
  58.4826695  40.0849571  58.8664857  51.0448900  38.6248297  58.4382469
  50.2080809  38.1970472  58.2566470  51.0172546  38.8180741  59.3753260
  57.8846356  28.5370227  69.1423715  57.9334512  29.4132350  68.7601485
  58.4268870  27.9947620  68.5695358  60.1145645  29.2901599  65.8970074
  59.2448954  29.5835165  65.6252662  60.3505125  29.8742044  66.6177337
  62.8184678  25.5081216  63.4135494  63.3366622  26.2442243  63.0881983
  62.4639811  25.8145210  64.2482253  63.0697273  21.9281499  58.9336391
  63.3499026  21.2604688  59.5596817  63.8547879  22.1210594  58.4211055
  64.9620510  27.4354716  62.8667367  64.3670442  27.7159729  62.1713855
  64.6770207  27.9248617  63.6384108  67.2299424  24.1057312  57.8004361
  67.0324245  23.7972400  58.6847693  67.8399130  24.8318950  57.9302291
  61.1416232  36.4919052  69.2978126  62.0619242  36.6697651  69.4918173
  61.1065815  35.5475097  69.1457826  59.4420457  30.3651282  47.7732355
  58.5351912  30.0684395  47.8495068  59.7196438  30.0681100  46.9066641
  50.3598397  31.6857645  58.2231401  50.0401181  30.8322953  57.9305775
  49.8131825  31.9006223  58.9789368  54.1378305  34.4020086  61.9400908
  54.3564314  35.3337194  61.9588941  54.5504078  34.0428061  62.7255711
  62.9873071  23.9866218  55.5500893  63.5404109  24.4061672  56.2090916
  63.2243157  23.0601967  55.5923849  59.0106170  29.9753292  71.3303657
  58.9102897  30.9247649  71.2615748  58.7927712  29.6471531  70.4579727
  58.2119241  27.2238217  47.9144334  59.0738405  27.5493115  48.1740151
  58.3969585  26.4369713  47.4017400  50.2286657  35.3060557  60.1924523
  49.5350128  34.8914510  59.6794477  50.9759648  35.3481093  59.5957942
  64.8155444  25.4971801  57.2600877  65.3155222  25.6088336  56.4515196
  65.4591052  25.1932854  57.9001686  58.8737440  33.4050431  70.1468718
  58.3904522  34.2050791  70.3532607  58.9598379  33.4158376  69.1936162
  52.1423400  35.2378811  58.0690538  52.1194088  35.3366498  57.1172421
  52.4524036  36.0843961  58.3907704  54.8010777  37.2954966  62.1837152
  55.7554031  37.2638908  62.1167084  54.6023301  36.8345589  62.9987378
  55.3910160  35.8656082  64.7507950  56.2103049  36.3600160  64.7742787
  55.6646967  34.9488050  64.7225517  53.1561006  42.8374585  59.2007350
  53.0215474  42.0774986  58.6345348  52.7393069  43.5615485  58.7336139
  56.3130132  43.7343902  59.4125793  56.1962516  44.6789335  59.3104483
  55.4922578  43.4317464  59.8011592  65.8552559  34.9626151  51.6238725
  65.8001363  34.7970423  50.6827169  65.2298614  35.6702184  51.7800914
  50.6445074  30.1994215  65.4500147  51.2903937  29.6893169  65.9387372
  50.4362225  30.9362897  66.0243572  63.1698466  37.2675063  70.9492287
  64.0389626  37.4415715  70.5878922  62.6905217  38.0869480  70.8268017
  59.1648684  24.4634260  51.2024043  59.1527354  25.4076100  51.3592314
  60.0572106  24.2804406  50.9083504  57.3384646  44.3872164  62.6281721
  58.2411893  44.4195774  62.9448216  57.1122016  43.4572615  62.6428057
  59.0938248  43.1403151  59.2891800  58.1433879  43.1405012  59.1756172
  59.3970734  42.3935885  58.7727834  62.9800804  21.0577037  55.4569980
  62.2133200  20.5035523  55.6026662  63.3911509  21.1298906  56.3184131
  54.9842565  27.3461833  69.5475161  55.8474026  26.9898637  69.7578486
  54.4107975  27.0075727  70.2350565  84.0828678  47.6299093  57.6607606
  83.5228236  47.6992282  58.4339168  83.4772181  47.4540077  56.9407102
  82.9594186  65.4117886  66.2485292  82.9482826  65.0170685  65.3765796
  83.1214825  64.6783959  66.8419064  84.6391332  67.8816414  62.1914270
  84.3392055  68.7841453  62.0830077  84.2942391  67.6148597  63.0435423
  80.3675714  64.6274053  67.3764571  81.1090398  65.1659097  67.0999395
  79.6612699  65.2540342  67.5336123  87.3000031  65.9118781  63.6828729
  87.5116927  66.5550541  63.0063110  87.2529780  65.0781097  63.2150659
  88.4145859  68.7890736  61.8551086  89.2363303  68.3870924  61.5733768
  88.4108262  68.6858970  62.8067202  90.6085378  67.3534648  60.3249473
  91.0421884  67.2609937  61.1732527  91.3216958  67.3292149  59.6869489
  83.3001372  65.1197004  63.4169505  84.2293432  65.2708164  63.2438473
  82.8792402  65.2081025  62.5618152  80.2521464  63.6416861  63.5893141
  80.9621082  63.0010053  63.5479760  80.2090772  63.8929756  64.5119322
  87.0838686  63.4051135  62.5091223  86.4310136  63.6527043  61.8543676
  87.4619066  62.5915274  62.1753701  87.0752338  71.2028870  61.8458109
  86.1282673  71.0834221  61.7736435  87.4235111  70.3151368  61.9284370
  92.8700465  66.5737473  58.5002172  93.7047356  67.0127277  58.6639733
  93.0059594  66.0976126  57.6810418  91.4076125  71.3108751  59.3805086
  92.2729122  71.1151560  59.0210975  91.4753634  71.0819103  60.3074442
  92.1314682  70.4477934  61.8073344  92.9540752  69.9738412  61.6852234
  92.3752746  71.2268417  62.3072030  93.7877730  70.6968893  58.0700502
  93.8099427  70.7608226  57.1152482  94.2045789  69.8573402  58.2641008
  95.5878536  67.9157252  58.9336391  95.8680290  67.2480441  59.5596817
  96.3729143  68.1086347  58.4211055  95.5054334  69.9741971  55.5500893
  96.0585373  70.3937425  56.2090916  95.7424421  69.0477720  55.5923849
  98.8833141  72.0842497  55.0579557  98.3031810  72.7427301  54.6757609
  98.6169074  71.2619841  54.6466974  95.4982067  67.0452790  55.4569980
  94.7314463  66.4911276  55.6026662  95.9092772  67.1174659  56.3184131
 100.0148727  96.7702346  56.2795978  99.4513592  96.6792283  55.5112265
  99.9001122  95.9502251  56.7598470 104.6381694  96.0701722  66.2485292
 104.6270335  95.6754520  65.3765796 104.8002334  95.3367794  66.8419064
  97.5613159  98.2653538  59.1180198  98.3534451  97.9244363  58.7026497
  97.8009809  98.3748513  60.0382351 105.5948286 100.4373314  51.5910443
 104.9436266 101.0227395  51.2044456 106.3892649 100.9679509  51.6505480
  99.5203913  97.5262451  51.9897577 100.2934789  96.9791438  51.8510453
  99.8729312  98.3906701  52.2012038 101.3588956  98.8538834  65.1964476
 101.0678822  99.7584464  65.0811142 101.9945940  98.8955361  65.9108546
 102.2845162  96.2315682  61.7865836 102.8808735  96.0071705  61.0722799
 102.3420134  95.4900428  62.3891284 107.0723551  98.1263746  52.1279427
 106.4369384  98.1998373  52.8400331 106.7420957  98.7157345  51.4498506
 106.3178841  98.5400249  62.1914270 106.0179564  99.4425288  62.0830077
 105.9729900  98.2732432  63.0435423 101.2999621 105.3044569  55.1585238
 101.2223650 106.2552395  55.2373718 100.6961264 104.9590442  55.8160164
 102.0463223  95.2857888  67.3764571 102.7877907  95.8242932  67.0999395
 101.3400208  95.9124177  67.5336123 107.5218562  97.4287029  65.9736733
 107.9301918  96.9869439  65.2291365 106.7995824  96.8539656  66.2270926
 107.8447377  97.9888219  59.7289022 107.2156239  98.1533933  59.0265090
 107.4573039  98.4029829  60.4999986 111.7236609  98.9242657  57.0833386
 111.0387647  99.3041559  56.5330419 111.8080458  99.5337984  57.8165333
 108.9787540  96.5702616  63.6828729 109.1904436  97.2134376  63.0063110
 108.9317289  95.7364933  63.2150659 103.3975339  97.7262627  56.9939107
 103.8613684  98.0050330  56.2043729 103.1332137  96.8246072  56.8112198
 100.2899420  97.2734109  59.9318870 100.8600777  97.7021377  59.2936355
 100.8807532  96.9916694  60.6303056 110.0933368  99.4474572  61.8551086
 110.9150812  99.0454759  61.5733768 110.0895771  99.3442806  62.8067202
 103.8589972  98.9958615  64.0111797 103.9234404  99.4579022  64.8469969
 103.1500896  98.3655980  64.1394107 118.1839361  95.7913320  58.2036058
 117.4303070  95.2220718  58.0480062 118.3186903  95.7575985  59.1506693
 103.5737989 100.6626722  53.8790777 103.4383664 101.5078258  54.3075625
 104.1147802 100.8646000  53.1156711  97.0267387  98.1802160  54.4518702
  97.5391907  98.9745411  54.6024267  97.6790100  97.4828451  54.3852304
  98.8362272 101.2967917  56.5341456  99.0128900 102.2185881  56.3462439
  99.6319105 100.9826336  56.9635835 105.2006466 101.2850289  68.0091119
 104.7570320 100.4986667  67.6912024 105.8623679 101.4729439  67.3435010
  99.9593587 102.8146091  62.5351798 100.5101012 102.6863154  61.7628792
  99.1205063 103.1140980  62.1846691 107.2987704 101.5653089  66.0372521
 107.2806179 102.3861970  65.5452790 108.2207624 101.4407164  66.2622662
 103.7560758  99.0797218  66.8796029 104.2889095  98.3185507  66.6495337
 103.2274839  98.7870870  67.6220183 111.8615010  96.9298250  52.8515279
 111.0844453  96.5909410  52.4070441 112.5406491  96.9350873  52.1770244
 105.1213471  98.2083211  54.3914841 104.5934832  97.4735970  54.0788078
 104.6200973  98.9857887  54.1454809 110.1006317  96.4032231  59.5081887
 109.4429991  97.0931493  59.5962016 110.9046716  96.7928663  59.8515874
 106.1734150 104.7360928  50.3146500 105.4995849 105.0392625  50.9231458
 106.5599972 105.5390009  49.9651957 109.6773572  99.7382605  55.6864972
 109.2235899  98.8973515  55.7430162 109.0467538 100.3744004  56.0239752
 108.1206511 101.5759102  56.6214790 108.4129485 102.1364159  55.9027155
 108.6305132 101.8687663  57.3767949 104.1430392  97.6684760  49.2561883
 103.7049822  96.9520619  48.7967520 104.8840833  97.8960874  48.6946974
 103.0840136 102.3539453  57.7108243 103.0416315 102.5800300  56.7816775
 104.0002835 102.1202828  57.8594044 112.2603507  95.9441957  55.3138201
 112.1221406  96.1343553  54.3859390 111.9039726  96.7061339  55.7706252
 112.2872887  98.0118484  60.3249473 112.7209393  97.9193773  61.1732527
 113.0004467  97.9875984  59.6869489 101.2005937  99.2302482  57.5070206
 101.9946535  98.7352802  57.3052781 100.4897629  98.7020345  57.1437911
 106.0200781 101.6120578  61.8582573 106.0737804 102.1811514  62.6260289
 105.1515563 101.7822463  61.4936611 113.1488436  98.0542184  62.8582358
 113.3424326  98.9587995  63.1041633 113.0489054  97.5949603  63.6920943
 108.2103545  98.2048927  68.4323239 108.0589051  97.9759479  67.5153322
 108.2008224  99.1619528  68.4454584 104.9788881  95.7780840  63.4169505
 105.9080941  95.9291999  63.2438473 104.5579911  95.8664861  62.5618152
 103.7777213  99.8031504  61.1868043 103.6388299  99.4350289  62.0593981
 102.9891809 100.3179144  61.0152001 104.3725365 104.9040601  52.5293579
 104.5477121 104.4328644  53.3439202 103.6858153 105.5306367  52.7574840
 105.3282428  99.1813107  58.5756881 104.9932261  99.1413877  59.4714531
 104.8286374  98.5157823  58.1027291 109.9195751 101.2368050  66.5099721
 109.8608298 100.5527270  65.8430304 110.3215270 101.9787040  66.0580347
  98.9386450 108.0529963  59.3033440  99.1783048 108.6848488  59.9812458
  98.0955647 107.7018003  59.5898799 109.9213159  99.2007634  64.7413700
 109.0339937  98.8633555  64.8640099 110.4911710  98.4690665  64.9782466
 103.4514312 103.8609086  61.7074944 103.3784484 104.6664057  62.2194248
 103.0091705 104.0601052  60.8822965 103.2404092 103.0980856  55.2177765
 102.4571614 103.6402536  55.3115990 103.9396837 103.6154836  55.6172006
 114.4030499  94.6115851  59.5030262 114.3920375  95.4940566  59.1324195
 113.5347879  94.2587402  59.3084799 105.9112996 103.7595920  63.8633102
 106.6240968 104.3943385  63.7909004 105.4203024 103.8559786  63.0473104
 107.6330523  97.6647173  55.4350394 106.6986801  97.7848635  55.2655098
 107.8107191  96.7619639  55.1710404 111.0203074  93.5064492  55.9700428
 111.4863526  94.3392483  55.8960731 111.4710574  93.0409473  56.6745686
 100.9624909 101.5090363  64.6838673 101.6634369 102.1426846  64.8368067
 100.4920024 101.8505095  63.9234312 109.0879305  99.8508313  52.9686580
 109.3639149  99.7364908  53.8780454 108.2183804  99.4525798  52.9298753
 105.7233369 104.0994664  56.6119394 105.9055764 103.2816320  57.0747146
 106.5466355 104.3162356  56.1744284 106.0575534 103.0262849  53.8734442
 106.5863301 102.5155304  53.2604604 106.3203754 102.7105379  54.7379975
 104.8113768  94.8054782  68.9957260 104.1354405  94.7048911  69.6659636
 105.6341402  94.6493996  69.4593258  96.5592627 101.0426718  61.6169776
  97.1446064 100.2970406  61.7497680  96.3617466 101.3530675  62.5006440
  99.4131282 104.0777966  56.6332218  98.7441658 104.5624093  56.1496258
  99.2744152 104.3247186  57.5475597 103.5536551 106.1121709  63.2314876
 104.1054859 106.2753331  63.9963962 103.8942744 106.7026147  62.5594901
 108.4047425 100.9382967  69.0863531 108.9487329 101.5512925  68.5918486
 107.8234270 101.4962545  69.6030544 106.6904938 104.0603685  60.2178559
 106.5656078 103.2593425  59.7089504 107.3484029 104.5549878  59.7292529
 108.7539847 101.8612705  61.8458109 107.8070182 101.7418056  61.7736435
 109.1022620 100.9735203  61.9284370 105.7586280 101.6565421  58.0462461
 105.6111242 100.7282129  58.2270031 106.5839773 101.6785512  57.5619536
 109.3620402 102.4793980  59.1327334 110.2866949 102.2736841  58.9951785
 109.1935705 102.2310381  60.0416675 109.1515718 102.9979647  54.4889425
 109.3252596 102.4326070  53.7363278 109.6444609 103.7980542  54.3068915
  94.9692678  95.0094316  62.5552984  94.4246146  95.7854124  62.6873258
  95.8472028  95.3565121  62.3972105 115.0055109  95.7616070  56.1079725
 115.4486255  95.0123395  55.7098848 114.1281619  95.7526207  55.7253457
 110.1390891 102.3146412  51.5886323 110.8341795 102.9353104  51.8073638
 110.4814041 101.4641763  51.8638701  95.7558700  94.1364213  65.4483141
  95.0140436  94.2846848  66.0347771  95.4351444  94.3972478  64.5849890
 112.0382314  99.7646117  53.1173654 112.5633638 100.1033390  52.3922974
 111.9504666  98.8293133  52.9336789 103.7002362 103.6780191  65.2463531
 104.0089489 103.4329338  66.1186230 104.4977844 103.8826829  64.7582401
 103.7222974 105.8318101  57.4768907 103.2827965 105.3394479  58.1701764
 104.4731091 105.2891068  57.2360983  96.2015313 102.0229641  57.4793535
  97.0273333 101.7233413  57.0992179  95.8509365 101.2537264  57.9283324
 101.1696847 101.3756110  59.5491209 100.5476856 100.7126815  59.2493437
 101.8401713 101.4017242  58.8664857  94.4023918  99.9415968  58.4382469
  93.5655827  99.5138142  58.2566470  94.3747564 100.1348411  59.3753260
 111.7276220 100.3979021  68.4224852 110.9371763 100.3803160  67.8829352
 111.4909574 100.9367315  69.1773889 111.8474095  97.2471487  65.7357581
 111.8972100  97.0821495  66.6773103 111.7388018  96.3798746  65.3455461
 100.7310353  99.9260033  53.0249670 100.8798474 100.6095497  52.3716342
 101.5376797  99.9065123  53.5399125 113.3492292  99.6668429  65.9799602
 113.0577100 100.0298409  66.8163063 112.7364423  98.9535437  65.8012934
 114.5487974  97.2321309  58.5002172 115.3834865  97.6711113  58.6639733
 114.6847103  96.7559962  57.6810418  98.4862986  95.9525211  54.0310738
  98.2409028  95.0487541  54.2290949  98.6558901  95.9542361  53.0890216
 104.2305759 102.4208163  50.4961417 103.6579726 103.0398351  50.0431889
 104.8038553 102.9707525  51.0301339 107.4503019 102.7045314  51.6269999
 108.3833692 102.6390875  51.8302875 107.3626232 103.5401580  51.1684532
 110.0791035 102.0211184  48.5873947 110.0004667 101.6871048  49.4809705
 110.9000702 102.5132952  48.5865419 118.5945776  95.9488930  60.9356302
 119.3249165  95.6874218  61.4964006 117.9852722  95.2117652  60.9758370
 116.6761074  94.0896793  61.5330753 115.9494237  93.9552758  60.9247245
 116.2608360  94.3973621  62.3387471 104.4991250  97.8086722  69.2978126
 105.4194259  97.9865321  69.4918173 104.4640833  96.8642768  69.1457826
  93.5861675  96.6228227  60.1924523  92.8925146  96.2082180  59.6794477
  94.3334666  96.6648764  59.5957942 102.2312458  94.7218102  70.1468718
 101.7479540  95.5218462  70.3532607 102.3173397  94.7326046  69.1936162
  98.1585795  98.6122636  62.1837152  99.1129049  98.5806579  62.1167084
  97.9598319  98.1513260  62.9987378  98.7485178  97.1823752  64.7507950
  99.5678067  97.6767831  64.7742787  99.0221985  96.2655720  64.7225517
 114.2938869  90.3108645  58.8864185 114.8883359  90.0704381  58.1757493
 114.3665452  89.5915775  59.5137721  96.5136024 104.1542256  59.2007350
  96.3790492 103.3942657  58.6345348  96.0968086 104.8783156  58.7336139
 107.6494987  99.3379179  48.2083925 108.3530837  99.5429182  48.8241581
 106.9257636  99.9055941  48.4733009 108.4792797  95.0889041  54.3286195
 108.4227999  95.5457592  53.4893828 109.0321140  94.3279725  54.1509038
 116.6009941  93.6174846  57.6607606 116.0409499  93.6868035  58.4339168
 115.9953445  93.4415830  56.9407102  99.6705150 105.0511573  59.4125793
  99.5537534 105.9957005  59.3104483  98.8497596 104.7485134  59.8011592
 109.5581685  99.7761709  50.2582385 110.3927289  99.3442907  50.0759860
 109.3966028  99.6043722  51.1859280 109.2127577  96.2793822  51.6238725
 109.1576381  96.1138093  50.6827169 108.5873632  96.9869855  51.7800914
 106.5273484  98.5842734  70.9492287 107.3964644  98.7583386  70.5878922
 106.0480235  99.4037151  70.8268017 100.6959664 105.7039835  62.6281721
 101.5986911 105.7363445  62.9448216 100.4697034 104.7740286  62.6428057
 102.4513266 104.4570821  59.2891800 101.5008897 104.4572683  59.1756172
 102.7545752 103.7103556  58.7727834 118.1865960 110.2931360  60.3537562
 118.8244370 110.1738107  59.6500902 118.0686803 111.2412204  60.4125514
 114.9955666 110.2458788  60.2899087 114.6574178 110.1299852  59.4019622
 115.8645434 109.8449953  60.2700093 110.8542482 112.0994264  56.2795978
 110.2907347 112.0084201  55.5112265 110.7394877 111.2794169  56.7598470
 115.4775449 111.3993639  66.2485292 115.4664090 111.0046438  65.3765796
 115.6396088 110.6659712  66.8419064 108.4006914 113.5945456  59.1180198
 109.1928206 113.2536280  58.7026497 108.6403564 113.7040431  60.0382351
 116.4342040 115.7665232  51.5910443 115.7830020 116.3519312  51.2044456
 117.2286403 116.2971427  51.6505480 110.3597668 112.8554369  51.9897577
 111.1328544 112.3083356  51.8510453 110.7123066 113.7198618  52.2012038
 112.1982710 114.1830751  65.1964476 111.9072576 115.0876382  65.0811142
 112.8339694 114.2247279  65.9108546 113.1238917 111.5607600  61.7865836
 113.7202489 111.3363622  61.0722799 113.1813889 110.8192345  62.3891284
 112.6963945 109.0147035  49.6216027 112.9489466 108.4928556  48.8599490
 111.7588504 108.8513181  49.7242710 117.7407228 108.0182813  57.4290770
 118.5270317 107.6002237  57.0781187 118.0045933 108.9228906  57.5972418
 117.9117306 113.4555664  52.1279427 117.2763139 113.5290290  52.8400331
 117.5814712 114.0449263  51.4498506 123.1415655 107.9558047  58.3323749
 123.8740827 107.3857263  58.5661578 122.3855011 107.5679647  58.7730254
 112.4160234 110.9175141  51.8240402 112.2996492 110.2420044  52.4921486
 112.5262494 110.4307515  51.0072555 114.7591775 110.3785288  55.5287091
 114.3949982 109.8515909  56.2400012 115.6158891 109.9883757  55.3553576
 120.6641076 101.6679621  62.7918357 120.3324400 102.5375032  62.5679572
 120.0686689 101.3515905  63.4712388 114.3997262 105.4075188  50.5248439
 114.5671664 106.2755424  50.8918911 114.2094431 105.5702470  49.6009729
 117.1572595 113.8692167  62.1914270 116.8573318 114.7717206  62.0830077
 116.8123655 113.6024350  63.0435423 110.6085077 110.3205964  58.2250974
 109.6835573 110.1882178  58.4328666 110.8569490 111.1000183  58.7220917
 120.5569739 106.3874707  59.8711707 119.6486616 106.3190115  59.5770468
 120.5057335 106.8646652  60.6993533 114.3786483 107.8632845  51.5095106
 114.2586108 108.3089896  52.3480587 113.6839071 108.2118163  50.9508644
 107.9693888 109.9639237  59.0594763 108.0986269 110.2173716  59.9734175
 107.2891339 110.5566945  58.7399418 112.1393375 120.6336487  55.1585238
 112.0617405 121.5844312  55.2373718 111.5355019 120.2882360  55.8160164
 114.6310605 107.8064353  67.8146604 113.8543939 108.3658273  67.8049469
 115.2701168 108.2921136  68.3361475 122.4231385 104.5891145  61.6489581
 121.7805766 104.8823679  61.0029376 121.9186314 104.4744066  62.4542778
 120.0771549 108.3354319  52.3375440 120.9889405 108.5681705  52.1623138
 119.5681196 108.9191363  51.7750519 112.8856977 110.6149806  67.3764571
 113.6271661 111.1534850  67.0999395 112.1793963 111.2416095  67.5336123
 118.3612317 112.7578946  65.9736733 118.7695673 112.3161357  65.2291365
 117.6389578 112.1831574  66.2270926 114.7143387 107.6951553  63.3470290
 115.5604582 108.1190967  63.4904939 114.6542024 107.0385177  64.0408853
 118.6841131 113.3180137  59.7289022 118.0549994 113.4825851  59.0265090
 118.2966793 113.7321747  60.4999986 122.5630363 114.2534575  57.0833386
 121.8781401 114.6333476  56.5330419 122.6474213 114.8629902  57.8165333
 117.8642832 105.3555922  65.0051464 117.6203764 106.1097982  64.4685739
 118.1402763 105.7341269  65.8398711 119.8181295 111.8994534  63.6828729
 120.0298190 112.5426294  63.0063110 119.7711043 111.0656850  63.2150659
 117.4207524 104.5112355  60.5865301 116.5592003 104.8093608  60.8782039
 117.4469958 104.7282753  59.6546334 114.2369093 113.0554545  56.9939107
 114.7007439 113.3342248  56.2043729 113.9725891 112.1537990  56.8112198
 111.1293174 112.6026027  59.9318870 111.6994531 113.0313295  59.2936355
 111.7201286 112.3208611  60.6303056 113.1737979 109.1777697  53.8028672
 113.8762023 109.6298741  54.2702598 112.8418608 108.5361516  54.4308565
 111.6218341 107.7689454  68.1779881 110.9917001 108.4505735  68.4115278
 111.5154429 107.6572536  67.2333020 106.9163313 107.4361250  59.1045806
 106.1262367 107.6918779  58.6285916 107.4074561 108.2509588  59.2097846
 120.9327123 114.7766489  61.8551086 121.7544567 114.3746677  61.5733768
 120.9289526 114.6734723  62.8067202 108.8678059 107.8005829  56.0629282
 108.0709222 107.9124524  56.5812778 108.6403651 108.1392482  55.1970173
 114.6983726 114.3250533  64.0111797 114.7628159 114.7870940  64.8469969
 113.9894650 113.6947898  64.1394107 105.2001016 107.6891741  61.5360796
 105.4509055 108.5738750  61.8018372 105.7360565 107.5096342  60.7635888
 129.0233116 111.1205238  58.2036058 128.2696824 110.5512636  58.0480062
 129.1580657 111.0867902  59.1506693 114.4131744 115.9918640  53.8790777
 114.2777419 116.8370176  54.3075625 114.9541556 116.1937918  53.1156711
 110.8999084 102.0710220  70.5405132 110.5066029 101.5176418  71.2152777
 111.7165224 102.3820798  70.9311650 107.8661141 113.5094078  54.4518702
 108.3785662 114.3037328  54.6024267 108.5183854 112.8120369  54.3852304
 109.6756026 116.6259834  56.5341456 109.8522654 117.5477799  56.3462439
 110.4712860 116.3118254  56.9635835 113.8167045 103.4868099  68.1325389
 114.5576758 104.0875252  68.0529852 114.0484967 102.7445737  67.5743432
 108.9608383 108.6724466  66.4103619 108.8461898 107.7709724  66.7110718
 108.1052900 108.9188163  66.0588435 116.0400220 116.6142207  68.0091119
 115.5964074 115.8278585  67.6912024 116.7017434 116.8021357  67.3435010
 110.7987341 118.1438008  62.5351798 111.3494767 118.0155072  61.7628792
 109.9598817 118.4432897  62.1846691 118.1381458 116.8945007  66.0372521
 118.1199934 117.7153888  65.5452790 119.0601378 116.7699082  66.2622662
 114.5954513 114.4089136  66.8796029 115.1282849 113.6477424  66.6495337
 114.0668594 114.1162788  67.6220183 117.7624207  99.5149202  62.4089671
 117.4188477 100.4050844  62.3328781 118.1303170  99.3250860  61.5459256
 105.8310058 111.8382732  55.2278273 106.6685280 112.2479741  55.0111981
 106.0088326 110.8982175  55.1978467 117.7274490 109.5057813  50.9162106
 117.2121114 110.2762418  51.1550493 117.4551799 108.8322949  51.5395167
 115.3121601 104.3507514  55.9747344 114.4563198 103.9614364  55.7952983
 115.7248553 104.4299475  55.1147130 116.8420748 101.8853857  60.3738904
 116.3385543 101.8483992  59.5606709 117.1351355 102.7946600  60.4335561
 113.0863634 101.9692587  59.3805086 113.9516631 101.7735396  59.0210975
 113.1541143 101.7402939  60.3074442 122.7008764 112.2590168  52.8515279
 121.9238207 111.9201327  52.4070441 123.3800245 112.2642791  52.1770244
 117.5160793 107.3784905  52.7421887 117.2110929 107.6931054  53.5932030
 118.4691236 107.4566325  52.7849220 115.9607225 113.5375128  54.3914841
 115.4328587 112.8027888  54.0788078 115.4594728 114.3149805  54.1454809
 120.9400071 111.7324149  59.5081887 120.2823746 112.4223410  59.5962016
 121.7440470 112.1220581  59.8515874 110.6925953 104.1994795  56.7521453
 111.2669705 103.9769976  56.0194645 111.2796935 104.2683489  57.5050054
 119.7505530 110.0868522  57.5585829 120.2637412 110.7198513  58.0607539
 120.4006754 109.4869717  57.1929189 111.0195540 106.2299256  50.7717338
 110.1832852 106.5673942  51.0926613 110.8800310 106.0948236  49.8344475
 112.9948621 101.0736044  55.4796522 112.3413033 100.7585061  54.8553137
 112.9529095 100.4511784  56.2056345 114.1059825 111.3555339  47.3949814
 113.1986887 111.1244592  47.5940963 114.6030857 110.5592958  47.5823796
 117.0127904 120.0652846  50.3146500 116.3389603 120.3684543  50.9231458
 117.3993726 120.8681926  49.9651957 116.2286361 107.5617977  59.8044170
 115.3108922 107.7832924  59.6465858 116.6446505 107.6364288  58.9455877
 117.0121409 108.9609393  54.9346850 117.7593228 109.4730790  54.6253972
 117.2812998 108.6393446  55.7951243 115.2848059 111.4567934  51.9173804
 114.3759278 111.1726966  52.0146274 115.3143143 111.8767012  51.0577111
 120.5167326 115.0674523  55.6864972 120.0629653 114.2265433  55.7430162
 119.8861293 115.7035921  56.0239752 119.4600246 105.9966509  56.9165639
 118.7223003 105.4843895  57.2475882 119.7127019 105.5566891  56.1048916
 118.9600266 116.9051020  56.6214790 119.2523240 117.4656077  55.9027155
 119.4698886 117.1979581  57.3767949 119.5611873  98.7742761  57.5107408
 119.8670750  97.9140125  57.2233323 120.2864478  99.3660381  57.3106402
 105.8536229 109.1773448  55.8989006 105.6560629 108.5842808  55.1740073
 105.2982893 108.8725658  56.6164945 113.8332953 109.0696554  58.0183599
 113.8881563 108.1170391  57.9426076 113.0224155 109.2255993  58.5024898
 114.9824147 112.9976677  49.2561883 114.5443577 112.2812536  48.7967520
 115.7234588 113.2252792  48.6946974 111.7725313 107.6873614  55.7773978
 110.9593178 107.9867785  56.1839170 112.2684307 107.2929303  56.4948461
 113.9233891 117.6831371  57.7108243 113.8810069 117.9092217  56.7816775
 114.8396590 117.4494745  57.8594044 117.3699524 108.1515438  64.6088872
 117.7248912 108.3786912  65.4683338 118.0171656 108.4833815  63.9866128
 123.0997261 111.2733874  55.3138201 122.9615160 111.4635470  54.3859390
 122.7433480 112.0353257  55.7706252 111.2639388 105.2591969  61.3935213
 111.9038767 105.1180729  60.6958177 110.4316918 104.9726483  61.0173815
 123.1266641 113.3410401  60.3249473 123.5603148 113.2485690  61.1732527
 123.8398222 113.3167902  59.6869489 112.0399691 114.5594400  57.5070206
 112.8340290 114.0644720  57.3052781 111.3291384 114.0312263  57.1437911
 116.8594536 116.9412495  61.8582573 116.9131558 117.5103432  62.6260289
 115.9909317 117.1114380  61.4936611 108.3482455 108.7037482  53.5829958
 107.4180043 108.6421937  53.7999921 108.4439927 108.1813434  52.7866600
 108.2668004 105.2292294  56.1708200 108.5274821 106.1437628  56.0617361
 109.0885176 104.7616737  56.3204813 109.7392929 106.6430052  63.3407025
 110.4115983 106.4347414  62.6919674 108.9122716 106.4452138  62.9012257
 123.9882191 113.3834102  62.8582358 124.1818081 114.2879912  63.1041633
 123.8882809 112.9241521  63.6920943 115.6418501 103.2691993  65.3572686
 114.9946416 103.9681942  65.2637162 116.4119517 103.7028136  65.7248934
 119.0497299 113.5340845  68.4323239 118.8982806 113.3051396  67.5153322
 119.0401979 114.4911446  68.4454584 115.8182636 111.1072757  63.4169505
 116.7474696 111.2583917  63.2438473 115.3973666 111.1956778  62.5618152
 114.6170967 115.1323422  61.1868043 114.4782053 114.7642206  62.0593981
 113.8285564 115.6471061  61.0152001 115.2119119 120.2332518  52.5293579
 115.3870875 119.7620562  53.3439202 114.5251907 120.8598285  52.7574840
 116.1676183 114.5105025  58.5756881 115.8326015 114.4705795  59.4714531
 115.6680128 113.8449741  58.1027291 110.1420427 109.9172655  64.1009462
 110.0040225 109.1852893  64.7021001 111.0525350 109.8281555  63.8193650
 119.1035374 111.8561059  48.8493940 118.4864545 111.1307887  48.7526993
 118.6351863 112.6170419  48.5061015 112.7702727 109.6292614  63.5893141
 113.4802346 108.9885806  63.5479760 112.7272035 109.8805509  64.5119322
 120.7589506 116.5659967  66.5099721 120.7002052 115.8819187  65.8430304
 121.1609024 117.3078957  66.0580347 111.4831661 106.6157832  65.4088781
 110.9469018 106.1648570  66.0610377 110.8948370 106.7503741  64.6659245
 109.7780205 123.3821881  59.3033440 110.0176803 124.0140405  59.9812458
 108.9349401 123.0309921  59.5898799 110.8933920 106.0746483  47.9715245
 110.0163386 105.9535284  47.6077491 111.3691673 105.2832562  47.7194133
 120.7606913 114.5299551  64.7413700 119.8733692 114.1925473  64.8640099
 121.3305464 113.7982582  64.9782466 102.4136060 110.8623643  58.0656752
 103.1007100 110.5485373  57.4777767 102.2584189 111.7665008  57.7924003
 107.2170782 105.7513840  62.4941775 107.1328971 105.1439509  61.7592185
 106.3953489 106.2422858  62.4951272 114.2908067 119.1901004  61.7074944
 114.2178238 119.9955975  62.2194248 113.8485460 119.3892969  60.8822965
 114.0797846 118.4272774  55.2177765 113.2965368 118.9694454  55.3115990
 114.7790591 118.9446753  55.6172006 117.3894496 104.2367403  57.8611970
 117.8863196 103.4837365  57.5413041 116.6181478 104.2731720  57.2955180
 125.2424254 109.9407769  59.5030262 125.2314130 110.8232484  59.1324195
 124.3741633 109.5879319  59.3084799 116.7506750 119.0887838  63.8633102
 117.4634722 119.7235302  63.7909004 116.2596779 119.1851704  63.0473104
 118.4724277 112.9939090  55.4350394 117.5380556 113.1140553  55.2655098
 118.6500945 112.0911557  55.1710404 113.9729465 106.3784786  57.5883655
 113.6027253 105.8255826  58.2764561 114.4688558 105.7742920  57.0358655
 121.8596828 108.8356410  55.9700428 122.3257281 109.6684401  55.8960731
 122.3104329 108.3701391  56.6745686 111.8018664 116.8382281  64.6838673
 112.5028123 117.4718764  64.8368067 111.3313779 117.1797013  63.9234312
 119.9273059 115.1800231  52.9686580 120.2032903 115.0656825  53.8780454
 119.0577558 114.7817716  52.9298753 119.8313491 101.2036997  60.0091329
 118.9176571 101.4341223  60.1773536 120.2606593 101.2875441  60.8605362
 119.6019950 109.3926889  62.5091223 118.9491400 109.6402796  61.8543676
 119.9800330 108.5791027  62.1753701 116.5627123 119.4286582  56.6119394
 116.7449518 118.6108238  57.0747146 117.3860110 119.6454274  56.1744284
 116.8969289 118.3554767  53.8734442 117.4257055 117.8447221  53.2604604
 117.1597509 118.0397297  54.7379975 115.6507523 110.1346700  68.9957260
 114.9748160 110.0340829  69.6659636 116.4735157 109.9785913  69.4593258
 107.3986382 116.3718636  61.6169776 107.9839819 115.6262324  61.7497680
 107.2011220 116.6822593  62.5006440 110.2525037 119.4069883  56.6332218
 109.5835412 119.8916011  56.1496258 110.1137907 119.6539104  57.5475597
 101.9904036 108.9424236  60.3374219 102.0288136 108.4087827  61.1311337
 101.4844329 108.4159442  59.7185196 114.3930306 121.4413627  63.2314876
 114.9448614 121.6045249  63.9963962 114.7336499 122.0318065  62.5594901
 109.3694799 103.7888777  63.8336761 109.4336125 104.6503608  63.4214159
 109.3061919 103.1762778  63.1009120 108.8447071 105.8611909  67.4809795
 109.4719110 105.4788987  68.0947320 107.9874990 105.6426111  67.8465488
 119.2441180 116.2674885  69.0863531 119.7881084 116.8804843  68.5918486
 118.6628025 116.8254463  69.6030544 105.6212614 107.6688338  53.4128150
 105.9166055 106.7599017  53.3595204 104.7200650 107.6476078  53.0909153
 117.5298693 119.3895603  60.2178559 117.4049832 118.5885342  59.7089504
 118.1877784 119.8841796  59.7292529 109.1506861 105.7444335  59.3955699
 108.4293447 106.3580303  59.2563172 109.9400117 106.2802100  59.3172345
 119.5933601 117.1904623  61.8458109 118.6463937 117.0709974  61.7736435
 119.9416374 116.3027121  61.9284370 111.9533175 103.0798762  65.6696351
 112.4767576 103.3261058  66.4322660 111.7345508 103.9118796  65.2499488
 107.3500456 105.3502436  53.5367475 107.0213162 104.4699815  53.3542581
 107.7039826 105.2950105  54.4243865 116.5980034 116.9857339  58.0462461
 116.4504997 116.0574046  58.2270031 117.4233528 117.0077430  57.5619536
 110.4642279 105.6375406  53.9042953 110.8038351 106.1661327  53.1821561
 110.9114399 105.9755812  54.6801520 120.2014156 117.8085898  59.1327334
 121.1260704 117.6028759  58.9951785 120.0329460 117.5602299  60.0416675
 113.1585720 104.0212457  63.3546021 112.8182540 103.2220270  63.7566701
 112.4524726 104.3214167  62.7822854 113.8102191 101.1061769  61.8073344
 114.6328261 100.6322247  61.6852234 114.0540255 101.8852253  62.3072030
 112.4510426 104.1350028  52.1036246 113.1718788 104.5131280  51.5999963
 111.8275730 104.8538904  52.2071224 116.5941549 104.8395176  53.0394578
 116.8105163 105.7219814  52.7383406 116.1135616 104.4481390  52.3100220
 111.3340770 107.7980890  59.6165323 111.1885351 108.1121193  60.5089604
 110.8565974 108.4165790  59.0636221 113.1937153 104.7883438  59.6646212
 113.1798722 103.8924531  59.3278510 113.9109581 104.7954101  60.2984498
 115.0463284 105.2220778  61.7099340 114.7881062 106.1437849  61.7083670
 114.5148324 104.8251212  62.3999804 119.9909473 118.3271565  54.4889425
 120.1646350 117.7617988  53.7363278 120.4838364 119.1272460  54.3068915
 105.8086432 110.3386234  62.5552984 105.2639900 111.1146042  62.6873258
 106.6865782 110.6857039  62.3972105 112.5974049 103.6697818  54.9333782
 112.7189960 102.7414464  55.1324670 112.3076091 103.6836504  54.0212098
 115.4665239 101.3552728  58.0700502 115.4886936 101.4192062  57.1152482
 115.8833298 100.5157237  58.2641008 125.8448864 111.0907988  56.1079725
 126.2880010 110.3415313  55.7098848 124.9675374 111.0818124  55.7253457
 120.9784645 117.6438329  51.5886323 121.6735550 118.2645022  51.8073638
 121.3207795 116.7933681  51.8638701 106.5952454 109.4656130  65.4483141
 105.8534190 109.6138766  66.0347771 106.2745198 109.7264396  64.5849890
 122.8776068 115.0938035  53.1173654 123.4027392 115.4325308  52.3922974
 122.7898421 114.1585050  52.9336789 114.5396117 119.0072109  65.2463531
 114.8483243 118.7621255  66.1186230 115.3371599 119.2118747  64.7582401
 114.5616729 121.1610018  57.4768907 114.1221719 120.6686397  58.1701764
 115.3124846 120.6182986  57.2360983 107.0409068 117.3521559  57.4793535
 107.8667088 117.0525331  57.0992179 106.6903120 116.5829182  57.9283324
 112.0090601 116.7048027  59.5491209 111.3870610 116.0418732  59.2493437
 112.6795468 116.7309159  58.8664857 105.2417673 115.2707886  58.4382469
 104.4049581 114.8430060  58.2566470 105.2141318 115.4640329  59.3753260
 112.0815129 105.1829815  69.1423715 112.1303284 106.0591938  68.7601485
 112.6237643 104.6407208  68.5695358 122.5669974 115.7270939  68.4224852
 121.7765518 115.7095077  67.8829352 122.3303329 116.2659232  69.1773889
 122.6867849 112.5763405  65.7357581 122.7365854 112.4113412  66.6773103
 122.5781773 111.7090664  65.3455461 111.5704108 115.2551951  53.0249670
 111.7192228 115.9387415  52.3716342 112.3770551 115.2357041  53.5399125
 119.9771612 108.5594333  67.0516887 120.8781474 108.4200798  66.7600885
 120.0519586 108.7248788  67.9915065 114.3114417 105.9361188  65.8970074
 113.4417726 106.2294754  65.6252662 114.5473897 106.5201633  66.6177337
 124.1886046 114.9960346  65.9799602 123.8970854 115.3590327  66.8163063
 123.5758177 114.2827355  65.8012934 125.3881728 112.5613226  58.5002172
 126.2228620 113.0003030  58.6639733 125.5240857 112.0851879  57.6810418
 122.4373234 110.1192961  64.4479660 122.9127356 110.3120607  63.6398512
 121.5138800 110.1752147  64.2023044 109.3256741 111.2817128  54.0310738
 109.0802783 110.3779458  54.2290949 109.4952655 111.2834279  53.0890216
 117.0153451 102.1540805  63.4135494 117.5335395 102.8901832  63.0881983
 116.6608584 102.4604798  64.2482253 108.5952388 107.0145486  51.5296900
 107.9021633 107.0889841  50.8736936 108.3504140 106.2505830  52.0518417
 117.2666045  98.5741087  58.9336391 117.5467799  97.9064276  59.5596817
 118.0516652  98.7670183  58.4211055 115.0699513 117.7500081  50.4961417
 114.4973481 118.3690268  50.0431889 115.6432307 118.2999443  51.0301339
 121.1374903 106.9958721  62.6807966 122.0892326 107.0956819  62.7020190
 120.9678354 106.2036990  63.1906050 119.1589283 104.0814304  62.8667367
 118.5639215 104.3619317  62.1713855 118.8738979 104.5708205  63.6384108
 118.2896773 118.0337231  51.6269999 119.2227446 117.9682793  51.8302875
 118.2019986 118.8693498  51.1684532 120.9184790 117.3503102  48.5873947
 120.8398421 117.0162965  49.4809705 121.7394457 117.8424869  48.5865419
 123.6162981 110.2164841  61.7950265 123.5839301 109.2780842  61.9809949
 124.2263605 110.2948878  61.0616090 115.4546312 109.0860894  47.8377469
 116.4005417 108.9567102  47.9065888 115.0760557 108.3475556  48.3146898
 123.7657470 107.0075884  61.8408549 123.2496518 106.2234341  61.6538477
 124.6497418 106.6794601  62.0055068 121.4268197 100.7516900  57.8004361
 121.2293018 100.4431988  58.6847693 122.0367902 101.4778539  57.9302291
 129.4339531 111.2780848  60.9356302 130.1642919 111.0166136  61.4964006
 128.8246476 110.5409570  60.9758370 127.5154828 109.4188710  61.5330753
 126.7887992 109.2844675  60.9247245 127.1002115 109.7265539  62.3387471
 115.3385005 113.1378640  69.2978126 116.2588014 113.3157239  69.4918173
 115.3034588 112.1934685  69.1457826 113.6389229 107.0110870  47.7732355
 112.7320685 106.7143983  47.8495068 113.9165210 106.7140688  46.9066641
 104.5567169 108.3317234  58.2231401 104.2369954 107.4782542  57.9305775
 104.0100598 108.5465812  58.9789368 108.3347077 111.0479675  61.9400908
 108.5533087 111.9796782  61.9588941 108.7472851 110.6887649  62.7255711
 115.2551295 101.5547760  53.9276596 114.4452023 101.2094845  54.3031842
 115.9435712 101.2455304  54.5164208 117.1841843 100.6325807  55.5500893
 117.7372882 101.0521260  56.2090916 117.4211929  99.7061555  55.5923849
 113.2074942 106.6212880  71.3303657 113.1071669 107.5707237  71.2615748
 112.9896484 106.2931119  70.4579727 112.4088014 103.8697805  47.9144334
 113.2707178 104.1952704  48.1740151 112.5938358 103.0829301  47.4017400
 104.4255430 111.9520145  60.1924523 103.7318901 111.5374098  59.6794477
 105.1728421 111.9940682  59.5957942 120.5620650 102.7426332  55.0579557
 119.9819319 103.4011136  54.6757609 120.2956583 101.9203677  54.6466974
 119.0124217 102.1431390  57.2600877 119.5123995 102.2547924  56.4515196
 119.6559825 101.8392442  57.9001686 113.0706212 110.0510019  70.1468718
 112.5873294 110.8510379  70.3532607 113.1567151 110.0617964  69.1936162
 106.3392172 111.8838399  58.0690538 106.3162860 111.9826086  57.1172421
 106.6492809 112.7303550  58.3907704 108.9979550 113.9414554  62.1837152
 109.9522803 113.9098496  62.1167084 108.7992073 113.4805178  62.9987378
 109.5878932 112.5115670  64.7507950 110.4071821 113.0059749  64.7742787
 109.8615740 111.5947638  64.7225517 119.3445528 104.9026422  54.1135905
 118.4571383 105.1876073  53.8956100 119.7599517 104.7420186  53.2663182
 122.6960064 104.9272943  57.8290244 123.4720454 105.4169396  58.1014861
 121.9708199 105.3530997  58.2862114 125.1332623 105.6400563  58.8864185
 125.7277114 105.3996298  58.1757493 125.2059207 104.9207693  59.5137721
 107.3529779 119.4834173  59.2007350 107.2184247 118.7234574  58.6345348
 106.9361841 120.2075073  58.7336139 118.4888742 114.6671097  48.2083925
 119.1924592 114.8721099  48.8241581 117.7651390 115.2347859  48.4733009
 119.3186552 110.4180958  54.3286195 119.2621753 110.8749510  53.4893828
 119.8714894 109.6571643  54.1509038 123.1291358 106.2070690  55.1536315
 122.8728292 105.8067326  55.9844523 122.5044226 106.9214484  55.0286454
 127.4403696 108.9466763  57.6607606 126.8803254 109.0159953  58.4339168
 126.8347199 108.7707748  56.9407102 110.5098905 120.3803490  59.4125793
 110.3931289 121.3248923  59.3104483 109.6891351 120.0777052  59.8011592
 120.3975439 115.1053626  50.2582385 121.2321043 114.6734825  50.0759860
 120.2359782 114.9335640  51.1859280 120.0521331 111.6085740  51.6238725
 119.9970135 111.4430011  50.6827169 119.4267387 112.3161772  51.7800914
 104.8413846 106.8453804  65.4500147 105.4872710 106.3352758  65.9387372
 104.6330997 107.5822486  66.0243572 117.3667238 113.9134651  70.9492287
 118.2358398 114.0875304  70.5878922 116.8873990 114.7329068  70.8268017
 113.3617457 101.1093849  51.2024043 113.3496127 102.0535688  51.3592314
 114.2540879 100.9263994  50.9083504 111.5353419 121.0331752  62.6281721
 112.4380665 121.0655363  62.9448216 111.3090789 120.1032203  62.6428057
 113.2907021 119.7862739  59.2891800 112.3402652 119.7864601  59.1756172
 113.5939507 119.0395473  58.7727834 117.1769576  97.7036625  55.4569980
 116.4101972  97.1495112  55.6026662 117.5880281  97.7758494  56.3184131
 109.1811337 103.9921421  69.5475161 110.0442799 103.6358226  69.7578486
 108.6076748 103.6535316  70.2350565 129.0259714 125.6223277  60.3537562
 129.6638124 125.5030025  59.6500902 128.9080557 126.5704121  60.4125514
 125.8349420 125.5750705  60.2899087 125.4967932 125.4591770  59.4019622
 126.7039189 125.1741870  60.2700093 121.6936236 127.4286182  56.2795978
 121.1301101 127.3376119  55.5112265 121.5788631 126.6086086  56.7598470
 126.3169203 126.7285557  66.2485292 126.3057844 126.3338355  65.3765796
 126.4789843 125.9951630  66.8419064 119.2400668 128.9237373  59.1180198
 120.0321960 128.5828198  58.7026497 119.4797318 129.0332348  60.0382351
 127.2735795 131.0957150  51.5910443 126.6223775 131.6811230  51.2044456
 128.0680158 131.6263344  51.6505480 121.1991422 128.1846287  51.9897577
 121.9722298 127.6375274  51.8510453 121.5516821 129.0490536  52.2012038
 123.0376465 129.5122669  65.1964476 122.7466331 130.4168300  65.0811142
 123.6733449 129.5539197  65.9108546 123.9632671 126.8899517  61.7865836
 124.5596244 126.6655540  61.0722799 124.0207643 126.1484263  62.3891284
 123.5357700 124.3438953  49.6216027 123.7883221 123.8220474  48.8599490
 122.5982259 124.1805098  49.7242710 128.5800983 123.3474731  57.4290770
 129.3664072 122.9294154  57.0781187 128.8439687 124.2520823  57.5972418
 128.7511060 128.7847581  52.1279427 128.1156893 128.8582208  52.8400331
 128.4208466 129.3741180  51.4498506 133.9809410 123.2849964  58.3323749
 134.7134582 122.7149181  58.5661578 133.2248766 122.8971565  58.7730254
 123.2553989 126.2467059  51.8240402 123.1390247 125.5711962  52.4921486
 123.3656249 125.7599433  51.0072555 125.5985530 125.7077206  55.5287091
 125.2343737 125.1807827  56.2400012 126.4552645 125.3175675  55.3553576
 131.5034830 116.9971538  62.7918357 131.1718155 117.8666949  62.5679572
 130.9080444 116.6807822  63.4712388 125.2391017 120.7367106  50.5248439
 125.4065419 121.6047342  50.8918911 125.0488186 120.8994387  49.6009729
 127.9966350 129.1984084  62.1914270 127.6967073 130.1009123  62.0830077
 127.6517409 128.9316268  63.0435423 121.4478831 125.6497881  58.2250974
 120.5229328 125.5174095  58.4328666 121.6963244 126.4292101  58.7220917
 131.3963493 121.7166625  59.8711707 130.4880371 121.6482033  59.5770468
 131.3451089 122.1938570  60.6993533 125.2180237 123.1924763  51.5095106
 125.0979863 123.6381814  52.3480587 124.5232826 123.5410081  50.9508644
 118.8087642 125.2931155  59.0594763 118.9380023 125.5465634  59.9734175
 118.1285094 125.8858863  58.7399418 122.9787130 135.9628405  55.1585238
 122.9011159 136.9136230  55.2373718 122.3748773 135.6174277  55.8160164
 125.4704359 123.1356270  67.8146604 124.6937693 123.6950190  67.8049469
 126.1094922 123.6213053  68.3361475 133.2625140 119.9183063  61.6489581
 132.6199520 120.2115596  61.0029376 132.7580068 119.8035983  62.4542778
 130.9165304 123.6646236  52.3375440 131.8283160 123.8973623  52.1623138
 130.4074951 124.2483280  51.7750519 123.7250732 125.9441724  67.3764571
 124.4665416 126.4826768  67.0999395 123.0187717 126.5708012  67.5336123
 129.2006071 128.0870864  65.9736733 129.6089427 127.6453275  65.2291365
 128.4783333 127.5123492  66.2270926 125.5537141 123.0243471  63.3470290
 126.3998336 123.4482884  63.4904939 125.4935779 122.3677095  64.0408853
 129.5234886 128.6472055  59.7289022 128.8943748 128.8117769  59.0265090
 129.1360548 129.0613664  60.4999986 128.7036587 120.6847839  65.0051464
 128.4597518 121.4389900  64.4685739 128.9796517 121.0633187  65.8398711
 130.6575049 127.2286452  63.6828729 130.8691945 127.8718211  63.0063110
 130.6104798 126.3948768  63.2150659 128.2601278 119.8404272  60.5865301
 127.3985757 120.1385526  60.8782039 128.2863713 120.0574671  59.6546334
 125.0762848 128.3846463  56.9939107 125.5401193 128.6634166  56.2043729
 124.8119646 127.4829907  56.8112198 121.9686929 127.9317944  59.9318870
 122.5388286 128.3605213  59.2936355 122.5595041 127.6500529  60.6303056
 124.0131734 124.5069615  53.8028672 124.7155777 124.9590659  54.2702598
 123.6812362 123.8653434  54.4308565 122.4612095 123.0981372  68.1779881
 121.8310756 123.7797653  68.4115278 122.3548183 122.9864453  67.2333020
 117.7557068 122.7653168  59.1045806 116.9656122 123.0210696  58.6285916
 118.2468315 123.5801506  59.2097846 131.7720877 130.1058407  61.8551086
 132.5938321 129.7038594  61.5733768 131.7683280 130.0026641  62.8067202
 119.7071813 123.1297747  56.0629282 118.9102976 123.2416441  56.5812778
 119.4797405 123.4684399  55.1970173 125.5377481 129.6542450  64.0111797
 125.6021913 130.1162858  64.8469969 124.8288405 129.0239815  64.1394107
 116.0394771 123.0183658  61.5360796 116.2902809 123.9030668  61.8018372
 116.5754319 122.8388260  60.7635888 125.2525498 131.3210558  53.8790777
 125.1171173 132.1662093  54.3075625 125.7935311 131.5229835  53.1156711
 121.7392838 117.4002138  70.5405132 121.3459784 116.8468336  71.2152777
 122.5558978 117.7112716  70.9311650 118.7054896 128.8385996  54.4518702
 119.2179416 129.6329246  54.6024267 119.3577609 128.1412286  54.3852304
 120.5149781 131.9551752  56.5341456 120.6916409 132.8769717  56.3462439
 121.3106614 131.6410171  56.9635835 124.6560799 118.8160017  68.1325389
 125.3970512 119.4167170  68.0529852 124.8878722 118.0737654  67.5743432
 119.8002137 124.0016384  66.4103619 119.6855652 123.1001641  66.7110718
 118.9446655 124.2480081  66.0588435 126.8793975 131.9434124  68.0091119
 126.4357829 131.1570503  67.6912024 127.5411188 132.1313275  67.3435010
 121.6381096 133.4729926  62.5351798 122.1888521 133.3446989  61.7628792
 120.7992572 133.7724815  62.1846691 125.4348267 129.7381054  66.8796029
 125.9676604 128.9769342  66.6495337 124.9062348 129.4454705  67.6220183
 128.6017962 114.8441120  62.4089671 128.2582231 115.7342761  62.3328781
 128.9696925 114.6542777  61.5459256 116.6703813 127.1674650  55.2278273
 117.5079035 127.5771658  55.0111981 116.8482080 126.2274092  55.1978467
 128.5668245 124.8349731  50.9162106 128.0514868 125.6054335  51.1550493
 128.2945553 124.1614867  51.5395167 126.1515356 119.6799432  55.9747344
 125.2956952 119.2906282  55.7952983 126.5642308 119.7591392  55.1147130
 127.6814502 117.2145775  60.3738904 127.1779298 117.1775910  59.5606709
 127.9745109 118.1238518  60.4335561 123.9257388 117.2984505  59.3805086
 124.7910385 117.1027313  59.0210975 123.9934897 117.0694856  60.3074442
 133.5402519 127.5882085  52.8515279 132.7631962 127.2493245  52.4070441
 134.2194000 127.5934709  52.1770244 128.3554548 122.7076823  52.7421887
 128.0504683 123.0222972  53.5932030 129.3084990 122.7858243  52.7849220
 126.8000980 128.8667046  54.3914841 126.2722341 128.1319806  54.0788078
 126.2988482 129.6441723  54.1454809 131.7793826 127.0616067  59.5081887
 131.1217500 127.7515328  59.5962016 132.5834225 127.4512499  59.8515874
 121.5319707 119.5286712  56.7521453 122.1063459 119.3061894  56.0194645
 122.1190690 119.5975407  57.5050054 130.5899285 125.4160439  57.5585829
 131.1031166 126.0490431  58.0607539 131.2400508 124.8161635  57.1929189
 121.8589294 121.5591173  50.7717338 121.0226607 121.8965860  51.0926613
 121.7194064 121.4240153  49.8344475 123.8342375 116.4027961  55.4796522
 123.1806787 116.0876979  54.8553137 123.7922849 115.7803702  56.2056345
 124.9453580 126.6847256  47.3949814 124.0380642 126.4536510  47.5940963
 125.4424612 125.8884876  47.5823796 127.0680115 122.8909895  59.8044170
 126.1502677 123.1124842  59.6465858 127.4840259 122.9656205  58.9455877
 127.8515163 124.2901311  54.9346850 128.5986982 124.8022708  54.6253972
 128.1206753 123.9685363  55.7951243 126.1241813 126.7859851  51.9173804
 125.2153033 126.5018884  52.0146274 126.1536897 127.2058930  51.0577111
 131.3561081 130.3966441  55.6864972 130.9023408 129.5557351  55.7430162
 130.7255047 131.0327839  56.0239752 130.2994000 121.3258427  56.9165639
 129.5616757 120.8135813  57.2475882 130.5520774 120.8858808  56.1048916
 130.4005628 114.1034679  57.5107408 130.7064504 113.2432042  57.2233323
 131.1258232 114.6952299  57.3106402 116.6929984 124.5065365  55.8989006
 116.4954384 123.9134726  55.1740073 116.1376648 124.2017576  56.6164945
 124.6726707 124.3988472  58.0183599 124.7275317 123.4462308  57.9426076
 123.8617909 124.5547911  58.5024898 125.8217901 128.3268595  49.2561883
 125.3837331 127.6104454  48.7967520 126.5628342 128.5544710  48.6946974
 122.6119067 123.0165532  55.7773978 121.7986933 123.3159702  56.1839170
 123.1078061 122.6221220  56.4948461 124.7627645 133.0123289  57.7108243
 124.7203824 133.2384135  56.7816775 125.6790344 132.7786663  57.8594044
 128.2093279 123.4807356  64.6088872 128.5642667 123.7078829  65.4683338
 128.8565410 123.8125733  63.9866128 133.9391016 126.6025792  55.3138201
 133.8008915 126.7927388  54.3859390 133.5827235 127.3645175  55.7706252
 122.1033142 120.5883887  61.3935213 122.7432521 120.4472646  60.6958177
 121.2710673 120.3018401  61.0173815 133.9660396 128.6702319  60.3249473
 134.3996902 128.5777608  61.1732527 134.6791976 128.6459819  59.6869489
 122.8793446 129.8886318  57.5070206 123.6734044 129.3936638  57.3052781
 122.1685138 129.3604181  57.1437911 127.6988290 132.2704413  61.8582573
 127.7525313 132.8395349  62.6260289 126.8303072 132.4406298  61.4936611
 119.1876209 124.0329399  53.5829958 118.2573798 123.9713855  53.7999921
 119.2833681 123.5105352  52.7866600 119.1061758 120.5584212  56.1708200
 119.3668576 121.4729545  56.0617361 119.9278931 120.0908655  56.3204813
 120.5786684 121.9721969  63.3407025 121.2509737 121.7639331  62.6919674
 119.7516470 121.7744055  62.9012257 126.4812256 118.5983910  65.3572686
 125.8340171 119.2973860  65.2637162 127.2513271 119.0320054  65.7248934
 129.8891054 128.8632762  68.4323239 129.7376560 128.6343314  67.5153322
 129.8795733 129.8203364  68.4454584 126.6576390 126.4364675  63.4169505
 127.5868450 126.5875835  63.2438473 126.2367420 126.5248696  62.5618152
 125.4564722 130.4615340  61.1868043 125.3175808 130.0934124  62.0593981
 124.6679318 130.9762979  61.0152001 127.0069937 129.8396942  58.5756881
 126.6719770 129.7997712  59.4714531 126.5073883 129.1741658  58.1027291
 120.9814181 125.2464572  64.1009462 120.8433979 124.5144811  64.7021001
 121.8919105 125.1573472  63.8193650 129.9429129 127.1852977  48.8493940
 129.3258299 126.4599805  48.7526993 129.4745617 127.9462337  48.5061015
 123.6096482 124.9584532  63.5893141 124.3196100 124.3177724  63.5479760
 123.5665790 125.2097426  64.5119322 122.3225416 121.9449749  65.4088781
 121.7862773 121.4940488  66.0610377 121.7342124 122.0795658  64.6659245
 121.7327675 121.4038401  47.9715245 120.8557141 121.2827202  47.6077491
 122.2085428 120.6124479  47.7194133 131.6000668 129.8591469  64.7413700
 130.7127446 129.5217391  64.8640099 132.1699219 129.1274500  64.9782466
 113.2529815 126.1915561  58.0656752 113.9400855 125.8777291  57.4777767
 113.0977943 127.0956925  57.7924003 118.0564537 121.0805757  62.4941775
 117.9722726 120.4731427  61.7592185 117.2347243 121.5714776  62.4951272
 125.1301821 134.5192921  61.7074944 125.0571993 135.3247893  62.2194248
 124.6879214 134.7184887  60.8822965 124.9191601 133.7564691  55.2177765
 124.1359123 134.2986371  55.3115990 125.6184346 134.2738671  55.6172006
 128.2288251 119.5659321  57.8611970 128.7256950 118.8129283  57.5413041
 127.4575232 119.6023637  57.2955180 136.0818008 125.2699686  59.5030262
 136.0707884 126.1524402  59.1324195 135.2135388 124.9171237  59.3084799
 129.3118032 128.3231008  55.4350394 128.3774310 128.4432470  55.2655098
 129.4894700 127.4203475  55.1710404 124.8123220 121.7076704  57.5883655
 124.4421007 121.1547744  58.2764561 125.3082312 121.1034837  57.0358655
 132.6990583 124.1648327  55.9700428 133.1651035 124.9976319  55.8960731
 133.1498083 123.6993309  56.6745686 122.6412418 132.1674199  64.6838673
 123.3421878 132.8010682  64.8368067 122.1707533 132.5088930  63.9234312
 130.7666814 130.5092149  52.9686580 131.0426658 130.3948743  53.8780454
 129.8971313 130.1109633  52.9298753 130.6707246 116.5328914  60.0091329
 129.7570325 116.7633141  60.1773536 131.1000347 116.6167358  60.8605362
 130.4413704 124.7218806  62.5091223 129.7885154 124.9694714  61.8543676
 130.8194084 123.9082944  62.1753701 127.7363043 133.6846684  53.8734442
 128.2650810 133.1739139  53.2604604 127.9991263 133.3689215  54.7379975
 126.4901277 125.4638617  68.9957260 125.8141914 125.3632747  69.6659636
 127.3128911 125.3077831  69.4593258 118.2380136 131.7010554  61.6169776
 118.8233573 130.9554242  61.7497680 118.0404975 132.0114510  62.5006440
 121.0918791 134.7361801  56.6332218 120.4229167 135.2207929  56.1496258
 120.9531661 134.9831022  57.5475597 112.8297791 124.2716154  60.3374219
 112.8681890 123.7379745  61.1311337 112.3238084 123.7451360  59.7185196
 120.2088553 119.1180694  63.8336761 120.2729880 119.9795525  63.4214159
 120.1455673 118.5054696  63.1009120 119.6840826 121.1903827  67.4809795
 120.3112865 120.8080904  68.0947320 118.8268745 120.9718029  67.8465488
 116.4606369 122.9980256  53.4128150 116.7559810 122.0890935  53.3595204
 115.5594404 122.9767996  53.0909153 119.9900616 121.0736253  59.3955699
 119.2687201 121.6872220  59.2563172 120.7793871 121.6094018  59.3172345
 122.7926929 118.4090679  65.6696351 123.3161331 118.6552976  66.4322660
 122.5739262 119.2410714  65.2499488 118.1894210 120.6794354  53.5367475
 117.8606916 119.7991733  53.3542581 118.5433581 120.6242023  54.4243865
 127.4373789 132.3149257  58.0462461 127.2898751 131.3865964  58.2270031
 128.2627282 132.3369347  57.5619536 121.3036033 120.9667324  53.9042953
 121.6432106 121.4953245  53.1821561 121.7508154 121.3047730  54.6801520
 123.9979474 119.3504374  63.3546021 123.6576294 118.5512187  63.7566701
 123.2918480 119.6506085  62.7822854 124.6495946 116.4353687  61.8073344
 125.4722015 115.9614165  61.6852234 124.8934009 117.2144171  62.3072030
 123.2904180 119.4641945  52.1036246 124.0112543 119.8423198  51.5999963
 122.6669485 120.1830822  52.2071224 127.4335303 120.1687094  53.0394578
 127.6498918 121.0511732  52.7383406 126.9529370 119.7773308  52.3100220
 122.1734525 123.1272807  59.6165323 122.0279105 123.4413110  60.5089604
 121.6959728 123.7457708  59.0636221 124.0330908 120.1175355  59.6646212
 124.0192476 119.2216449  59.3278510 124.7503336 120.1246019  60.2984498
 125.8857038 120.5512696  61.7099340 125.6274816 121.4729766  61.7083670
 125.3542079 120.1543130  62.3999804 116.6480187 125.6678152  62.5552984
 116.1033655 126.4437960  62.6873258 117.5259537 126.0148956  62.3972105
 123.4367803 118.9989736  54.9333782 123.5583715 118.0706382  55.1324670
 123.1469846 119.0128422  54.0212098 126.3058994 116.6844646  58.0700502
 126.3280691 116.7483979  57.1152482 126.7227053 115.8449155  58.2641008
 136.6842618 126.4199906  56.1079725 137.1273764 125.6707231  55.7098848
 135.8069128 126.4110042  55.7253457 117.4346209 124.7948048  65.4483141
 116.6927945 124.9430683  66.0347771 117.1138953 125.0556314  64.5849890
 125.3789871 134.3364026  65.2463531 125.6876998 134.0913173  66.1186230
 126.1765353 134.5410665  64.7582401 117.8802822 132.6813477  57.4793535
 118.7060842 132.3817249  57.0992179 117.5296874 131.9121099  57.9283324
 122.8484356 132.0339945  59.5491209 122.2264365 131.3710650  59.2493437
 123.5189222 132.0601077  58.8664857 116.0811427 130.5999803  58.4382469
 115.2443336 130.1721978  58.2566470 116.0535073 130.7932247  59.3753260
 122.9208883 120.5121733  69.1423715 122.9697038 121.3883856  68.7601485
 123.4631397 119.9699126  68.5695358 133.5261604 127.9055323  65.7357581
 133.5759609 127.7405330  66.6773103 133.4175527 127.0382582  65.3455461
 122.4097862 130.5843868  53.0249670 122.5585983 131.2679333  52.3716342
 123.2164306 130.5648958  53.5399125 130.8165366 123.8886251  67.0516887
 131.7175229 123.7492716  66.7600885 130.8913341 124.0540706  67.9915065
 125.1508171 121.2653105  65.8970074 124.2811481 121.5586671  65.6252662
 125.3867652 121.8493550  66.6177337 133.2766989 125.4484879  64.4479660
 133.7521110 125.6412525  63.6398512 132.3532554 125.5044065  64.2023044
 120.1650495 126.6109046  54.0310738 119.9196537 125.7071376  54.2290949
 120.3346410 126.6126196  53.0890216 127.8547205 117.4832722  63.4135494
 128.3729149 118.2193749  63.0881983 127.5002338 117.7896716  64.2482253
 119.4346143 122.3437404  51.5296900 118.7415388 122.4181759  50.8736936
 119.1897895 121.5797747  52.0518417 128.1059799 113.9033005  58.9336391
 128.3861553 113.2356194  59.5596817 128.8910406 114.0962101  58.4211055
 125.9093268 133.0791999  50.4961417 125.3367235 133.6982186  50.0431889
 126.4826062 133.6291360  51.0301339 131.9768658 122.3250639  62.6807966
 132.9286081 122.4248737  62.7020190 131.8072108 121.5328907  63.1906050
 129.9983037 119.4106222  62.8667367 129.4032969 119.6911235  62.1713855
 129.7132734 119.9000123  63.6384108 134.4556736 125.5456759  61.7950265
 134.4233056 124.6072759  61.9809949 135.0657359 125.6240795  61.0616090
 126.2940066 124.4152812  47.8377469 127.2399171 124.2859020  47.9065888
 125.9154311 123.6767473  48.3146898 134.6051224 122.3367802  61.8408549
 134.0890273 121.5526259  61.6538477 135.4891173 122.0086519  62.0055068
 132.2661951 116.0808818  57.8004361 132.0686772 115.7723906  58.6847693
 132.8761657 116.8070456  57.9302291 138.3548583 124.7480628  61.5330753
 137.6281746 124.6136593  60.9247245 137.9395869 125.0557457  62.3387471
 126.1778759 128.4670558  69.2978126 127.0981768 128.6449157  69.4918173
 126.1428342 127.5226603  69.1457826 124.4782984 122.3402788  47.7732355
 123.5714439 122.0435901  47.8495068 124.7558965 122.0432606  46.9066641
 115.3960924 123.6609151  58.2231401 115.0763708 122.8074460  57.9305775
 114.8494352 123.8757729  58.9789368 119.1740832 126.3771592  61.9400908
 119.3926841 127.3088700  61.9588941 119.5866605 126.0179567  62.7255711
 126.0945049 116.8839678  53.9276596 125.2845778 116.5386763  54.3031842
 126.7829466 116.5747221  54.5164208 128.0235598 115.9617724  55.5500893
 128.5766636 116.3813178  56.2090916 128.2605684 115.0353473  55.5923849
 124.0468697 121.9504798  71.3303657 123.9465424 122.8999155  71.2615748
 123.8290239 121.6223037  70.4579727 123.2481768 119.1989723  47.9144334
 124.1100932 119.5244621  48.1740151 123.4332112 118.4121219  47.4017400
 115.2649184 127.2812063  60.1924523 114.5712655 126.8666016  59.6794477
 116.0122175 127.3232599  59.5957942 131.4014405 118.0718250  55.0579557
 130.8213074 118.7303054  54.6757609 131.1350337 117.2495594  54.6466974
 129.8517971 117.4723307  57.2600877 130.3517749 117.5839842  56.4515196
 130.4953579 117.1684360  57.9001686 123.9099967 125.3801937  70.1468718
 123.4267049 126.1802297  70.3532607 123.9960906 125.3909882  69.1936162
 117.1785927 127.2130317  58.0690538 117.1556615 127.3118004  57.1172421
 117.4886563 128.0595467  58.3907704 119.8373304 129.2706472  62.1837152
 120.7916558 129.2390414  62.1167084 119.6385828 128.8097095  62.9987378
 120.4272687 127.8407588  64.7507950 121.2465576 128.3351666  64.7742787
 120.7009494 126.9239556  64.7225517 130.1839283 120.2318340  54.1135905
 129.2965138 120.5167991  53.8956100 130.5993272 120.0712103  53.2663182
 133.5353819 120.2564861  57.8290244 134.3114209 120.7461313  58.1014861
 132.8101953 120.6822915  58.2862114 135.9726377 120.9692480  58.8864185
 136.5670868 120.7288216  58.1757493 136.0452961 120.2499611  59.5137721
 118.1923533 134.8126091  59.2007350 118.0578001 134.0526492  58.6345348
 117.7755595 135.5366991  58.7336139 129.3282496 129.9963015  48.2083925
 130.0318346 130.2013017  48.8241581 128.6045145 130.5639777  48.4733009
 130.1580306 125.7472876  54.3286195 130.1015508 126.2041427  53.4893828
 130.7108649 124.9863561  54.1509038 133.9685112 121.5362608  55.1536315
 133.7122047 121.1359243  55.9844523 133.3437980 122.2506402  55.0286454
 138.2797450 124.2758681  57.6607606 137.7197008 124.3451870  58.4339168
 137.6740954 124.0999666  56.9407102 121.3492659 135.7095408  59.4125793
 121.2325043 136.6540841  59.3104483 120.5285105 135.4068970  59.8011592
 131.2369194 130.4345544  50.2582385 132.0714798 130.0026742  50.0759860
 131.0753537 130.2627558  51.1859280 130.8915086 126.9377657  51.6238725
 130.8363890 126.7721929  50.6827169 130.2661141 127.6453690  51.7800914
 115.6807601 122.1745722  65.4500147 116.3266464 121.6644676  65.9387372
 115.4724752 122.9114403  66.0243572 128.2060993 129.2426569  70.9492287
 129.0752153 129.4167221  70.5878922 127.7267744 130.0620986  70.8268017
 124.2011211 116.4385766  51.2024043 124.1889881 117.3827606  51.3592314
 125.0934633 116.2555912  50.9083504 122.3747173 136.3623670  62.6281721
 123.2774420 136.3947280  62.9448216 122.1484543 135.4324121  62.6428057
 124.1300775 135.1154657  59.2891800 123.1796406 135.1156518  59.1756172
 124.4333261 134.3687391  58.7727834 128.0163331 113.0328543  55.4569980
 127.2495727 112.4787030  55.6026662 128.4274036 113.1050412  56.3184131
 120.0205092 119.3213339  69.5475161 120.8836553 118.9650143  69.7578486
 119.4470502 118.9827233  70.2350565  53.1503434  -4.6758024  47.0782869
  53.7881844  -4.7951276  46.3746209  53.0324277  -3.7277180  47.1370821
  49.9593140  -4.7230596  47.0144393  49.6211652  -4.8389531  46.1264928
  50.8282909  -5.1239431  46.9945399  45.8179956  -2.8695119  43.0041284
  45.2544821  -2.9605182  42.2357572  45.7032351  -3.6895215  43.4843777
  50.4412923  -3.5695744  52.9730599  50.4301564  -3.9642946  52.1011102
  50.6033563  -4.3029671  53.5664370  43.3644388  -1.3743928  45.8425505
  44.1565680  -1.7153103  45.4271804  43.6041038  -1.2648953  46.7627658
  51.3979515   0.7975848  38.3155749  50.7467494   1.3829929  37.9289763
  52.1923878   1.3282043  38.3750787  45.3235142  -2.1135014  38.7142883
  46.0966018  -2.6606027  38.5755759  45.6760541  -1.2490765  38.9257345
  47.1620184  -0.7858632  51.9209783  46.8710050   0.1186999  51.8056449
  47.7977169  -0.7442105  52.6353852  48.0876391  -3.4081784  48.5111142
  48.6839964  -3.6325761  47.7968105  48.1451363  -4.1497038  49.1136590
  52.7044703  -6.9506570  44.1536077  53.4907792  -7.3687147  43.8026494
  52.9683407  -6.0460478  44.3217725  52.8754780  -1.5133720  38.8524733
  52.2400613  -1.4399093  39.5645638  52.5452186  -0.9240121  38.1743813
  58.1053130  -7.0131337  45.0569055  58.8378302  -7.5832120  45.2906885
  57.3492485  -7.4009736  45.4975561  49.7229249  -4.5904095  42.2532398
  49.3587457  -5.1173474  42.9645319  50.5796365  -4.9805626  42.0798883
  52.1210070  -1.0997217  48.9159576  51.8210793  -0.1972178  48.8075384
  51.7761129  -1.3665033  49.7680729  45.5722551  -4.6483420  44.9496281
  44.6473047  -4.7807206  45.1573973  45.8206964  -3.8689201  45.4466223
  55.5207213  -8.5814676  46.5957014  54.6124091  -8.6499268  46.3015775
  55.4694809  -8.1042732  47.4238839  42.9331362  -5.0050146  45.7840070
  43.0623743  -4.7515667  46.6979482  42.2528813  -4.4122438  45.4644725
  47.1030849   5.6647104  41.8830544  47.0254879   6.6154929  41.9619025
  46.4992493   5.3192976  42.5405470  49.5948079  -7.1625031  54.5391911
  48.8181413  -6.6031111  54.5294776  50.2338642  -6.6768248  55.0606781
  55.0409023  -6.6335065  39.0620747  55.9526879  -6.4007678  38.8868445
  54.5318670  -6.0498021  38.4995826  47.8494451  -4.3539578  54.1009878
  48.5909136  -3.8154534  53.8244702  47.1431437  -3.7273289  54.2581430
  53.3249791  -2.2110437  52.6982040  53.7333147  -2.6528027  51.9536672
  52.6027053  -2.7857810  52.9516232  49.6780861  -7.2737830  50.0715597
  50.5242056  -6.8498417  50.2150246  49.6179499  -7.9304206  50.7654160
  53.6478606  -1.6509246  46.4534328  53.0187468  -1.4863532  45.7510396
  53.2604268  -1.2367637  47.2245292  57.5267838  -0.7154809  43.8078692
  56.8418876  -0.3355907  43.2575726  57.6111687  -0.1059482  44.5410640
  52.8280306  -9.6133462  51.7296770  52.5841238  -8.8591401  51.1931046
  53.1040237  -9.2348114  52.5644017  54.7818769  -3.0694850  50.4074036
  54.9935664  -2.4263090  49.7308417  54.7348517  -3.9032533  49.9395966
  52.3844998 -10.4577029  47.3110608  51.5229477 -10.1595775  47.6027345
  52.4107433 -10.2406630  46.3791641  49.2006568  -1.9134838  43.7184414
  49.6644913  -1.6347135  42.9289036  48.9363366  -2.8151394  43.5357504
  46.0930649  -2.3663357  46.6564177  46.6632006  -1.9376088  46.0181661
  46.6838760  -2.6480772  47.3548362  48.1375454  -5.7911686  40.5273979
  48.8399497  -5.3390642  40.9947905  47.8056082  -6.4327867  41.1553872
  46.5855815  -7.1999929  54.9025188  45.9554476  -6.5183649  55.1360585
  46.4791903  -7.3116848  53.9578326  41.8800788  -7.5328133  45.8291112
  41.0899842  -7.2770605  45.3531223  42.3712035  -6.7179795  45.9343153
  55.8964597  -0.1922894  48.5796393  56.7182041  -0.5942707  48.2979075
  55.8927000  -0.2954660  49.5312509  43.8315533  -7.1683554  42.7874589
  43.0346696  -7.0564860  43.3058085  43.6041125  -6.8296902  41.9215479
  49.6621201  -0.6438851  50.7357104  49.7265633  -0.1818444  51.5715275
  48.9532124  -1.2741486  50.8639413  63.9870590  -3.8484146  44.9281365
  63.2334299  -4.4176748  44.7725369  64.1218131  -3.8821481  45.8751999
  49.3769218   1.0229257  40.6036084  49.2414893   1.8680792  41.0320932
  49.9179031   1.2248534  39.8402018  42.8298616  -1.4595305  41.1764009
  43.3423136  -0.6652055  41.3269574  43.4821328  -2.1569015  41.1097610
  44.6393500   1.6570451  43.2586762  44.8160129   2.5788416  43.0707746
  45.4350334   1.3428870  43.6881142  43.9245857  -6.2964917  53.1348925
  43.8099372  -7.1979660  53.4356024  43.0690375  -6.0501220  52.7833742
  51.0037695   1.6452823  54.7336426  50.5601549   0.8589202  54.4157330
  51.6654908   1.8331974  54.0680317  45.7624816   3.1748625  49.2597104
  46.3132241   3.0465688  48.4874098  44.9236292   3.4743514  48.9091997
  53.1018933   1.9255623  52.7617827  53.0837408   2.7464504  52.2698096
  54.0238853   1.8009698  52.9867968  49.5591987  -0.5600247  53.6041336
  50.0920324  -1.3211959  53.3740644  49.0306068  -0.8526596  54.3465490
  40.7947532  -3.1306651  41.9523580  41.6322754  -2.7209643  41.7357287
  40.9725800  -4.0707209  41.9223773  52.6911965  -5.4631570  37.6407412
  52.1758588  -4.6926966  37.8795800  52.4189273  -6.1366434  38.2640474
  50.2759076 -10.6181870  42.6992651  49.4200672 -11.0075019  42.5198290
  50.6886027 -10.5389909  41.8392436  57.6646239  -2.7099216  39.5760586
  56.8875681  -3.0488056  39.1315748  58.3437720  -2.7046593  38.9015551
  52.4798268  -7.5904478  39.4667194  52.1748403  -7.2758329  40.3177337
  53.4328710  -7.5123058  39.5094527  50.9244700  -1.4314255  41.1160148
  50.3966061  -2.1661495  40.8033385  50.4232202  -0.6539579  40.8700116
  55.9037546  -3.2365234  46.2327194  55.2461220  -2.5465973  46.3207323
  56.7077945  -2.8468803  46.5761180  54.7143004  -4.8820862  44.2831136
  55.2274886  -4.2490870  44.7852845  55.3644228  -5.4819666  43.9174496
  51.9765379   5.0963462  37.0391807  51.3027077   5.3995159  37.6476765
  52.3631201   5.8992543  36.6897264  51.1923835  -7.4071406  46.5289476
  50.2746397  -7.1856459  46.3711164  51.6083979  -7.3325096  45.6701184
  51.9758883  -6.0079991  41.6592156  52.7230702  -5.4958593  41.3499279
  52.2450473  -6.3295938  42.5196550  50.2485533  -3.5121450  38.6419111
  49.3396752  -3.7962417  38.7391581  50.2780617  -3.0922371  37.7822418
  55.4804801   0.0985140  42.4110278  55.0267128  -0.7423950  42.4675469
  54.8498767   0.7346538  42.7485058  54.4237720  -8.9722874  43.6410946
  53.6860477  -9.4845488  43.9721188  54.6764494  -9.4122493  42.8294223
  53.9237740   1.9361636  43.3460096  54.2160714   2.4966693  42.6272462
  54.4336360   2.2290197  44.1013256  48.7970427  -5.8992829  44.7428906
  48.8519037  -6.8518993  44.6671383  47.9861629  -5.7433390  45.2270205
  46.7362787  -7.2815770  42.5019285  45.9230653  -6.9821599  42.9084477
  47.2321781  -7.6760081  43.2193767  48.8871365   2.7141987  44.4353550
  48.8447544   2.9402834  43.5062082  49.8034064   2.4805362  44.5839351
  52.3336999  -6.8173945  51.3334179  52.6886387  -6.5902472  52.1928645
  52.9809130  -6.4855568  50.7111434  58.0634736  -3.6955509  42.0383508
  57.9252634  -3.5053913  41.1104697  57.7070955  -2.9336126  42.4951559
  46.2276862  -9.7097414  48.1180520  46.8676241  -9.8508655  47.4203483
  45.3954392  -9.9962901  47.7419122  58.0904115  -1.6278982  47.0494779
  58.5240622  -1.7203693  47.8977833  58.8035696  -1.6521482  46.4114795
  47.0037166  -0.4094984  44.2315512  47.7977764  -0.9044663  44.0298087
  46.2928858  -0.9377120  43.8683218  51.8232010   1.9723112  48.5827880
  51.8769033   2.5414048  49.3505596  50.9546792   2.1424997  48.2181917
  44.7030404  -8.3259332  50.0652331  45.3753457  -8.5341970  49.4164980
  43.8760190  -8.5237246  49.6257564  58.9519665  -1.5855281  49.5827665
  59.1455555  -0.6809471  49.8286940  58.8520283  -2.0447862  50.4166250
  54.0134774  -1.4348539  55.1568545  53.8620280  -1.6637987  54.2398629
  54.0039453  -0.4777937  55.1699890  50.7820110  -3.8616626  50.1414812
  51.7112170  -3.7105466  49.9683779  50.3611140  -3.7732605  49.2863458
  49.5808442   0.1634038  47.9113349  49.4419527  -0.2047177  48.7839288
  48.7923038   0.6781678  47.7397307  50.1756594   5.2643135  39.2538886
  50.3508349   4.7931178  40.0684509  49.4889382   5.8908901  39.4820147
  51.1313657  -0.4584359  45.3002187  50.7963490  -0.4983589  46.1959837
  50.6317603  -1.1239643  44.8272598  45.1057901  -5.0516729  50.8254768
  44.9677699  -5.7836490  51.4266307  46.0162824  -5.1407829  50.5438956
  47.7340202  -5.3396770  50.3138448  48.4439820  -5.9803577  50.2725067
  47.6909510  -5.0883875  51.2364629  55.7226980   1.5970584  53.2345027
  55.6639526   0.9129804  52.5675610  56.1246499   2.3389574  52.7825653
  46.4469136  -8.3531552  52.1334088  45.9106493  -8.8040813  52.7855684
  45.8585844  -8.2185643  51.3904552  44.7417679   8.4132498  46.0278746
  44.9814277   9.0451022  46.7057765  43.8986876   8.0620538  46.3144105
  55.7244388  -0.4389832  51.4659007  54.8371166  -0.7763910  51.5885406
  56.2942939  -1.1706801  51.7027772  37.3773535  -4.1065741  44.7902058
  38.0644574  -4.4204010  44.2023074  37.2221663  -3.2024376  44.5169310
  49.2545541   4.2211620  48.4320250  49.1815712   5.0266592  48.9439555
  48.8122934   4.4203586  47.6068272  49.0435321   3.4583390  41.9423072
  48.2602842   4.0005070  42.0361296  49.7428066   3.9757370  42.3417313
  60.2061728  -5.0281615  46.2275569  60.1951604  -4.1456899  45.8569502
  59.3379107  -5.3810064  46.0330106  51.7144224   4.1198454  50.5878409
  52.4272197   4.7545919  50.5154310  51.2234253   4.2162320  49.7718411
  53.4361751  -1.9750293  42.1595700  52.5018030  -1.8548831  41.9900405
  53.6138420  -2.8777826  41.8955710  48.9366939  -8.5904597  44.3128962
  48.5664727  -9.1433557  45.0009867  49.4326032  -9.1946464  43.7603962
  56.8234303  -6.1332974  42.6945735  57.2894755  -5.3004982  42.6206037
  57.2741803  -6.5987992  43.3990993  46.7656138   1.8692898  51.4083980
  47.4665597   2.5029381  51.5613374  46.2951253   2.2107629  50.6479619
  54.8910534   0.2110847  39.6931887  55.1670378   0.0967442  40.6025761
  54.0215033  -0.1871668  39.6544060  54.5657424  -5.5762495  49.2336530
  53.9128874  -5.3286588  48.5788983  54.9437804  -6.3898357  48.8999007
  51.5264598   4.4597198  43.3364700  51.7086992   3.6418854  43.7992453
  52.3497584   4.6764890  42.8989590  51.8606763   3.3865383  40.5979749
  52.3894530   2.8757838  39.9849911  52.1234983   3.0707914  41.4625282
  50.6144997  -4.8342684  55.7202567  49.9385634  -4.9348555  56.3904942
  51.4372631  -4.9903470  56.1838564  42.3623856   1.4029253  48.3415082
  42.9477293   0.6572941  48.4742987  42.1648694   1.7133209  49.2251746
  45.2162511   4.4380500  43.3577525  44.5472887   4.9226628  42.8741565
  45.0775381   4.6849720  44.2720903  49.3567780   6.4724244  49.9560183
  49.9086088   6.6355865  50.7209268  49.6973973   7.0628681  49.2840208
  54.2078654   1.2985501  55.8108838  54.7518558   1.9115459  55.3163792
  53.6265499   1.8565079  56.3275851  52.4936167   4.4206219  46.9423865
  52.3687307   3.6195959  46.4334811  53.1515258   4.9152412  46.4537835
  44.1144335  -9.2245048  46.1201005  43.3930921  -8.6109081  45.9808479
  44.9037591  -8.6887284  46.0417651  54.5571075   2.2215239  48.5703415
  53.6101411   2.1020590  48.4981742  54.9053849   1.3337737  48.6529677
  51.5617509   2.0167955  44.7707768  51.4142471   1.0884663  44.9515338
  52.3871002   2.0388046  44.2864843  55.1651631   2.8396514  45.8572640
  56.0898178   2.6339375  45.7197091  54.9966934   2.5912915  46.7661982
  48.1223194 -10.9476927  50.0791328  47.7820014 -11.7469114  50.4812008
  47.4162200 -10.6475216  49.5068161  46.2978244  -7.1708494  46.3410629
  46.1522825  -6.8568191  47.2334911  45.8203448  -6.5523593  45.7881528
  48.1574627 -10.1805946  46.3891519  48.1436196 -11.0764852  46.0523817
  48.8747055 -10.1735282  47.0229805  50.0100758  -9.7468606  48.4344646
  49.7518536  -8.8251535  48.4328977  49.4785798 -10.1438171  49.1245111
  54.9546947   3.3582182  41.2134732  55.1283824   2.7928604  40.4608584
  55.4475838   4.1583076  41.0314222  40.7723907  -4.6303149  49.2798291
  40.2277375  -3.8543341  49.4118565  41.6503257  -4.2832345  49.1217412
  60.8086338  -3.8781395  42.8325032  61.2517484  -4.6274070  42.4344155
  59.9312848  -3.8871259  42.4498763  55.9422119   2.6748946  38.3131630
  56.6373024   3.2955639  38.5318945  56.2845269   1.8244297  38.5884008
  41.5589929  -5.5033253  52.1728447  40.8171665  -5.3550618  52.7593078
  41.2382673  -5.2424987  51.3095197  57.8413542   0.1248652  39.8418961
  58.3664867   0.4635924  39.1168281  57.7535895  -0.8104333  39.6582095
  49.5033591   4.0382725  51.9708837  49.8120718   3.7931872  52.8431537
  50.3009073   4.2429364  51.4827708  49.5254203   6.1920635  44.2014214
  49.0859193   5.6997013  44.8947071  50.2762320   5.6493602  43.9606289
  42.0046542   2.3832176  44.2038842  42.8304562   2.0835948  43.8237486
  41.6540594   1.6139798  44.6528631  46.9728075   1.7358644  46.2736516
  46.3508085   1.0729349  45.9738744  47.6432942   1.7619776  45.5910163
  40.2055147   0.3018502  45.1627776  39.3687056  -0.1259324  44.9811777
  40.1778793   0.4950945  46.0998567  47.0452603  -9.7859568  55.8669022
  47.0940758  -8.9097445  55.4846791  47.5875117 -10.3282175  55.2940665
  57.5307449   0.7581555  55.1470159  56.7402992   0.7405694  54.6074658
  57.2940803   1.2969849  55.9019195  57.6505324  -2.3925978  52.4602887
  57.7003328  -2.5575971  53.4018410  57.5419247  -3.2598719  52.0700768
  46.5341582   0.2862567  39.7494976  46.6829703   0.9698032  39.0961649
  47.3408026   0.2667657  40.2644432  54.9409086  -6.4095050  53.7762194
  55.8418949  -6.5488586  53.4846192  55.0157060  -6.2440596  54.7160371
  49.2751891  -9.0328196  52.6215380  48.4055201  -8.7394630  52.3497969
  49.5111372  -8.4487751  53.3422644  59.1523520   0.0270963  52.7044909
  58.8608329   0.3900944  53.5408370  58.5395652  -0.6862029  52.5258241
  60.3519203  -2.4076157  45.2247479  61.1866094  -1.9686353  45.3885039
  60.4878332  -2.8837504  44.4055725  57.4010709  -4.8496422  51.1724967
  57.8764830  -4.6568776  50.3643818  56.4776274  -4.7937237  50.9268350
  44.2894215  -3.6872255  40.7556045  44.0440257  -4.5909925  40.9536255
  44.4590130  -3.6855105  39.8135523  50.0336988   2.7810698  37.2206724
  49.4610955   3.4000885  36.7677195  50.6069781   3.3310059  37.7546646
  56.1012378  -7.9730662  49.4053272  57.0529801  -7.8732565  49.4265496
  55.9315828  -8.7652394  49.9151357  53.2534248   3.0647848  38.3515306
  54.1864921   2.9993409  38.5548181  53.1657460   3.9004115  37.8929839
  55.8822264   2.3813718  35.3119253  55.8035896   2.0473582  36.2055011
  56.7031931   2.8735486  35.3110726  58.5800455  -4.7524543  48.5195572
  58.5476776  -5.6908542  48.7055256  59.1901079  -4.6740506  47.7861397
  64.3977005  -3.6908536  47.6601609  65.1280394  -3.9523248  48.2209312
  63.7883951  -4.4279814  47.7003677  62.4792302  -5.5500673  48.2576060
  61.7525466  -5.6844708  47.6492552  62.0639589  -5.2423845  49.0632778
  50.3022479  -1.8310743  56.0223433  51.2225488  -1.6532144  56.2163480
  50.2672062  -2.7754698  55.8703132  43.2984551  -3.9209709  48.6646214
  43.5170561  -2.9892601  48.6834248  43.7110325  -4.2801734  49.4501018
  48.1712417  -8.3476503  58.0548963  48.0709144  -7.3982146  57.9861054
  47.9533959  -8.6758264  57.1825033  39.3892904  -3.0169238  46.9169829
  38.6956375  -3.4315286  46.4039784  40.1365895  -2.9748702  46.3203248
  48.0343687  -4.9179364  56.8714025  47.5510768  -4.1179004  57.0777914
  48.1204626  -4.9071419  55.9181469  41.3029646  -3.0850985  44.7935844
  41.2800334  -2.9863297  43.8417727  41.6130283  -2.2385834  45.1153010
  43.9617024  -1.0274830  48.9082459  44.9160278  -1.0590887  48.8412390
  43.7629548  -1.4884206  49.7232685  44.5516406  -2.4573713  51.4753256
  45.3709295  -1.9629635  51.4988094  44.8253214  -3.3741745  51.4470824
  42.3167253   4.5144790  45.9252657  42.1821721   3.7545191  45.3590655
  41.8999315   5.2385690  45.4581445  53.4526216  -0.3018286  34.9329232
  54.1562066  -0.0968284  35.5486887  52.7288865   0.2658475  35.1978315
  54.2824026  -4.5508425  41.0531502  54.2259228  -4.0939874  40.2139134
  54.8352369  -5.3117741  40.8754345  62.4041170  -6.0222620  44.3852913
  61.8440728  -5.9529431  45.1584475  61.7984673  -6.1981635  43.6652409
  45.4736379   5.4114107  46.1371099  45.3568763   6.3559539  46.0349789
  44.6528825   5.1087669  46.5256898  55.3612913   0.1364243  36.9827692
  56.1958517  -0.2954559  36.8005167  55.1997256  -0.0353744  37.9104586
  55.0158806  -3.3603644  38.3484031  54.9607609  -3.5259373  37.4072475
  54.3904861  -2.6527611  38.5046221  52.3304713  -1.0554732  57.6737594
  53.1995872  -0.8814080  57.3124229  51.8511464  -0.2360315  57.5513323
  46.4990893   6.0642369  49.3527028  47.4018140   6.0965979  49.6693523
  46.2728263   5.1342820  49.3673363  48.2544495   4.8173355  46.0137106
  47.3040126   4.8175217  45.9001478  48.5576981   4.0706090  45.4973141
  63.9897189  10.6533894  47.0782869  64.6275598  10.5340641  46.3746209
  63.8718031  11.6014738  47.1370821  60.7986895  10.6061322  47.0144393
  60.4605406  10.4902387  46.1264928  61.6676663  10.2052487  46.9945399
  56.6573710  12.4596798  43.0041284  56.0938576  12.3686735  42.2357572
  56.5426106  11.6396703  43.4843777  61.2806678  11.7596174  52.9730599
  61.2695319  11.3648972  52.1011102  61.4427317  11.0262246  53.5664370
  54.2038142  13.9547990  45.8425505  54.9959434  13.6138815  45.4271804
  54.4434793  14.0642965  46.7627658  62.2373269  16.1267766  38.3155749
  61.5861249  16.7121846  37.9289763  63.0317632  16.6573961  38.3750787
  56.1628896  13.2156903  38.7142883  56.9359772  12.6685890  38.5755759
  56.5154295  14.0801153  38.9257345  58.0013939  14.5433285  51.9209783
  57.7103805  15.4478916  51.8056449  58.6370923  14.5849813  52.6353852
  58.9270146  11.9210134  48.5111142  59.5233718  11.6966156  47.7968105
  58.9845117  11.1794879  49.1136590  58.4995174   9.3749569  36.3461333
  58.7520695   8.8531091  35.5844796  57.5619733   9.2115715  36.4488017
  63.5438457   8.3785348  44.1536077  64.3301546   7.9604771  43.8026494
  63.8077161   9.2831440  44.3217725  63.7148534  13.8158198  38.8524733
  63.0794367  13.8892825  39.5645638  63.3845941  14.4051797  38.1743813
  68.9446884   8.3160581  45.0569055  69.6772056   7.7459798  45.2906885
  68.1886240   7.9282181  45.4975561  58.2191463  11.2777675  38.5485708
  58.1027721  10.6022579  39.2166793  58.3293723  10.7910049  37.7317861
  60.5623004  10.7387822  42.2532398  60.1981211  10.2118443  42.9645319
  61.4190120  10.3486291  42.0798883  66.4672304   2.0282155  49.5163664
  66.1355629   2.8977566  49.2924879  65.8717918   1.7118439  50.1957694
  60.2028491   5.7677722  37.2493746  60.3702893   6.6357958  37.6164217
  60.0125660   5.9305004  36.3255035  62.9603824  14.2294701  48.9159576
  62.6604547  15.1319740  48.8075384  62.6154884  13.9626884  49.7680729
  56.4116305  10.6808498  44.9496281  55.4866802  10.5484712  45.1573973
  56.6600719  11.4602717  45.4466223  66.3600968   6.7477241  46.5957014
  65.4517845   6.6792650  46.3015775  66.3088564   7.2249186  47.4238839
  60.1817712   8.2235380  38.2340413  60.0617337   8.6692430  39.0725893
  59.4870300   8.5720697  37.6753951  53.7725117  10.3241771  45.7840070
  53.9017498  10.5776250  46.6979482  53.0922568  10.9169479  45.4644725
  57.9424604  20.9939021  41.8830544  57.8648634  21.9446846  41.9619025
  57.3386247  20.6484894  42.5405470  60.4341834   8.1666887  54.5391911
  59.6575168   8.7260807  54.5294776  61.0732397   8.6523670  55.0606781
  68.2262614   4.9493680  48.3734888  67.5836994   5.2426213  47.7274682
  67.7217543   4.8346600  49.1788084  65.8802778   8.6956853  39.0620747
  66.7920634   8.9284240  38.8868445  65.3712425   9.2793897  38.4995826
  58.6888206  10.9752340  54.1009878  59.4302890  11.5137384  53.8244702
  57.9825191  11.6018629  54.2581430  64.1643546  13.1181481  52.6982040
  64.5726902  12.6763891  51.9536672  63.4420807  12.5434108  52.9516232
  60.5174616   8.0554087  50.0715597  61.3635811   8.4793501  50.2150246
  60.4573253   7.3987712  50.7654160  64.4872360  13.6782671  46.4534328
  63.8581223  13.8428385  45.7510396  64.0998022  14.0924281  47.2245292
  68.3661592  14.6137109  43.8078692  67.6812630  14.9936010  43.2575726
  68.4505441  15.2232436  44.5410640  63.6674061   5.7158456  51.7296770
  63.4234993   6.4700516  51.1931046  63.9433991   6.0943803  52.5644017
  65.6212524  12.2597068  50.4074036  65.8329419  12.9028828  49.7308417
  65.5742272  11.4259385  49.9395966  63.2238753   4.8714889  47.3110608
  62.3623232   5.1696142  47.6027345  63.2501187   5.0885288  46.3791641
  60.0400322  13.4157079  43.7184414  60.5038668  13.6944782  42.9289036
  59.7757120  12.5140524  43.5357504  56.9324403  12.9628561  46.6564177
  57.5025760  13.3915829  46.0181661  57.5232515  12.6811146  47.3548362
  58.9769208   9.5380232  40.5273979  59.6793251   9.9901275  40.9947905
  58.6449837   8.8964051  41.1553872  57.4249570   8.1291988  54.9025188
  56.7948230   8.8108269  55.1360585  57.3185658   8.0175070  53.9578326
  52.7194542   7.7963784  45.8291112  51.9293596   8.0521313  45.3531223
  53.2105789   8.6112122  45.9343153  66.7358352  15.1369024  48.5796393
  67.5575795  14.7349211  48.2979075  66.7320754  15.0337258  49.5312509
  54.6709287   8.1608364  42.7874589  53.8740451   8.2727058  43.3058085
  54.4434880   8.4995016  41.9215479  60.5014955  14.6853067  50.7357104
  60.5659388  15.1473474  51.5715275  59.7925879  14.0550432  50.8639413
  51.0032245   8.0494275  48.2606103  51.2540283   8.9341285  48.5263679
  51.5391793   7.8698876  47.4881195  74.8264345  11.4807772  44.9281365
  74.0728053  10.9115170  44.7725369  74.9611886  11.4470436  45.8751999
  60.2162973  16.3521174  40.6036084  60.0808648  17.1972710  41.0320932
  60.7572785  16.5540452  39.8402018  56.7030312   2.4312754  57.2650439
  56.3097258   1.8778953  57.9398083  57.5196453   2.7423333  57.6556957
  53.6692370  13.8696612  41.1764009  54.1816891  14.6639863  41.3269574
  54.3215083  13.1722903  41.1097610  55.4787255  16.9862369  43.2586762
  55.6553883  17.9080333  43.0707746  56.2744088  16.6720788  43.6881142
  59.6198273   3.8470633  54.8570696  60.3607987   4.4477786  54.7775158
  59.8516196   3.1048271  54.2988738  54.7639611   9.0327001  53.1348925
  54.6493126   8.1312258  53.4356024  53.9084129   9.2790697  52.7833742
  61.8431449  16.9744741  54.7336426  61.3995303  16.1881119  54.4157330
  62.5048663  17.1623891  54.0680317  56.6018570  18.5040542  49.2597104
  57.1525995  18.3757606  48.4874098  55.7630046  18.8035431  48.9091997
  63.9412687  17.2547541  52.7617827  63.9231163  18.0756422  52.2698096
  64.8632607  17.1301616  52.9867968  60.3985741  14.7691670  53.6041336
  60.9314078  14.0079958  53.3740644  59.8699822  14.4765322  54.3465490
  63.5655436  -0.1248264  49.1334977  63.2219706   0.7653378  49.0574088
  63.9334399  -0.3146606  48.2704562  51.6341287  12.1985267  41.9523580
  52.4716509  12.6082275  41.7357287  51.8119555  11.2584709  41.9223773
  63.5305719   9.8660347  37.6407412  63.0152342  10.6364952  37.8795800
  63.2583027   9.1925483  38.2640474  61.1152830   4.7110048  42.6992651
  60.2594426   4.3216898  42.5198290  61.5279782   4.7902009  41.8392436
  62.6451977   2.2456391  47.0984211  62.1416772   2.2086526  46.2852016
  62.9382584   3.1549134  47.1580867  58.8894863   2.3295121  46.1050392
  59.7547859   2.1337930  45.7456282  58.9572371   2.1005473  47.0319749
  68.5039993  12.6192702  39.5760586  67.7269436  12.2803861  39.1315748
  69.1831474  12.6245325  38.9015551  63.3192022   7.7387439  39.4667194
  63.0142158   8.0533589  40.3177337  64.2722464   7.8168859  39.5094527
  61.7638454  13.8977663  41.1160148  61.2359816  13.1630422  40.8033385
  61.2625957  14.6752339  40.8700116  66.7431300  12.0926683  46.2327194
  66.0854974  12.7825945  46.3207323  67.5471699  12.4823115  46.5761180
  56.4957182   4.5597329  43.4766759  57.0700934   4.3372510  42.7439952
  57.0828164   4.6286023  44.2295360  65.5536759  10.4471056  44.2831136
  66.0668641  11.0801048  44.7852845  66.2037983   9.8472251  43.9174496
  56.8226769   6.5901790  37.4962644  55.9864081   6.9276477  37.8171919
  56.6831538   6.4550770  36.5589781  58.7979849   1.4338578  42.2041829
  58.1444262   1.1187595  41.5798443  58.7560323   0.8114318  42.9301652
  59.9091054  11.7157873  34.1195121  59.0018116  11.4847126  34.3186270
  60.4062086  10.9195492  34.3069102  62.8159133  20.4255380  37.0391807
  62.1420832  20.7287077  37.6476765  63.2024955  21.2284460  36.6897264
  62.0317590   7.9220511  46.5289476  61.1140151   8.1435458  46.3711164
  62.4477733   7.9966822  45.6701184  62.8152637   9.3211927  41.6592156
  63.5624456   9.8333324  41.3499279  63.0844227   8.9995980  42.5196550
  61.0879288  11.8170468  38.6419111  60.1790507  11.5329501  38.7391581
  61.1174371  12.2369546  37.7822418  66.3198555  15.4277057  42.4110278
  65.8660882  14.5867967  42.4675469  65.6892522  16.0638456  42.7485058
  65.2631475   6.3569043  43.6410946  64.5254231   5.8446430  43.9721188
  65.5158248   5.9169425  42.8294223  64.7631494  17.2653554  43.3460096
  65.0554469  17.8258611  42.6272462  65.2730115  17.5582115  44.1013256
  65.3643102  -0.8654705  44.2352715  65.6701979  -1.7257341  43.9478630
  66.0895707  -0.2737084  44.0351709  51.6567458   9.5375982  42.6234313
  51.4591858   8.9445343  41.8985380  51.1014122   9.2328192  43.3410252
  59.6364182   9.4299088  44.7428906  59.6912791   8.4772925  44.6671383
  58.8255384   9.5858528  45.2270205  60.7855375  13.3579211  35.9807189
  60.3474805  12.6415070  35.5212827  61.5265816  13.5855326  35.4192281
  57.5756542   8.0476148  42.5019285  56.7624407   8.3470319  42.9084477
  58.0715536   7.6531837  43.2193767  59.7265119  18.0433905  44.4353550
  59.6841298  18.2694751  43.5062082  60.6427818  17.8097280  44.5839351
  63.1730753   8.5117973  51.3334179  63.5280141   8.7389446  52.1928645
  63.8202885   8.8436349  50.7111434  68.9028490  11.6336409  42.0383508
  68.7646389  11.8238005  41.1104697  68.5464709  12.3955791  42.4951559
  57.0670616   5.6194504  48.1180520  57.7069996   5.4783263  47.4203483
  56.2348147   5.3329017  47.7419122  68.9297870  13.7012936  47.0494779
  69.3634377  13.6088225  47.8977833  69.6429451  13.6770436  46.4114795
  57.8430920  14.9196934  44.2315512  58.6371519  14.4247254  44.0298087
  57.1322613  14.3914797  43.8683218  62.6625765  17.3015030  48.5827880
  62.7162787  17.8705966  49.3505596  61.7940546  17.4716915  48.2181917
  54.1513684   9.0640016  40.3075265  53.2211272   9.0024471  40.5245227
  54.2471156   8.5415969  39.5111906  54.0699233   5.5894829  42.8953507
  54.3306050   6.5040162  42.7862667  54.8916405   5.1219271  43.0450120
  55.5424158   7.0032586  50.0652331  56.2147212   6.7949948  49.4164980
  54.7153945   6.8054672  49.6257564  69.7913419  13.7436636  49.5827665
  69.9849309  14.6482447  49.8286940  69.6914038  13.2844055  50.4166250
  61.4449730   3.6294527  52.0817992  60.7977645   4.3284476  51.9882469
  62.2150746   4.0630671  52.4494240  64.8528528  13.8943379  55.1568545
  64.7014034  13.6653931  54.2398629  64.8433208  14.8513980  55.1699890
  61.6213864  11.4675292  50.1414812  62.5505924  11.6186451  49.9683779
  61.2004895  11.5559312  49.2863458  60.4202196  15.4925956  47.9113349
  60.2813282  15.1244741  48.7839288  59.6316793  16.0073596  47.7397307
  61.0150348  20.5935053  39.2538886  61.1902104  20.1223096  40.0684509
  60.3283136  21.2200819  39.4820147  61.9707411  14.8707559  45.3002187
  61.6357244  14.8308329  46.1959837  61.4711357  14.2052275  44.8272598
  55.9451655  10.2775189  50.8254768  55.8071453   9.5455428  51.4266307
  56.8556579  10.1884089  50.5438956  64.9066603  12.2163593  35.5739247
  64.2895774  11.4910421  35.4772300  64.4383092  12.9772953  35.2306321
  58.5733956   9.9895148  50.3138448  59.2833575   9.3488340  50.2725067
  58.5303264  10.2408043  51.2364629  66.5620735  16.9262501  53.2345027
  66.5033281  16.2421722  52.5675610  66.9640253  17.6681491  52.7825653
  57.2862890   6.9760366  52.1334088  56.7500247   6.5251104  52.7855684
  56.6979598   7.1106275  51.3904552  55.5811434  23.7424415  46.0278746
  55.8208032  24.3742939  46.7057765  54.7380630  23.3912455  46.3144105
  56.6965149   6.4349017  34.6960551  55.8194615   6.3137818  34.3322798
  57.1722902   5.6435096  34.4439440  66.5638142  14.8902085  51.4659007
  65.6764921  14.5528007  51.5885406  67.1336693  14.1585117  51.7027772
  48.2167289  11.2226177  44.7902058  48.9038329  10.9087907  44.2023074
  48.0615418  12.1267542  44.5169310  53.0202011   6.1116374  49.2187082
  52.9360200   5.5042043  48.4837492  52.1984718   6.6025392  49.2196578
  60.0939295  19.5503538  48.4320250  60.0209467  20.3558509  48.9439555
  59.6516688  19.7495504  47.6068272  59.8829075  18.7875308  41.9423072
  59.0996597  19.3296988  42.0361296  60.5821820  19.3049287  42.3417313
  63.1925725   4.5969937  44.5857277  63.6894425   3.8439900  44.2658347
  62.4212707   4.6334254  44.0200486  71.0455483  10.3010303  46.2275569
  71.0345359  11.1835018  45.8569502  70.1772862   9.9481854  46.0330106
  62.5537979  19.4490372  50.5878409  63.2665951  20.0837837  50.5154310
  62.0628008  19.5454238  49.7718411  64.2755506  13.3541624  42.1595700
  63.3411785  13.4743087  41.9900405  64.4532174  12.4514091  41.8955710
  59.7760694   6.7387320  44.3128962  59.4058481   6.1858361  45.0009867
  60.2719786   6.1345454  43.7603962  67.6628057   9.1958944  42.6945735
  68.1288509  10.0286935  42.6206037  68.1135558   8.7303925  43.3990993
  57.6049892  17.1984815  51.4083980  58.3059352  17.8321298  51.5613374
  57.1345007  17.5399547  50.6479619  65.7304288  15.5402765  39.6931887
  66.0064132  15.4259360  40.6025761  64.8608787  15.1420250  39.6544060
  65.6344720   1.5639531  46.7336636  64.7207800   1.7943758  46.9018843
  66.0637821   1.6477975  47.5850668  65.4051178   9.7529423  49.2336530
  64.7522629  10.0005330  48.5788983  65.7831558   8.9393561  48.8999007
  62.3658352  19.7889116  43.3364700  62.5480747  18.9710772  43.7992453
  63.1891338  20.0056808  42.8989590  62.7000518  18.7157301  40.5979749
  63.2288284  18.2049756  39.9849911  62.9628737  18.3999831  41.4625282
  61.4538751  10.4949234  55.7202567  60.7779388  10.3943363  56.3904942
  62.2766385  10.3388448  56.1838564  53.2017611  16.7321170  48.3415082
  53.7871047  15.9864858  48.4742987  53.0042449  17.0425127  49.2251746
  56.0556266  19.7672418  43.3577525  55.3866641  20.2518545  42.8741565
  55.9169135  20.0141638  44.2720903  47.7935265   9.3026771  47.0619525
  47.8319365   8.7690361  47.8556644  47.2875558   8.7761976  46.4430503
  60.1961534  21.8016161  49.9560183  60.7479842  21.9647783  50.7209268
  60.5367728  22.3920599  49.2840208  55.1726028   4.1491311  50.5582068
  55.2367354   5.0106142  50.1459465  55.1093148   3.5365313  49.8254426
  54.6478300   6.2214444  54.2055102  55.2750339   5.8391521  54.8192626
  53.7906219   6.0028646  54.5710795  65.0472409  16.6277419  55.8108838
  65.5912313  17.2407377  55.3163792  64.4659253  17.1856997  56.3275851
  51.4243843   8.0290873  40.1373457  51.7197284   7.1201551  40.0840511
  50.5231879   8.0078612  39.8154459  63.3329922  19.7498137  46.9423865
  63.2081061  18.9487877  46.4334811  63.9909013  20.2444330  46.4537835
  54.9538090   6.1046869  46.1201005  54.2324676   6.7182837  45.9808479
  55.7431346   6.6404634  46.0417651  65.3964830  17.5507157  48.5703415
  64.4495166  17.4312508  48.4981742  65.7447603  16.6629655  48.6529677
  57.7564403   3.4401296  52.3941657  58.2798805   3.6863592  53.1567967
  57.5376737   4.2721331  51.9744795  53.1531684   5.7104970  40.2612782
  52.8244391   4.8302349  40.0787888  53.5071055   5.6552639  41.1489171
  62.4011263  17.3459873  44.7707768  62.2536226  16.4176580  44.9515338
  63.2264757  17.3679964  44.2864843  56.2673508   5.9977940  40.6288260
  56.6069580   6.5263861  39.9066868  56.7145628   6.3358346  41.4046826
  66.0045385  18.1688432  45.8572640  66.9291933  17.9631293  45.7197091
  65.8360688  17.9204833  46.7661982  58.9616948   4.3814991  50.0791328
  58.6213769   3.5822804  50.4812008  58.2555955   4.6816702  49.5068161
  59.6133420   1.4664303  48.5318651  60.4359490   0.9924781  48.4097541
  59.8571484   2.2454787  49.0317337  58.2541655   4.4952562  38.8281552
  58.9750017   4.8733815  38.3245269  57.6306959   5.2141439  38.9316530
  62.3972778   5.1997711  39.7639885  62.6136392   6.0822349  39.4628713
  61.9166845   4.8083924  39.0345527  57.1371999   8.1583424  46.3410629
  56.9916580   8.4723727  47.2334911  56.6597203   8.7768324  45.7881528
  58.9968382   5.1485972  46.3891519  58.9829951   4.2527065  46.0523817
  59.7140810   5.1556636  47.0229805  60.8494513   5.5823312  48.4344646
  60.5912290   6.5040383  48.4328977  60.3179553   5.1853747  49.1245111
  65.7940701  18.6874099  41.2134732  65.9677579  18.1220522  40.4608584
  66.2869593  19.4874994  41.0314222  51.6117661  10.6988768  49.2798291
  51.0671129  11.4748576  49.4118565  52.4897011  11.0459573  49.1217412
  58.4005278   4.0300352  41.6579089  58.5221189   3.1016998  41.8569977
  58.1107320   4.0439038  40.7457405  61.2696468   1.7155263  44.7945809
  61.2918165   1.7794596  43.8397788  61.6864527   0.8759771  44.9886315
  71.6480093  11.4510522  42.8325032  72.0911239  10.7017847  42.4344155
  70.7706603  11.4420659  42.4498763  66.7815874  18.0040864  38.3131630
  67.4766778  18.6247556  38.5318945  67.1239024  17.1536215  38.5884008
  52.3983683   9.8258665  52.1728447  51.6565419   9.9741300  52.7593078
  52.0776427  10.0866930  51.3095197  68.6807297  15.4540569  39.8418961
  69.2058621  15.7927842  39.1168281  68.5929649  14.5187584  39.6582095
  60.3427346  19.3674643  51.9708837  60.6514472  19.1223790  52.8431537
  61.1402828  19.5721281  51.4827708  60.3647958  21.5212552  44.2014214
  59.9252948  21.0288931  44.8947071  61.1156075  20.9785520  43.9606289
  52.8440297  17.7124093  44.2038842  53.6698317  17.4127865  43.8237486
  52.4934349  16.9431716  44.6528631  57.8121830  17.0650562  46.2736516
  57.1901839  16.4021267  45.9738744  58.4826697  17.0911693  45.5910163
  51.0448902  15.6310420  45.1627776  50.2080810  15.2032594  44.9811777
  51.0172547  15.8242863  46.0998567  57.8846357   5.5432350  55.8669022
  57.9334513   6.4194472  55.4846791  58.4268872   5.0009743  55.2940665
  68.3701203  16.0873473  55.1470159  67.5796747  16.0697612  54.6074658
  68.1334558  16.6261767  55.9019195  68.4899078  12.9365939  52.4602887
  68.5397083  12.7715947  53.4018410  68.3813001  12.0693198  52.0700768
  57.3735337  15.6154485  39.7494976  57.5223457  16.2989949  39.0961649
  58.1801780  15.5959575  40.2644432  65.7802840   8.9196867  53.7762194
  66.6812703   8.7803332  53.4846192  65.8550815   9.0851322  54.7160371
  60.1145646   6.2963722  52.6215380  59.2448955   6.5897288  52.3497969
  60.3505126   6.8804167  53.3422644  69.9917275  15.3562881  52.7044909
  69.7002083  15.7192861  53.5408370  69.3789406  14.6429889  52.5258241
  71.1912957  12.9215760  45.2247479  72.0259849  13.3605565  45.3885039
  71.3272086  12.4454414  44.4055725  68.2404463  10.4795495  51.1724967
  68.7158585  10.6723142  50.3643818  67.3170029  10.5354681  50.9268350
  55.1287970  11.6419663  40.7556045  54.8834012  10.7381993  40.9536255
  55.2983884  11.6436813  39.8135523  62.8184680   2.5143339  50.1380801
  63.3366623   3.2504366  49.8127289  62.4639812   2.8207332  50.9727560
  54.3983617   7.3748020  38.2542207  53.7052862   7.4492375  37.5982243
  54.1535369   6.6108364  38.7763723  63.0697274  -1.0656379  45.6581697
  63.3499028  -1.7333190  46.2842124  63.8547881  -0.8727283  45.1456361
  60.8730742  18.1102615  37.2206724  60.3004709  18.7292802  36.7677195
  61.4463536  18.6601977  37.7546646  66.9406132   7.3561255  49.4053272
  67.8923555   7.4559353  49.4265496  66.7709583   6.5639524  49.9151357
  64.9620512   4.4416839  49.5912673  64.3670444   4.7221851  48.8959162
  64.6770208   4.9310740  50.3629414  64.0928002  18.3939765  38.3515306
  65.0258675  18.3285327  38.5548181  64.0051215  19.2296032  37.8929839
  66.7216019  17.7105636  35.3119253  66.6429650  17.3765499  36.2055011
  67.5425686  18.2027404  35.3110726  69.4194210  10.5767375  48.5195572
  69.3870530   9.6383376  48.7055256  70.0294834  10.6551412  47.7861397
  61.2577541   9.4463428  34.5622776  62.2036645   9.3169636  34.6311194
  60.8791786   8.7078090  35.0392204  69.5688698   7.3678419  48.5653855
  69.0527747   6.5836875  48.3783784  70.4528647   7.0397135  48.7300375
  67.2299425   1.1119434  44.5249668  67.0324246   0.8034522  45.4093000
  67.8399131   1.8381073  44.6547598  75.2370760  11.6383382  47.6601609
  75.9674148  11.3768670  48.2209312  74.6277705  10.9012104  47.7003677
  73.3186057   9.7791245  48.2576060  72.5919220   9.6447209  47.6492552
  72.9033344  10.0868073  49.0632778  61.1416233  13.4981174  56.0223433
  62.0619243  13.6759773  56.2163480  61.1065816  12.5537220  55.8703132
  59.4420458   7.3713404  34.4977661  58.5351913   7.0746517  34.5740375
  59.7196439   7.0743223  33.6311948  50.3598398   8.6919768  44.9476708
  50.0401183   7.8385076  44.6551082  49.8131826   8.9068346  45.7034675
  54.1378306  11.4082209  48.6646214  54.3564316  12.3399317  48.6834248
  54.5504080  11.0490183  49.4501018  61.0582524   1.9150294  40.6521903
  60.2483252   1.5697379  41.0277149  61.7466941   1.6057838  41.2409514
  62.9873072   0.9928341  42.2746199  63.5404111   1.4123794  42.9336222
  63.2243158   0.0664089  42.3169155  59.0106171   6.9815415  58.0548963
  58.9102898   7.9309772  57.9861054  58.7927713   6.6533654  57.1825033
  58.2119243   4.2300340  34.6389641  59.0738407   4.5555238  34.8985458
  58.3969587   3.4431836  34.1262706  50.2286658  12.3122679  46.9169829
  49.5350130  11.8976632  46.4039784  50.9759649  12.3543216  46.3203248
  66.3651879   3.1028866  41.7824864  65.7850548   3.7613670  41.4002916
  66.0987812   2.2806211  41.3712281  64.8155445   2.5033924  43.9846184
  65.3155224   2.6150458  43.1760503  65.4591053   2.1994977  44.6246992
  58.8737441  10.4112553  56.8714025  58.3904523  11.2112914  57.0777914
  58.9598380  10.4220498  55.9181469  52.1423401  12.2440933  44.7935844
  52.1194089  12.3428620  43.8417727  52.4524037  13.0906084  45.1153010
  54.8010779  14.3017088  48.9082459  55.7554032  14.2701031  48.8412390
  54.6023302  13.8407712  49.7232685  55.3910161  12.8718204  51.4753256
  56.2103050  13.3662283  51.4988094  55.6646969  11.9550172  51.4470824
  65.1476757   5.2628957  40.8381212  64.2602612   5.5478607  40.6201407
  65.5630746   5.1022720  39.9908489  68.4991293   5.2875478  44.5535551
  69.2751683   5.7771930  44.8260168  67.7739427   5.7133532  45.0107421
  70.9363852   6.0003097  45.6109492  71.5308343   5.7598833  44.9002800
  71.0090436   5.2810227  46.2383028  53.1561008  19.8436708  45.9252657
  53.0215475  19.0837109  45.3590655  52.7393070  20.5677608  45.4581445
  64.2919971  15.0273631  34.9329232  64.9955821  15.2323634  35.5486887
  63.5682619  15.5950393  35.1978315  65.1217781  10.7783492  41.0531502
  65.0652982  11.2352044  40.2139134  65.6746123  10.0174177  40.8754345
  68.9322587   6.5673224  41.8781621  68.6759521   6.1669860  42.7089829
  68.3075455   7.2817018  41.7531761  73.2434925   9.3069298  44.3852913
  72.6834483   9.3762487  45.1584475  72.6378428   9.1310282  43.6652409
  56.3130133  20.7406025  46.1371099  56.1962518  21.6851457  46.0349789
  55.4922580  20.4379586  46.5256898  66.2006668  15.4656160  36.9827692
  67.0352272  15.0337359  36.8005167  66.0391011  15.2938174  37.9104586
  65.8552560  11.9688274  38.3484031  65.8001364  11.8032545  37.4072475
  65.2298615  12.6764307  38.5046221  50.6445075   7.2056338  52.1745453
  51.2903939   6.6955292  52.6632679  50.4362226   7.9425020  52.7488879
  63.1698467  14.2737186  57.6737594  64.0389627  14.4477838  57.3124229
  62.6905219  15.0931602  57.5513323  59.1648686   1.4696383  37.9269350
  59.1527355   2.4138223  38.0837620  60.0572107   1.2866528  37.6328811
  57.3384648  21.3934287  49.3527028  58.2411894  21.4257897  49.6693523
  57.1122018  20.4634738  49.3673363  59.0938250  20.1465273  46.0137106
  58.1433881  20.1467135  45.9001478  59.3970736  19.3998008  45.4973141
  62.9800805  -1.9360841  42.1815286  62.2133201  -2.4902354  42.3271969
  63.3911510  -1.8638972  43.0429438  54.9842566   4.3523955  56.2720468
  55.8474028   3.9960760  56.4823792  54.4107977   4.0137850  56.9595872
  74.8290943  25.9825812  47.0782869  75.4669353  25.8632559  46.3746209
  74.7111786  26.9306655  47.1370821  71.6380649  25.9353240  47.0144393
  71.2999161  25.8194304  46.1264928  72.5070417  25.5344405  46.9945399
  67.4967465  27.7888716  43.0041284  66.9332330  27.6978653  42.2357572
  67.3819860  26.9688620  43.4843777  65.0431897  29.2839908  45.8425505
  65.8353189  28.9430732  45.4271804  65.2828547  29.3934883  46.7627658
  73.0767024  31.4559684  38.3155749  72.4255003  32.0413764  37.9289763
  73.8711387  31.9865879  38.3750787  67.0022651  28.5448821  38.7142883
  67.7753527  27.9977808  38.5755759  67.3548050  29.4093070  38.9257345
  69.7663900  27.2502052  48.5111142  70.3627473  27.0258074  47.7968105
  69.8238872  26.5086797  49.1136590  69.3388929  24.7041487  36.3461333
  69.5914449  24.1823008  35.5844796  68.4013488  24.5407632  36.4488017
  74.3832211  23.7077265  44.1536077  75.1695301  23.2896689  43.8026494
  74.6470916  24.6123358  44.3217725  74.5542289  29.1450116  38.8524733
  73.9188122  29.2184742  39.5645638  74.2239695  29.7343715  38.1743813
  79.7840639  23.6452499  45.0569055  80.5165811  23.0751715  45.2906885
  79.0279994  23.2574099  45.4975561  69.0585217  26.6069593  38.5485708
  68.9421476  25.9314496  39.2166793  69.1687477  26.1201967  37.7317861
  71.4016758  26.0679740  42.2532398  71.0374966  25.5410361  42.9645319
  72.2583874  25.6778209  42.0798883  77.3066059  17.3574073  49.5163664
  76.9749384  18.2269484  49.2924879  76.7111672  17.0410357  50.1957694
  71.0422245  21.0969640  37.2493746  71.2096648  21.9649876  37.6164217
  70.8519414  21.2596921  36.3255035  67.2510060  26.0100416  44.9496281
  66.3260556  25.8776630  45.1573973  67.4994473  26.7894635  45.4466223
  77.1994722  22.0769159  46.5957014  76.2911600  22.0084567  46.3015775
  77.1482318  22.5541104  47.4238839  71.0211466  23.5527297  38.2340413
  70.9011091  23.9984348  39.0725893  70.3264055  23.9012615  37.6753951
  64.6118871  25.6533689  45.7840070  64.7411252  25.9068168  46.6979482
  63.9316322  26.2461397  45.4644725  68.7818358  36.3230939  41.8830544
  68.7042388  37.2738764  41.9619025  68.1780002  35.9776812  42.5405470
  79.0656369  20.2785597  48.3734888  78.4230749  20.5718130  47.7274682
  78.5611297  20.1638518  49.1788084  76.7196532  24.0248770  39.0620747
  77.6314388  24.2576157  38.8868445  76.2106179  24.6085815  38.4995826
  75.3266115  29.0074589  46.4534328  74.6974977  29.1720303  45.7510396
  74.9391777  29.4216198  47.2245292  79.2055347  29.9429027  43.8078692
  78.5206385  30.3227928  43.2575726  79.2899196  30.5524353  44.5410640
  74.0632507  20.2006806  47.3110608  73.2016986  20.4988060  47.6027345
  74.0894942  20.4177205  46.3791641  70.8794077  28.7448997  43.7184414
  71.3432422  29.0236700  42.9289036  70.6150875  27.8432442  43.5357504
  67.7718158  28.2920479  46.6564177  68.3419515  28.7207747  46.0181661
  68.3626269  28.0103063  47.3548362  69.8162963  24.8672149  40.5273979
  70.5187006  25.3193193  40.9947905  69.4843591  24.2255968  41.1553872
  68.2643324  23.4583906  54.9025188  67.6341985  24.1400187  55.1360585
  68.1579412  23.3466988  53.9578326  63.5588297  23.1255702  45.8291112
  62.7687351  23.3813231  45.3531223  64.0499544  23.9404040  45.9343153
  65.5103042  23.4900281  42.7874589  64.7134205  23.6018976  43.3058085
  65.2828634  23.8286933  41.9215479  61.8426000  23.3786192  48.2606103
  62.0934038  24.2633202  48.5263679  62.3785548  23.1990794  47.4881195
  85.6658099  26.8099690  44.9281365  84.9121808  26.2407088  44.7725369
  85.8005640  26.7762354  45.8751999  71.0556727  31.6813092  40.6036084
  70.9202402  32.5264628  41.0320932  71.5966540  31.8832370  39.8402018
  67.5424067  17.7604672  57.2650439  67.1491012  17.2070870  57.9398083
  68.3590207  18.0715250  57.6556957  64.5086125  29.1988530  41.1764009
  65.0210645  29.9931780  41.3269574  65.1608837  28.5014820  41.1097610
  66.3181009  32.3154286  43.2586762  66.4947638  33.2372251  43.0707746
  67.1137843  32.0012705  43.6881142  70.4592028  19.1762551  54.8570696
  71.2001741  19.7769704  54.7775158  70.6909951  18.4340189  54.2988738
  65.6033366  24.3618918  53.1348925  65.4886881  23.4604175  53.4356024
  64.7477884  24.6082615  52.7833742  67.4412325  33.8332460  49.2597104
  67.9919750  33.7049523  48.4874098  66.6023801  34.1327349  48.9091997
  74.4049191  15.2043654  49.1334977  74.0613460  16.0945296  49.0574088
  74.7728153  15.0145311  48.2704562  62.4735041  27.5277184  41.9523580
  63.3110263  27.9374193  41.7357287  62.6513309  26.5876626  41.9223773
  74.3699474  25.1952265  37.6407412  73.8546097  25.9656870  37.8795800
  74.0976782  24.5217401  38.2640474  71.9546585  20.0401966  42.6992651
  71.0988181  19.6508816  42.5198290  72.3673536  20.1193927  41.8392436
  73.4845731  17.5748309  47.0984211  72.9810527  17.5378444  46.2852016
  73.7776338  18.4841052  47.1580867  69.7288617  17.6587039  46.1050392
  70.5941614  17.4629847  45.7456282  69.7966126  17.4297390  47.0319749
  79.3433748  27.9484620  39.5760586  78.5663190  27.6095779  39.1315748
  80.0225229  27.9537243  38.9015551  74.1585777  23.0679357  39.4667194
  73.8535912  23.3825506  40.3177337  75.1116219  23.1460777  39.5094527
  72.6032209  29.2269580  41.1160148  72.0753570  28.4922340  40.8033385
  72.1019711  30.0044257  40.8700116  77.5825055  27.4218601  46.2327194
  76.9248729  28.1117862  46.3207323  78.3865454  27.8115033  46.5761180
  67.3350936  19.8889247  43.4766759  67.9094688  19.6664428  42.7439952
  67.9221919  19.9577941  44.2295360  76.3930513  25.7762974  44.2831136
  76.9062395  26.4092965  44.7852845  77.0431737  25.1764169  43.9174496
  67.6620523  21.9193708  37.4962644  66.8257836  22.2568394  37.8171919
  67.5225293  21.7842687  36.5589781  69.6373604  16.7630496  42.2041829
  68.9838016  16.4479513  41.5798443  69.5954078  16.1406236  42.9301652
  70.7484809  27.0449791  34.1195121  69.8411870  26.8139044  34.3186270
  71.2455841  26.2487410  34.3069102  73.6552888  35.7547298  37.0391807
  72.9814586  36.0578995  37.6476765  74.0418710  36.5576378  36.6897264
  72.8711344  23.2512429  46.5289476  71.9533906  23.4727376  46.3711164
  73.2871488  23.3258740  45.6701184  73.6546392  24.6503845  41.6592156
  74.4018211  25.1625242  41.3499279  73.9237982  24.3287898  42.5196550
  71.9273042  27.1462386  38.6419111  71.0184261  26.8621418  38.7391581
  71.9568126  27.5661464  37.7822418  77.1592310  30.7568975  42.4110278
  76.7054637  29.9159885  42.4675469  76.5286276  31.3930373  42.7485058
  76.1025229  21.6860961  43.6410946  75.3647986  21.1738347  43.9721188
  76.3552003  21.2461343  42.8294223  75.6025249  32.5945472  43.3460096
  75.8948223  33.1550529  42.6272462  76.1123869  32.8874033  44.1013256
  76.2036856  14.4637213  44.2352715  76.5095733  13.6034576  43.9478630
  76.9289461  15.0554833  44.0351709  62.4961213  24.8667900  42.6234313
  62.2985612  24.2737260  41.8985380  61.9407877  24.5620110  43.3410252
  70.4757936  24.7591006  44.7428906  70.5306546  23.8064843  44.6671383
  69.6649138  24.9150445  45.2270205  71.6249130  28.6871129  35.9807189
  71.1868560  27.9706988  35.5212827  72.3659571  28.9147244  35.4192281
  68.4150296  23.3768066  42.5019285  67.6018162  23.6762236  42.9084477
  68.9109290  22.9823755  43.2193767  70.5658874  33.3725823  44.4353550
  70.5235053  33.5986669  43.5062082  71.4821573  33.1389197  44.5839351
  79.7422245  26.9628326  42.0383508  79.6040143  27.1529922  41.1104697
  79.3858464  27.7247709  42.4951559  67.9064371  20.9486421  48.1180520
  68.5463750  20.8075180  47.4203483  67.0741901  20.6620935  47.7419122
  79.7691624  29.0304853  47.0494779  80.2028131  28.9380142  47.8977833
  80.4823205  29.0062354  46.4114795  68.6824675  30.2488852  44.2315512
  69.4765273  29.7539172  44.0298087  67.9716367  29.7206715  43.8683218
  64.9907438  24.3931934  40.3075265  64.0605026  24.3316389  40.5245227
  65.0864910  23.8707886  39.5111906  64.9092987  20.9186746  42.8953507
  65.1699805  21.8332080  42.7862667  65.7310160  20.4511189  43.0450120
  66.3817913  22.3324504  50.0652331  67.0540966  22.1241866  49.4164980
  65.5547699  22.1346590  49.6257564  72.2843485  18.9586444  52.0817992
  71.6371400  19.6576394  51.9882469  73.0544500  19.3922588  52.4494240
  71.8544103  35.9226970  39.2538886  72.0295858  35.4515013  40.0684509
  71.1676891  36.5492736  39.4820147  72.8101166  30.1999476  45.3002187
  72.4750999  30.1600246  46.1959837  72.3105112  29.5344192  44.8272598
  66.7845410  25.6067107  50.8254768  66.6465208  24.8747345  51.4266307
  67.6950333  25.5176007  50.5438956  75.7460358  27.5455511  35.5739247
  75.1289528  26.8202339  35.4772300  75.2776846  28.3064871  35.2306321
  68.1256645  22.3052284  52.1334088  67.5894002  21.8543022  52.7855684
  67.5373353  22.4398193  51.3904552  67.5358903  21.7640935  34.6960551
  66.6588370  21.6429736  34.3322798  68.0116657  20.9727013  34.4439440
  59.0561044  26.5518095  44.7902058  59.7432083  26.2379825  44.2023074
  58.9009172  27.4559459  44.5169310  63.8595766  21.4408291  49.2187082
  63.7753954  20.8333961  48.4837492  63.0378472  21.9317310  49.2196578
  70.7222830  34.1167225  41.9423072  69.9390351  34.6588906  42.0361296
  71.4215575  34.6341205  42.3417313  74.0319480  19.9261855  44.5857277
  74.5288179  19.1731817  44.2658347  73.2606461  19.9626172  44.0200486
  81.8849237  25.6302220  46.2275569  81.8739113  26.5126936  45.8569502
  81.0166616  25.2773771  46.0330106  75.1149260  28.6833542  42.1595700
  74.1805539  28.8035005  41.9900405  75.2925929  27.7806009  41.8955710
  70.6154448  22.0679238  44.3128962  70.2452236  21.5150278  45.0009867
  71.1113541  21.4637371  43.7603962  78.5021812  24.5250861  42.6945735
  78.9682264  25.3578853  42.6206037  78.9529312  24.0595843  43.3990993
  76.5698043  30.8694683  39.6931887  76.8457887  30.7551277  40.6025761
  75.7002542  30.4712168  39.6544060  76.4738474  16.8931448  46.7336636
  75.5601554  17.1235675  46.9018843  76.9031576  16.9769893  47.5850668
  76.2444933  25.0821340  49.2336530  75.5916383  25.3297248  48.5788983
  76.6225313  24.2685479  48.8999007  73.2052107  35.1181034  43.3364700
  73.3874501  34.3002690  43.7992453  74.0285093  35.3348726  42.8989590
  73.5394272  34.0449219  40.5979749  74.0682039  33.5341673  39.9849911
  73.8022492  33.7291749  41.4625282  64.0411365  32.0613088  48.3415082
  64.6264802  31.3156776  48.4742987  63.8436203  32.3717045  49.2251746
  66.8950020  35.0964335  43.3577525  66.2260395  35.5810463  42.8741565
  66.7562890  35.3433556  44.2720903  58.6329020  24.6318688  47.0619525
  58.6713119  24.0982279  47.8556644  58.1269313  24.1053894  46.4430503
  66.0119782  19.4783229  50.5582068  66.0761109  20.3398060  50.1459465
  65.9486902  18.8657230  49.8254426  65.4872055  21.5506361  54.2055102
  66.1144093  21.1683439  54.8192626  64.6299973  21.3320563  54.5710795
  62.2637597  23.3582790  40.1373457  62.5591038  22.4493469  40.0840511
  61.3625633  23.3370530  39.8154459  65.7931844  21.4338787  46.1201005
  65.0718430  22.0474755  45.9808479  66.5825100  21.9696552  46.0417651
  68.5958158  18.7693213  52.3941657  69.1192560  19.0155510  53.1567967
  68.3770491  19.6013248  51.9744795  63.9925439  21.0396888  40.2612782
  63.6638145  20.1594267  40.0787888  64.3464810  20.9844557  41.1489171
  67.1067262  21.3269858  40.6288260  67.4463335  21.8555779  39.9066868
  67.5539383  21.6650264  41.4046826  76.8439140  33.4980349  45.8572640
  77.7685687  33.2923211  45.7197091  76.6754443  33.2496751  46.7661982
  69.8010703  19.7106909  50.0791328  69.4607523  18.9114722  50.4812008
  69.0949709  20.0108619  49.5068161  70.4527175  16.7956221  48.5318651
  71.2753244  16.3216699  48.4097541  70.6965238  17.5746705  49.0317337
  69.0935409  19.8244479  38.8281552  69.8143772  20.2025732  38.3245269
  68.4700713  20.5433356  38.9316530  73.2366532  20.5289628  39.7639885
  73.4530146  21.4114266  39.4628713  72.7560599  20.1375842  39.0345527
  67.9765753  23.4875342  46.3410629  67.8310334  23.8015645  47.2334911
  67.4990957  24.1060242  45.7881528  69.8362136  20.4777890  46.3891519
  69.8223705  19.5818983  46.0523817  70.5534564  20.4848553  47.0229805
  71.6888267  20.9115230  48.4344646  71.4306045  21.8332300  48.4328977
  71.1573307  20.5145664  49.1245111  76.6334456  34.0166017  41.2134732
  76.8071333  33.4512439  40.4608584  77.1263347  34.8166912  41.0314222
  62.4511416  26.0280686  49.2798291  61.9064884  26.8040494  49.4118565
  63.3290765  26.3751490  49.1217412  69.2399032  19.3592270  41.6579089
  69.3614943  18.4308916  41.8569977  68.9501075  19.3730956  40.7457405
  72.1090223  17.0447180  44.7945809  72.1311919  17.1086513  43.8397788
  72.5258282  16.2051689  44.9886315  82.4873847  26.7802440  42.8325032
  82.9304993  26.0309765  42.4344155  81.6100357  26.7712576  42.4498763
  77.6209628  33.3332781  38.3131630  78.3160533  33.9539474  38.5318945
  77.9632778  32.4828133  38.5884008  63.2377437  25.1550582  52.1728447
  62.4959174  25.3033218  52.7593078  62.9170182  25.4158848  51.3095197
  79.5201051  30.7832487  39.8418961  80.0452376  31.1219760  39.1168281
  79.4323404  29.8479502  39.6582095  71.2041712  36.8504470  44.2014214
  70.7646702  36.3580849  44.8947071  71.9549829  36.3077438  43.9606289
  63.6834051  33.0416011  44.2038842  64.5092071  32.7419783  43.8237486
  63.3328103  32.2723633  44.6528631  68.6515584  32.3942479  46.2736516
  68.0295594  31.7313184  45.9738744  69.3220451  32.4203611  45.5910163
  61.8842656  30.9602337  45.1627776  61.0474565  30.5324512  44.9811777
  61.8566302  31.1534781  46.0998567  68.7240112  20.8724267  55.8669022
  68.7728267  21.7486390  55.4846791  69.2662626  20.3301660  55.2940665
  68.2129091  30.9446403  39.7494976  68.3617212  31.6281867  39.0961649
  69.0195535  30.9251493  40.2644432  82.0306712  28.2507678  45.2247479
  82.8653603  28.6897482  45.3885039  82.1665840  27.7746331  44.4055725
  65.9681724  26.9711580  40.7556045  65.7227766  26.0673910  40.9536255
  66.1377639  26.9728731  39.8135523  73.6578434  17.8435257  50.1380801
  74.1760378  18.5796283  49.8127289  73.3033567  18.1499250  50.9727560
  65.2377372  22.7039938  38.2542207  64.5446617  22.7784293  37.5982243
  64.9929124  21.9400281  38.7763723  73.9091028  14.2635539  45.6581697
  74.1892782  13.5958728  46.2842124  74.6941635  14.4564635  45.1456361
  71.7124497  33.4394533  37.2206724  71.1398464  34.0584720  36.7677195
  72.2857290  33.9893895  37.7546646  77.7799887  22.6853173  49.4053272
  78.7317310  22.7851271  49.4265496  77.6103337  21.8931442  49.9151357
  75.8014266  19.7708756  49.5912673  75.2064198  20.0513769  48.8959162
  75.5163963  20.2602657  50.3629414  74.9321757  33.7231683  38.3515306
  75.8652430  33.6577245  38.5548181  74.8444969  34.5587950  37.8929839
  77.5609773  33.0397553  35.3119253  77.4823405  32.7057417  36.2055011
  78.3819440  33.5319321  35.3110726  72.0971295  24.7755346  34.5622776
  73.0430400  24.6461554  34.6311194  71.7185540  24.0370008  35.0392204
  78.0693180  16.4411352  44.5249668  77.8718001  16.1326440  45.4093000
  78.6792885  17.1672991  44.6547598  86.0764514  26.9675300  47.6601609
  86.8067903  26.7060588  48.2209312  85.4671460  26.2304022  47.7003677
  70.2814212  22.7005322  34.4977661  69.3745668  22.4038435  34.5740375
  70.5590193  22.4035140  33.6311948  61.1992153  24.0211686  44.9476708
  60.8794937  23.1676994  44.6551082  60.6525581  24.2360264  45.7034675
  64.9772060  26.7374127  48.6646214  65.1958070  27.6691234  48.6834248
  65.3897834  26.3782101  49.4501018  71.8976278  17.2442212  40.6521903
  71.0877006  16.8989297  41.0277149  72.5860695  16.9349756  41.2409514
  73.8266826  16.3220259  42.2746199  74.3797865  16.7415712  42.9336222
  74.0636913  15.3956007  42.3169155  69.8499926  22.3107332  58.0548963
  69.7496653  23.2601689  57.9861054  69.6321468  21.9825571  57.1825033
  69.0512997  19.5592257  34.6389641  69.9132161  19.8847156  34.8985458
  69.2363341  18.7723753  34.1262706  61.0680413  27.6414597  46.9169829
  60.3743884  27.2268550  46.4039784  61.8153404  27.6835134  46.3203248
  77.2045634  18.4320784  41.7824864  76.6244303  19.0905588  41.4002916
  76.9381566  17.6098128  41.3712281  75.6549200  17.8325842  43.9846184
  76.1548978  17.9442376  43.1760503  76.2984808  17.5286894  44.6246992
  69.7131196  25.7404471  56.8714025  69.2298277  26.5404831  57.0777914
  69.7992135  25.7512416  55.9181469  62.9817155  27.5732851  44.7935844
  62.9587843  27.6720538  43.8417727  63.2917792  28.4198002  45.1153010
  65.6404533  29.6309006  48.9082459  66.5947787  29.5992948  48.8412390
  65.4417057  29.1699630  49.7232685  75.9870512  20.5920874  40.8381212
  75.0996367  20.8770525  40.6201407  76.4024501  20.4314638  39.9908489
  79.3385048  20.6167395  44.5535551  80.1145438  21.1063848  44.8260168
  78.6133182  21.0425449  45.0107421  81.7757606  21.3295014  45.6109492
  82.3702097  21.0890750  44.9002800  81.8484190  20.6102145  46.2383028
  63.9954762  35.1728625  45.9252657  63.8609230  34.4129026  45.3590655
  63.5786824  35.8969525  45.4581445  75.1313725  30.3565549  34.9329232
  75.8349575  30.5615551  35.5486887  74.4076374  30.9242311  35.1978315
  75.9611535  26.1075410  41.0531502  75.9046737  26.5643962  40.2139134
  76.5139878  25.3466095  40.8754345  79.7716341  21.8965142  41.8781621
  79.5153275  21.4961778  42.7089829  79.1469209  22.6108936  41.7531761
  84.0828679  24.6361215  44.3852913  83.5228237  24.7054405  45.1584475
  83.4772182  24.4602200  43.6652409  67.1523888  36.0697942  46.1371099
  67.0356272  37.0143375  46.0349789  66.3316334  35.7671504  46.5256898
  77.0400422  30.7948078  36.9827692  77.8746026  30.3629277  36.8005167
  76.8784765  30.6230092  37.9104586  76.6946315  27.2980191  38.3484031
  76.6395118  27.1324463  37.4072475  76.0692370  28.0056224  38.5046221
  61.4838830  22.5348256  52.1745453  62.1297693  22.0247210  52.6632679
  61.2755981  23.2716937  52.7488879  70.0042440  16.7988300  37.9269350
  69.9921110  17.7430140  38.0837620  70.8965862  16.6158446  37.6328811
  68.1778402  36.7226204  49.3527028  69.0805649  36.7549815  49.6693523
  67.9515772  35.7926655  49.3673363  69.9332004  35.4757191  46.0137106
  68.9827635  35.4759052  45.9001478  70.2364490  34.7289925  45.4973141
  73.8194560  13.3931077  42.1815286  73.0526955  12.8389564  42.3271969
  74.2305264  13.4652946  43.0429438  65.8236321  19.6815873  56.2720468
  66.6867782  19.3252678  56.4823792  65.2501731  19.3429768  56.9595872
  85.6684697  41.3117729  47.0782869  86.3063107  41.1924477  46.3746209
  85.5505540  42.2598573  47.1370821  78.3361219  43.1180634  43.0041284
  77.7726085  43.0270571  42.2357572  78.2213615  42.2980538  43.4843777
  83.9160778  46.7851601  38.3155749  83.2648758  47.3705682  37.9289763
  84.7105141  47.3157796  38.3750787  77.8416405  43.8740739  38.7142883
  78.6147281  43.3269726  38.5755759  78.1941804  44.7384988  38.9257345
  79.6801448  45.2017121  51.9209783  79.3891314  46.1062752  51.8056449
  80.3158432  45.2433648  52.6353852  80.6057655  42.5793969  48.5111142
  81.2021227  42.3549992  47.7968105  80.6632626  41.8378715  49.1136590
  80.1782683  40.0333405  36.3461333  80.4308204  39.5114926  35.5844796
  79.2407242  39.8699550  36.4488017  85.2225966  39.0369183  44.1536077
  86.0089055  38.6188606  43.8026494  85.4864670  39.9415275  44.3217725
  85.3936043  44.4742033  38.8524733  84.7581876  44.5476660  39.5645638
  85.0633450  45.0635632  38.1743813  90.6234393  38.9744416  45.0569055
  91.3559565  38.4043633  45.2906885  89.8673749  38.5866017  45.4975561
  79.8978972  41.9361511  38.5485708  79.7815230  41.2606414  39.2166793
  80.0081232  41.4493885  37.7317861  82.2410513  41.3971658  42.2532398
  81.8768720  40.8702279  42.9645319  83.0977629  41.0070127  42.0798883
  81.8816000  36.4261557  37.2493746  82.0490402  37.2941794  37.6164217
  81.6913169  36.5888839  36.3255035  84.6391333  44.8878536  48.9159576
  84.3392056  45.7903575  48.8075384  84.2942393  44.6210720  49.7680729
  88.0388477  37.4061077  46.5957014  87.1305354  37.3376485  46.3015775
  87.9876073  37.8833021  47.4238839  81.8605221  38.8819215  38.2340413
  81.7404846  39.3276266  39.0725893  81.1657809  39.2304533  37.6753951
  79.6212113  51.6522857  41.8830544  79.5436142  52.6030682  41.9619025
  79.0173756  51.3068729  42.5405470  87.5590287  39.3540688  39.0620747
  88.4708143  39.5868075  38.8868445  87.0499934  39.9377732  38.4995826
  85.8431055  43.7765316  52.6982040  86.2514411  43.3347726  51.9536672
  85.1208316  43.2017943  52.9516232  82.1962125  38.7137923  50.0715597
  83.0423320  39.1377336  50.2150246  82.1360762  38.0571547  50.7654160
  86.1659869  44.3366507  46.4534328  85.5368732  44.5012221  45.7510396
  85.7785531  44.7508116  47.2245292  90.0449101  45.2720944  43.8078692
  89.3600139  45.6519846  43.2575726  90.1292950  45.8816271  44.5410640
  87.3000033  42.9180903  50.4074036  87.5116928  43.5612663  49.7308417
  87.2529781  42.0843220  49.9395966  84.9026262  35.5298724  47.3110608
  84.0410741  35.8279978  47.6027345  84.9288696  35.7469123  46.3791641
  81.7187831  44.0740915  43.7184414  82.1826177  44.3528618  42.9289036
  81.4544629  43.1724359  43.5357504  78.6111912  43.6212396  46.6564177
  79.1813269  44.0499665  46.0181661  79.2020024  43.3394981  47.3548362
  80.6556717  40.1964067  40.5273979  81.3580760  40.6485111  40.9947905
  80.3237346  39.5547886  41.1553872  82.1802464  45.3436902  50.7357104
  82.2446897  45.8057309  51.5715275  81.4713388  44.7134267  50.8639413
  81.8950482  47.0105010  40.6036084  81.7596156  47.8556545  41.0320932
  82.4360294  47.2124287  39.8402018  77.1574764  47.6446204  43.2586762
  77.3341392  48.5664169  43.0707746  77.9531597  47.3304623  43.6881142
  82.0773250  45.4275506  53.6041336  82.6101587  44.6663794  53.3740644
  81.5487331  45.1349157  54.3465490  85.2093228  40.5244183  37.6407412
  84.6939851  41.2948787  37.8795800  84.9370536  39.8509319  38.2640474
  82.7940339  35.3693883  42.6992651  81.9381935  34.9800734  42.5198290
  83.2067291  35.4485844  41.8392436  84.3239486  32.9040227  47.0984211
  83.8204281  32.8670362  46.2852016  84.6170093  33.8132969  47.1580867
  80.5682372  32.9878956  46.1050392  81.4335368  32.7921765  45.7456282
  80.6359880  32.7589308  47.0319749  90.1827502  43.2776537  39.5760586
  89.4056945  42.9387697  39.1315748  90.8618983  43.2829160  38.9015551
  84.9979531  38.3971275  39.4667194  84.6929667  38.7117424  40.3177337
  85.9509973  38.4752695  39.5094527  83.4425963  44.5561498  41.1160148
  82.9147325  43.8214258  40.8033385  82.9413466  45.3336174  40.8700116
  88.4218809  42.7510519  46.2327194  87.7642483  43.4409780  46.3207323
  89.2259208  43.1406950  46.5761180  78.1744691  35.2181164  43.4766759
  78.7488443  34.9956346  42.7439952  78.7615673  35.2869859  44.2295360
  87.2324268  41.1054891  44.2831136  87.7456150  41.7384883  44.7852845
  87.8825492  40.5056087  43.9174496  78.5014278  37.2485625  37.4962644
  77.6651590  37.5860312  37.8171919  78.3619047  37.1134605  36.5589781
  80.4767358  32.0922413  42.2041829  79.8231771  31.7771430  41.5798443
  80.4347832  31.4698154  42.9301652  81.5878563  42.3741708  34.1195121
  80.6805625  42.1430962  34.3186270  82.0849595  41.5779328  34.3069102
  84.4946642  51.0839216  37.0391807  83.8208341  51.3870912  37.6476765
  84.8812464  51.8868296  36.6897264  83.7105099  38.5804347  46.5289476
  82.7927660  38.8019294  46.3711164  84.1265242  38.6550657  45.6701184
  84.4940146  39.9795762  41.6592156  85.2411965  40.4917160  41.3499279
  84.7631736  39.6579815  42.5196550  82.7666797  42.4754303  38.6419111
  81.8578016  42.1913336  38.7391581  82.7961880  42.8953382  37.7822418
  87.9986064  46.0860893  42.4110278  87.5448391  45.2451803  42.4675469
  87.3680031  46.7222291  42.7485058  86.9418984  37.0152879  43.6410946
  86.2041740  36.5030265  43.9721188  87.1945757  36.5753260  42.8294223
  86.4419003  47.9237389  43.3460096  86.7341978  48.4842446  42.6272462
  86.9517624  48.2165950  44.1013256  87.0430611  29.7929131  44.2352715
  87.3489488  28.9326494  43.9478630  87.7683216  30.3846751  44.0351709
  81.3151691  40.0882924  44.7428906  81.3700300  39.1356760  44.6671383
  80.5042893  40.2442363  45.2270205  82.4642884  44.0163047  35.9807189
  82.0262314  43.2998906  35.5212827  83.2053325  44.2439162  35.4192281
  79.2544051  38.7059984  42.5019285  78.4411916  39.0054154  42.9084477
  79.7503045  38.3115672  43.2193767  81.4052628  48.7017740  44.4353550
  81.3628807  48.9278587  43.5062082  82.3215327  48.4681115  44.5839351
  84.8518262  39.1701808  51.3334179  85.2067650  39.3973281  52.1928645
  85.4990394  39.5020185  50.7111434  90.5815999  42.2920244  42.0383508
  90.4433898  42.4821840  41.1104697  90.2252218  43.0539627  42.4951559
  79.5218429  45.5780769  44.2315512  80.3159028  45.0831090  44.0298087
  78.8110122  45.0498633  43.8683218  75.8301193  39.7223851  40.3075265
  74.8998781  39.6608307  40.5245227  75.9258665  39.1999804  39.5111906
  75.7486742  36.2478664  42.8953507  76.0093559  37.1623997  42.7862667
  76.5703914  35.7803107  43.0450120  86.5316037  44.5527214  55.1568545
  86.3801543  44.3237766  54.2398629  86.5220717  45.5097816  55.1699890
  83.3001373  42.1259127  50.1414812  84.2293433  42.2770287  49.9683779
  82.8792403  42.2143148  49.2863458  82.0989705  46.1509791  47.9113349
  81.9600791  45.7828576  48.7839288  81.3104301  46.6657431  47.7397307
  82.6937857  51.2518888  39.2538886  82.8689613  50.7806931  40.0684509
  82.0070645  51.8784654  39.4820147  83.6494920  45.5291394  45.3002187
  83.3144753  45.4892164  46.1959837  83.1498866  44.8636110  44.8272598
  77.6239164  40.9359024  50.8254768  77.4858962  40.2039263  51.4266307
  78.5344088  40.8467924  50.5438956  86.5854112  42.8747428  35.5739247
  85.9683283  42.1494257  35.4772300  86.1170601  43.6356789  35.2306321
  80.2521465  40.6478984  50.3138448  80.9621084  40.0072176  50.2725067
  80.2090773  40.8991878  51.2364629  77.2598943  54.4008251  46.0278746
  77.4995541  55.0326775  46.7057765  76.4168139  54.0496291  46.3144105
  78.3752658  37.0932853  34.6960551  77.4982124  36.9721654  34.3322798
  78.8510411  36.3018931  34.4439440  81.5616584  49.4459143  41.9423072
  80.7784106  49.9880823  42.0361296  82.2609329  49.9633123  42.3417313
  84.8713234  35.2553773  44.5857277  85.3681934  34.5023735  44.2658347
  84.1000216  35.2918089  44.0200486  92.7242992  40.9594138  46.2275569
  92.7132868  41.8418854  45.8569502  91.8560371  40.6065689  46.0330106
  85.9543015  44.0125460  42.1595700  85.0199294  44.1326922  41.9900405
  86.1319683  43.1097927  41.8955710  81.4548203  37.3971156  44.3128962
  81.0845990  36.8442196  45.0009867  81.9507295  36.7929289  43.7603962
  89.3415566  39.8542779  42.6945735  89.8076018  40.6870771  42.6206037
  89.7923067  39.3887761  43.3990993  87.4091797  46.1986600  39.6931887
  87.6851641  46.0843195  40.6025761  86.5396296  45.8004085  39.6544060
  87.0838687  40.4113258  49.2336530  86.4310138  40.6589166  48.5788983
  87.4619067  39.5977396  48.8999007  84.0445861  50.4472951  43.3364700
  84.2268256  49.6294607  43.7992453  84.8678847  50.6640644  42.8989590
  84.3788027  49.3741136  40.5979749  84.9075793  48.8633591  39.9849911
  84.6416246  49.0583667  41.4625282  77.7343775  50.4256253  43.3577525
  77.0654150  50.9102381  42.8741565  77.5956644  50.6725474  44.2720903
  76.6325599  36.7630705  46.1201005  75.9112185  37.3766672  45.9808479
  77.4218855  37.2988469  46.0417651  74.8319193  36.3688806  40.2612782
  74.5031900  35.4886185  40.0787888  75.1858564  36.3136474  41.1489171
  84.0798772  48.0043708  44.7707768  83.9323735  47.0760416  44.9515338
  84.9052266  48.0263799  44.2864843  77.9461017  36.6561775  40.6288260
  78.2857089  37.1847697  39.9066868  78.3933137  36.9942182  41.4046826
  79.9329164  35.1536397  38.8281552  80.6537526  35.5317650  38.3245269
  79.3094468  35.8725274  38.9316530  84.0760287  35.8581546  39.7639885
  84.2923901  36.7406184  39.4628713  83.5954354  35.4667759  39.0345527
  78.8159508  38.8167259  46.3410629  78.6704089  39.1307562  47.2334911
  78.3384712  39.4352160  45.7881528  80.6755891  35.8069807  46.3891519
  80.6617460  34.9110901  46.0523817  81.3928319  35.8140471  47.0229805
  82.5282022  36.2407147  48.4344646  82.2699799  37.1624218  48.4328977
  81.9967062  35.8437582  49.1245111  80.0792787  34.6884188  41.6579089
  80.2008698  33.7600834  41.8569977  79.7894829  34.7022874  40.7457405
  82.9483977  32.3739098  44.7945809  82.9705674  32.4378431  43.8397788
  83.3652036  31.5343607  44.9886315  93.3267601  42.1094358  42.8325032
  93.7698748  41.3601683  42.4344155  92.4494112  42.1004494  42.4498763
  88.4603383  48.6624699  38.3131630  89.1554287  49.2831392  38.5318945
  88.8026533  47.8120050  38.5884008  90.3594806  46.1124405  39.8418961
  90.8846130  46.4511677  39.1168281  90.2717158  45.1771420  39.6582095
  82.0435467  52.1796388  44.2014214  81.6040457  51.6872767  44.8947071
  82.7943584  51.6369355  43.9606289  79.4909339  47.7234397  46.2736516
  78.8689348  47.0605102  45.9738744  80.1614206  47.7495529  45.5910163
  90.1686587  43.5949775  52.4602887  90.2184592  43.4299782  53.4018410
  90.0600510  42.7277034  52.0700768  79.0522846  46.2738320  39.7494976
  79.2010966  46.9573785  39.0961649  79.8589289  46.2543410  40.2644432
  89.9191972  41.1379331  51.1724967  90.3946094  41.3306977  50.3643818
  88.9957537  41.1938517  50.9268350  76.8075479  42.3003498  40.7556045
  76.5621521  41.3965828  40.9536255  76.9771393  42.3020648  39.8135523
  76.0771126  38.0331855  38.2542207  75.3840371  38.1076210  37.5982243
  75.8322878  37.2692199  38.7763723  84.7484783  29.5927457  45.6581697
  85.0286537  28.9250646  46.2842124  85.5335390  29.7856552  45.1456361
  82.5518251  48.7686451  37.2206724  81.9792218  49.3876638  36.7677195
  83.1251045  49.3185812  37.7546646  85.7715511  49.0523601  38.3515306
  86.7046184  48.9869162  38.5548181  85.6838724  49.8879868  37.8929839
  88.4003528  48.3689471  35.3119253  88.3217159  48.0349335  36.2055011
  89.2213195  48.8611239  35.3110726  91.0981719  41.2351210  48.5195572
  91.0658039  40.2967211  48.7055256  91.7082343  41.3135247  47.7861397
  82.9365050  40.1047263  34.5622776  83.8824154  39.9753472  34.6311194
  82.5579295  39.3661925  35.0392204  88.9086934  31.7703269  44.5249668
  88.7111755  31.4618358  45.4093000  89.5186640  32.4964908  44.6547598
  94.9973566  40.4375080  48.2576060  94.2706729  40.3031045  47.6492552
  94.5820853  40.7451909  49.0632778  81.1207967  38.0297240  34.4977661
  80.2139422  37.7330353  34.5740375  81.3983948  37.7327058  33.6311948
  82.7370033  32.5734130  40.6521903  81.9270761  32.2281215  41.0277149
  83.4254450  32.2641673  41.2409514  84.6660581  31.6512176  42.2746199
  85.2191620  32.0707630  42.9336222  84.9030667  30.7247924  42.3169155
  79.8906752  34.8884175  34.6389641  80.7525916  35.2139073  34.8985458
  80.0757096  34.1015671  34.1262706  88.0439388  33.7612702  41.7824864
  87.4638057  34.4197506  41.4002916  87.7775321  32.9390046  41.3712281
  86.4942954  33.1617759  43.9846184  86.9942733  33.2734294  43.1760503
  87.1378562  32.8578812  44.6246992  77.0697670  43.5302040  51.4753256
  77.8890559  44.0246118  51.4988094  77.3434478  42.6134008  51.4470824
  86.8264266  35.9212792  40.8381212  85.9390121  36.2062443  40.6201407
  87.2418255  35.7606555  39.9908489  90.1778802  35.9459313  44.5535551
  90.9539192  36.4355765  44.8260168  89.4526936  36.3717367  45.0107421
  92.6151361  36.6586932  45.6109492  93.2095852  36.4182668  44.9002800
  92.6877944  35.9394063  46.2383028  85.9707479  45.6857467  34.9329232
  86.6743330  45.8907469  35.5486887  85.2470128  46.2534228  35.1978315
  86.8005290  41.4367328  41.0531502  86.7440491  41.8935879  40.2139134
  87.3533632  40.6758012  40.8754345  90.6110096  37.2257060  41.8781621
  90.3547030  36.8253695  42.7089829  89.9862964  37.9400854  41.7531761
  94.9222434  39.9653133  44.3852913  94.3621992  40.0346322  45.1584475
  94.3165937  39.7894118  43.6652409  87.8794177  46.1239996  36.9827692
  88.7139781  45.6921194  36.8005167  87.7178520  45.9522009  37.9104586
  87.5340069  42.6272109  38.3484031  87.4788873  42.4616380  37.4072475
  86.9086124  43.3348142  38.5046221  80.8436195  32.1280218  37.9269350
  80.8314864  33.0722058  38.0837620  81.7359616  31.9450363  37.6328811
  84.6588314  28.7222995  42.1815286  83.8920710  28.1681481  42.3271969
  85.0699019  28.7944863  43.0429438  80.7348553  57.2101930  44.7902058
  81.4219592  56.8963660  44.2023074  80.5796681  58.1143295  44.5169310
  83.9425106  54.0166626  40.1373457  84.2378547  53.1077304  40.0840511
  83.0413142  53.9954365  39.8154459  99.2397282  63.6981389  35.3119253
  99.1610914  63.3641252  36.2055011 100.0606949  64.1903157  35.3110726
  82.8779662  54.6795521  44.9476708  82.5582446  53.8260829  44.6551082
  82.3313090  54.8944099  45.7034675  90.7300506  50.2176093  34.6389641
  91.5919670  50.5430991  34.8985458  90.9150850  49.4307589  34.1262706
  98.7187931  61.4531913  36.9827692  99.5533535  61.0213112  36.8005167
  98.5572274  61.2813927  37.9104586  91.6829949  47.4572136  37.9269350
  91.6708619  48.4013976  38.0837620  92.5753371  47.2742281  37.6328811
 105.5948287  77.4435437  38.3155749 104.9436267  78.0289517  37.9289763
 106.3892650  77.9741632  38.3750787 107.0723552  75.1325869  38.8524733
 106.4369385  75.2060495  39.5645638 106.7420959  75.7219468  38.1743813
 112.3021902  69.6328252  45.0569055 113.0347074  69.0627468  45.2906885
 111.5461258  69.2449852  45.4975561 109.7175986  68.0644912  46.5957014
 108.8092863  67.9960320  46.3015775 109.6663582  68.5416857  47.4238839
 111.5837632  66.2661350  48.3734888 110.9412012  66.5593883  47.7274682
 111.0792561  66.1514271  49.1788084 109.2377796  70.0124523  39.0620747
 110.1495652  70.2451910  38.8868445 108.7287443  70.5961568  38.4995826
 111.7236610  75.9304780  43.8078692 111.0387648  76.3103681  43.2575726
 111.8080459  76.5400106  44.5410640 107.0249079  67.0326126  51.7296770
 106.7810011  67.7868187  51.1931046 107.3009009  67.4111474  52.5644017
 106.5813771  66.1882559  47.3110608 105.7198250  66.4863813  47.6027345
 106.6076205  66.4052958  46.3791641 102.3344226  70.8547902  40.5273979
 103.0368269  71.3068946  40.9947905 102.0024855  70.2131721  41.1553872
 100.7824588  69.4459659  54.9025188 100.1523248  70.1275940  55.1360585
 100.6760675  69.3342741  53.9578326 118.1839363  72.7975443  44.9281365
 117.4303071  72.2282841  44.7725369 118.3186904  72.7638107  45.8751999
  98.1214629  70.3494671  53.1348925  98.0068144  69.4479928  53.4356024
  97.2659147  70.5958368  52.7833742 106.8880737  71.1828018  37.6407412
 106.3727360  71.9532623  37.8795800 106.6158045  70.5093154  38.2640474
 111.8615011  73.9360373  39.5760586 111.0844454  73.5971532  39.1315748
 112.5406492  73.9412996  38.9015551 106.6767040  69.0555110  39.4667194
 106.3717176  69.3701259  40.3177337 107.6297482  69.1336530  39.5094527
 103.2666072  73.0325544  34.1195121 102.3593134  72.8014797  34.3186270
 103.7637104  72.2363163  34.3069102 106.1734151  81.7423051  37.0391807
 105.4995850  82.0454748  37.6476765 106.5599973  82.5452131  36.6897264
 106.1727655  70.6379598  41.6592156 106.9199474  71.1500995  41.3499279
 106.4419245  70.3163651  42.5196550 104.4454306  73.1338139  38.6419111
 103.5365525  72.8497171  38.7391581 104.4749389  73.5537217  37.7822418
 109.6773573  76.7444728  42.4110278 109.2235900  75.9035638  42.4675469
 109.0467540  77.3806126  42.7485058 108.6206493  67.6736714  43.6410946
 107.8829249  67.1614100  43.9721188 108.8733266  67.2337096  42.8294223
 104.1430393  74.6746882  35.9807189 103.7049823  73.9582741  35.5212827
 104.8840834  74.9022997  35.4192281 112.2603508  72.9504079  42.0383508
 112.1221407  73.1405675  41.1104697 111.9039727  73.7123462  42.4951559
 112.2872888  75.0180606  47.0494779 112.7209394  74.9255895  47.8977833
 113.0004469  74.9938107  46.4114795  98.8999176  68.3200257  50.0652331
  99.5722230  68.1117619  49.4164980  98.0728963  68.1222343  49.6257564
 113.1488437  75.0604307  49.5827665 113.3424327  75.9650117  49.8286940
 113.0489056  74.6011726  50.4166250 104.3725366  81.9102723  39.2538886
 104.5477122  81.4390766  40.0684509 103.6858154  82.5368489  39.4820147
 108.2641621  73.5331264  35.5739247 107.6470792  72.8078092  35.4772300
 107.7958109  74.2940624  35.2306321 100.6437908  68.2928037  52.1334088
 100.1075265  67.8418775  52.7855684 100.0554616  68.4273946  51.3904552
 114.4030500  71.6177973  46.2275569 114.3920377  72.5002689  45.8569502
 113.5347880  71.2649524  46.0330106 107.6330524  74.6709295  42.1595700
 106.6986803  74.7910758  41.9900405 107.8107192  73.7681762  41.8955710
 103.1335712  68.0554991  44.3128962 102.7633499  67.5026031  45.0009867
 103.6294804  67.4513124  43.7603962 111.0203075  70.5126614  42.6945735
 111.4863527  71.3454606  42.6206037 111.4710576  70.0471596  43.3990993
 109.0879306  76.8570436  39.6931887 109.3639150  76.7427030  40.6025761
 108.2183805  76.4587921  39.6544060 108.7626196  71.0697093  49.2336530
 108.1097647  71.3173001  48.5788983 109.1406576  70.2561232  48.8999007
 106.0575536  80.0324972  40.5979749 106.5863302  79.5217426  39.9849911
 106.3203755  79.7167502  41.4625282 102.3191966  65.6982662  50.0791328
 101.9788787  64.8990475  50.4812008 101.6130973  65.9984372  49.5068161
 100.4947017  69.4751095  46.3410629 100.3491598  69.7891398  47.2334911
 100.0172221  70.0935995  45.7881528 104.2069531  66.8990983  48.4344646
 103.9487308  67.8208053  48.4328977 103.6754571  66.5021417  49.1245111
 109.1515719  80.0041770  41.2134732 109.3252597  79.4388192  40.4608584
 109.6444611  80.8042665  41.0314222 115.0055110  72.7678193  42.8325032
 115.4486256  72.0185518  42.4344155 114.1281621  72.7588329  42.4498763
 110.1390892  79.3208534  38.3131630 110.8341796  79.9415227  38.5318945
 110.4814042  78.4703886  38.5884008 112.0382315  76.7708240  39.8418961
 112.5633639  77.1095513  39.1168281 111.9504667  75.8355255  39.6582095
 111.8474096  74.2533610  52.4602887 111.8972101  74.0883617  53.4018410
 111.7388019  73.3860869  52.0700768 103.4720664  67.6131393  52.6215380
 102.6023973  67.9064959  52.3497969 103.7080144  68.1971838  53.3422644
 114.5487975  74.2383431  45.2247479 115.3834867  74.6773235  45.3885039
 114.6847104  73.7622084  44.4055725 111.5979481  71.7963166  51.1724967
 112.0733603  71.9890812  50.3643818 110.6745046  71.8522352  50.9268350
 104.2305760  79.4270286  37.2206724 103.6579727  80.0460473  36.7677195
 104.8038554  79.9769648  37.7546646 110.2981150  68.6728926  49.4053272
 111.2498573  68.7727024  49.4265496 110.1284601  67.8807195  49.9151357
 108.3195530  65.7584509  49.5912673 107.7245462  66.0389522  48.8959162
 108.0345226  66.2478410  50.3629414 107.4503020  79.7107436  38.3515306
 108.3833693  79.6452998  38.5548181 107.3626233  80.5463703  37.8929839
 110.0791037  79.0273307  35.3119253 110.0004668  78.6933170  36.2055011
 110.9000703  79.5195074  35.3110726 112.7769228  71.8935046  48.5195572
 112.7445548  70.9551047  48.7055256 113.3869852  71.9719083  47.7861397
 104.6152559  70.7631099  34.5622776 105.5611663  70.6337307  34.6311194
 104.2366804  70.0245761  35.0392204 112.9263716  68.6846089  48.5653855
 112.4102765  67.9004546  48.3783784 113.8103665  68.3564806  48.7300375
 118.5945778  72.9551053  47.6601609 119.3249166  72.6936341  48.2209312
 117.9852723  72.2179775  47.7003677 116.6761075  71.0958915  48.2576060
 115.9494238  70.9614880  47.6492552 116.2608362  71.4035744  49.0632778
 101.5694261  65.5468010  34.6389641 102.4313425  65.8722909  34.8985458
 101.7544605  64.7599506  34.1262706 109.7226897  64.4196537  41.7824864
 109.1425566  65.0781341  41.4002916 109.4562830  63.5973881  41.3712281
 102.2312459  71.7280224  56.8714025 101.7479541  72.5280584  57.0777914
 102.3173398  71.7388169  55.9181469 108.5051775  66.5796627  40.8381212
 107.6177630  66.8646278  40.6201407 108.9205764  66.4190391  39.9908489
 111.8566311  66.6043148  44.5535551 112.6326701  67.0939601  44.8260168
 111.1314445  67.0301202  45.0107421 114.2938870  67.3170767  45.6109492
 114.8883361  67.0766503  44.9002800 114.3665453  66.5977898  46.2383028
 107.6494988  76.3441302  34.9329232 108.3530839  76.5491304  35.5486887
 106.9257637  76.9118064  35.1978315 108.4792799  72.0951163  41.0531502
 108.4228000  72.5519715  40.2139134 109.0321141  71.3341848  40.8754345
 112.2897605  67.8840895  41.8781621 112.0334539  67.4837531  42.7089829
 111.6650473  68.5984689  41.7531761 116.6009943  70.6236968  44.3852913
 116.0409500  70.6930158  45.1584475 115.9953446  70.4477953  43.6652409
 109.5581686  76.7823831  36.9827692 110.3927290  76.3505030  36.8005167
 109.3966029  76.6105845  37.9104586 109.2127578  73.2855944  38.3484031
 109.1576382  73.1200216  37.4072475 108.5873633  73.9931977  38.5046221
 116.4342042  92.7727354  38.3155749 115.7830021  93.3581435  37.9289763
 117.2286404  93.3033549  38.3750787 110.3597669  89.8616492  38.7142883
 111.1328545  89.3145479  38.5755759 110.7123068  90.7260741  38.9257345
 112.6963947  86.0209158  36.3461333 112.9489467  85.4990679  35.5844796
 111.7588506  85.8575303  36.4488017 117.7407229  85.0244936  44.1536077
 118.5270319  84.6064359  43.8026494 118.0045934  85.9291028  44.3217725
 117.9117307  90.4617786  38.8524733 117.2763140  90.5352413  39.5645638
 117.5814713  91.0511385  38.1743813 123.1415657  84.9620169  45.0569055
 123.8740829  84.3919386  45.2906885 122.3855012  84.5741770  45.4975561
 112.4160235  87.9237264  38.5485708 112.2996493  87.2482167  39.2166793
 112.5262495  87.4369638  37.7317861 120.6641077  78.6741743  49.5163664
 120.3324402  79.5437154  49.2924879 120.0686690  78.3578027  50.1957694
 114.3997263  82.4137310  37.2493746 114.5671666  83.2817547  37.6164217
 114.2094432  82.5764592  36.3255035 120.5569740  83.3936830  46.5957014
 119.6486618  83.3252238  46.3015775 120.5057336  83.8708774  47.4238839
 114.3786484  84.8694968  38.2340413 114.2586109  85.3152019  39.0725893
 113.6839073  85.2180286  37.6753951 112.1393376  97.6398610  41.8830544
 112.0617406  98.5906435  41.9619025 111.5355020  97.2944482  42.5405470
 122.4231387  81.5953268  48.3734888 121.7805767  81.8885801  47.7274682
 121.9186315  81.4806188  49.1788084 120.0771550  85.3416441  39.0620747
 120.9889406  85.5743828  38.8868445 119.5681197  85.9253485  38.4995826
 122.5630365  91.2596697  43.8078692 121.8781403  91.6395599  43.2575726
 122.6474214  91.8692024  44.5410640 117.8642833  82.3618044  51.7296770
 117.6203765  83.1160105  51.1931046 118.1402764  82.7403392  52.5644017
 117.4207525  81.5174477  47.3110608 116.5592004  81.8155731  47.6027345
 117.4469960  81.7344876  46.3791641 129.0233117  88.1267360  44.9281365
 128.2696826  87.5574758  44.7725369 129.1580658  88.0930025  45.8751999
 114.4131745  92.9980763  40.6036084 114.2777420  93.8432298  41.0320932
 114.9541558  93.2000040  39.8402018 107.8661143  90.5156201  41.1764009
 108.3785663  91.3099451  41.3269574 108.5183855  89.8182491  41.1097610
 117.7624209  76.5211325  49.1334977 117.4188478  77.4112966  49.0574088
 118.1303171  76.3312982  48.2704562 117.7274491  86.5119936  37.6407412
 117.2121115  87.2824540  37.8795800 117.4551800  85.8385072  38.2640474
 115.3121603  81.3569636  42.6992651 114.4563199  80.9676487  42.5198290
 115.7248554  81.4361597  41.8392436 116.8420749  78.8915980  47.0984211
 116.3385545  78.8546115  46.2852016 117.1351356  79.8008722  47.1580867
 113.0863635  78.9754709  46.1050392 113.9516632  78.7797518  45.7456282
 113.1541144  78.7465061  47.0319749 122.7008766  89.2652290  39.5760586
 121.9238208  88.9263450  39.1315748 123.3800247  89.2704913  38.9015551
 117.5160795  84.3847028  39.4667194 117.2110930  84.6993177  40.3177337
 118.4691237  84.4628448  39.5094527 110.6925954  81.2056917  43.4766759
 111.2669706  80.9832099  42.7439952 111.2796937  81.2745612  44.2295360
 111.0195541  83.2361378  37.4962644 110.1832853  83.5736065  37.8171919
 110.8800311  83.1010358  36.5589781 112.9948622  78.0798166  42.2041829
 112.3413034  77.7647183  41.5798443 112.9529096  77.4573907  42.9301652
 114.1059827  88.3617461  34.1195121 113.1986888  88.1306715  34.3186270
 114.6030859  87.5655081  34.3069102 117.0127906  97.0714969  37.0391807
 116.3389604  97.3746665  37.6476765 117.3993728  97.8744049  36.6897264
 117.0121410  85.9671515  41.6592156 117.7593229  86.4792913  41.3499279
 117.2812999  85.6455568  42.5196550 115.2848060  88.4630056  38.6419111
 114.3759279  88.1789089  38.7391581 115.3143144  88.8829135  37.7822418
 120.5167328  92.0736646  42.4110278 120.0629655  91.2327556  42.4675469
 119.8861294  92.7098044  42.7485058 119.4600247  83.0028632  43.6410946
 118.7223004  82.4906018  43.9721188 119.7127021  82.5629013  42.8294223
 119.5611874  75.7804884  44.2352715 119.8670751  74.9202247  43.9478630
 120.2864479  76.3722504  44.0351709 114.9824148  90.0038800  35.9807189
 114.5443578  89.2874659  35.5212827 115.7234589  90.2314915  35.4192281
 123.0997263  88.2795997  42.0383508 122.9615161  88.4697593  41.1104697
 122.7433482  89.0415380  42.4951559 119.0497301  90.5402967  55.1568545
 118.8982807  90.3113519  54.2398629 119.0401980  91.4973569  55.1699890
 115.2119121  97.2394641  39.2538886 115.3870876  96.7682684  40.0684509
 114.5251909  97.8660407  39.4820147 119.1035376  88.8623182  35.5739247
 118.4864546  88.1370010  35.4772300 118.6351864  89.6232542  35.2306321
 109.7780206 100.3884004  46.0278746 110.0176804 101.0202528  46.7057765
 108.9349402 100.0372044  46.3144105 110.8933921  83.0808606  34.6960551
 110.0163388  82.9597407  34.3322798 111.3691675  82.2894684  34.4439440
 114.0797847  95.4334896  41.9423072 113.2965369  95.9756576  42.0361296
 114.7790593  95.9508876  42.3417313 117.3894498  81.2429526  44.5857277
 117.8863197  80.4899488  44.2658347 116.6181479  81.2793842  44.0200486
 125.2424255  86.9469891  46.2275569 125.2314131  87.8294607  45.8569502
 124.3741634  86.5941442  46.0330106 113.9729466  83.3846909  44.3128962
 113.6027254  82.8317949  45.0009867 114.4688559  82.7805042  43.7603962
 121.8596830  85.8418532  42.6945735 122.3257282  86.6746524  42.6206037
 122.3104330  85.3763514  43.3990993 119.9273061  92.1862353  39.6931887
 120.2032905  92.0718948  40.6025761 119.0577559  91.7879838  39.6544060
 119.8313492  78.2099119  46.7336636 118.9176572  78.4403346  46.9018843
 120.2606594  78.2937563  47.5850668 115.6507524  87.1408822  55.7202567
 114.9748161  87.0402951  56.3904942 116.4735158  86.9848036  56.1838564
 114.3930307  98.4475750  49.9560183 114.9448615  98.6107371  50.7209268
 114.7336500  99.0380187  49.2840208 119.2441181  93.2737007  55.8108838
 119.7881085  93.8866965  55.3163792 118.6628026  93.8316586  56.3275851
 105.6212615  84.6750461  40.1373457 105.9166056  83.7661139  40.0840511
 104.7200651  84.6538201  39.8154459 107.3500457  82.3564559  40.2612782
 107.0213163  81.4761938  40.0787888 107.7039828  82.3012227  41.1489171
 110.4642280  82.6437529  40.6288260 110.8038353  83.1723450  39.9066868
 110.9114400  82.9817935  41.4046826 112.4510427  81.1412150  38.8281552
 113.1718790  81.5193403  38.3245269 111.8275731  81.8601027  38.9316530
 116.5941550  81.8457299  39.7639885 116.8105164  82.7281937  39.4628713
 116.1135617  81.4543512  39.0345527 119.9909474  95.3333688  41.2134732
 120.1646351  94.7680110  40.4608584 120.4838365  96.1334583  41.0314222
 112.5974050  80.6759941  41.6579089 112.7189961  79.7476587  41.8569977
 112.3076093  80.6898627  40.7457405 115.4665241  78.3614851  44.7945809
 115.4886937  78.4254184  43.8397788 115.8833300  77.5219360  44.9886315
 125.8448865  88.0970111  42.8325032 126.2880011  87.3477436  42.4344155
 124.9675375  88.0880247  42.4498763 120.9784646  94.6500452  38.3131630
 121.6735551  95.2707145  38.5318945 121.3207796  93.7995803  38.5884008
 122.8776069  92.1000158  39.8418961 123.4027393  92.4387430  39.1168281
 122.7898422  91.1647173  39.6582095 114.5616730  98.1672141  44.2014214
 114.1221720  97.6748520  44.8947071 115.3124847  97.6245109  43.9606289
 122.5669975  92.7333061  55.1470159 121.7765519  92.7157200  54.6074658
 122.3303330  93.2721355  55.9019195 111.5704109  92.2614073  39.7494976
 111.7192230  92.9449538  39.0961649 112.3770553  92.2419163  40.2644432
 119.9771613  85.5656456  53.7762194 120.8781476  85.4262920  53.4846192
 120.0519587  85.7310910  54.7160371 124.1886047  92.0022469  52.7044909
 123.8970856  92.3652450  53.5408370 123.5758179  91.2889477  52.5258241
 125.3881730  89.5675349  45.2247479 126.2228621  90.0065153  45.3885039
 125.5240858  89.0914002  44.4055725 117.0153452  79.1602927  50.1380801
 117.5335396  79.8963954  49.8127289 116.6608585  79.4666921  50.9727560
 108.5952390  84.0207608  38.2542207 107.9021635  84.0951963  37.5982243
 108.3504142  83.2567952  38.7763723 117.2666046  75.5803210  45.6581697
 117.5467800  74.9126399  46.2842124 118.0516653  75.7732305  45.1456361
 115.0699515  94.7562204  37.2206724 114.4973482  95.3752391  36.7677195
 115.6432308  95.3061565  37.7546646 121.1374905  84.0020844  49.4053272
 122.0892327  84.1018941  49.4265496 120.9678355  83.2099112  49.9151357
 119.1589284  81.0876427  49.5912673 118.5639216  81.3681440  48.8959162
 118.8738981  81.5770328  50.3629414 118.2896775  95.0399354  38.3515306
 119.2227448  94.9744916  38.5548181 118.2019987  95.8755621  37.8929839
 120.9184791  94.3565224  35.3119253 120.8398423  94.0225088  36.2055011
 121.7394458  94.8486992  35.3110726 123.6162982  87.2226963  48.5195572
 123.5839302  86.2842964  48.7055256 124.2263606  87.3011000  47.7861397
 115.4546313  86.0923016  34.5622776 116.4005418  85.9629225  34.6311194
 115.0760558  85.3537678  35.0392204 123.7657471  84.0138007  48.5653855
 123.2496519  83.2296464  48.3783784 124.6497419  83.6856724  48.7300375
 121.4268198  77.7579022  44.5249668 121.2293019  77.4494111  45.4093000
 122.0367903  78.4840661  44.6547598 129.4339532  88.2842970  47.6601609
 130.1642921  88.0228258  48.2209312 128.8246478  87.5471692  47.7003677
 127.5154829  86.4250833  48.2576060 126.7887993  86.2906798  47.6492552
 127.1002116  86.7327662  49.0632778 115.3385006  90.1440763  56.0223433
 116.2588015  90.3219362  56.2163480 115.3034589  89.1996808  55.8703132
 113.6389230  84.0172993  34.4977661 112.7320686  83.7206106  34.5740375
 113.9165211  83.7202811  33.6311948 115.2551296  78.5609883  40.6521903
 114.4452024  78.2156968  41.0277149 115.9435713  78.2517426  41.2409514
 117.1841844  77.6387929  42.2746199 117.7372883  78.0583383  42.9336222
 117.4211931  76.7123677  42.3169155 112.4088015  80.8759928  34.6389641
 113.2707179  81.2014826  34.8985458 112.5938359  80.0891424  34.1262706
 120.5620651  79.7488455  41.7824864 119.9819321  80.4073259  41.4002916
 120.2956584  78.9265799  41.3712281 119.0124218  79.1493512  43.9846184
 119.5123996  79.2610047  43.1760503 119.6559826  78.8454565  44.6246992
 119.3445529  81.9088545  40.8381212 118.4571385  82.1938196  40.6201407
 119.7599519  81.7482308  39.9908489 122.6960066  81.9335066  44.5535551
 123.4720456  82.4231518  44.8260168 121.9708200  82.3593120  45.0107421
 125.1332624  82.6462685  45.6109492 125.7277115  82.4058421  44.9002800
 125.2059208  81.9269816  46.2383028 118.4888743  91.6733220  34.9329232
 119.1924593  91.8783222  35.5486887 117.7651392  92.2409981  35.1978315
 119.3186553  87.4243081  41.0531502 119.2621755  87.8811632  40.2139134
 119.8714896  86.6633765  40.8754345 123.1291359  83.2132813  41.8781621
 122.8728293  82.8129448  42.7089829 122.5044227  83.9276607  41.7531761
 127.4403697  85.9528886  44.3852913 126.8803255  86.0222075  45.1584475
 126.8347200  85.7769871  43.6652409 120.3975440  92.1115749  36.9827692
 121.2321044  91.6796947  36.8005167 120.2359783  91.9397762  37.9104586
 120.0521333  88.6147862  38.3484031 119.9970136  88.4492134  37.4072475
 119.4267388  89.3223895  38.5046221 117.3667240  90.9196774  57.6737594
 118.2358399  91.0937426  57.3124229 116.8873991  91.7391191  57.5513323
 113.3617458  78.1155971  37.9269350 113.3496128  79.0597811  38.0837620
 114.2540880  77.9326117  37.6328811 111.5353420  98.0393875  49.3527028
 112.4380667  98.0717485  49.6693523 111.3090790  97.1094326  49.3673363
 113.2907022  96.7924862  46.0137106 112.3402653  96.7926723  45.9001478
 113.5939508  96.0457596  45.4973141 117.1769577  74.7098748  42.1815286
 116.4101973  74.1557234  42.3271969 117.5880282  74.7820617  43.0429438
 129.0259715 102.6285400  47.0782869 129.6638125 102.5092147  46.3746209
 128.9080558 103.5766244  47.1370821 125.8349422 102.5812828  47.0144393
 125.4967933 102.4653893  46.1264928 126.7039190 102.1803993  46.9945399
 121.6936237 104.4348304  43.0041284 121.1301103 104.3438241  42.2357572
 121.5788632 103.6148209  43.4843777 126.3169205 103.7347680  52.9730599
 126.3057845 103.3400478  52.1011102 126.4789844 103.0013752  53.5664370
 119.2400669 105.9299496  45.8425505 120.0321961 105.5890321  45.4271804
 119.4797320 106.0394471  46.7627658 127.2735796 108.1019272  38.3155749
 126.6223776 108.6873353  37.9289763 128.0680159 108.6325467  38.3750787
 121.1991423 105.1908409  38.7142883 121.9722299 104.6437396  38.5755759
 121.5516822 106.0552659  38.9257345 123.0376466 106.5184792  51.9209783
 122.7466332 107.4230422  51.8056449 123.6733450 106.5601319  52.6353852
 123.9632673 103.8961640  48.5111142 124.5596245 103.6717662  47.7968105
 124.0207644 103.1546386  49.1136590 123.5357701 101.3501075  36.3461333
 123.7883222 100.8282597  35.5844796 122.5982260 101.1867221  36.4488017
 128.5800984 100.3536854  44.1536077 129.3664073  99.9356277  43.8026494
 128.8439688 101.2582946  44.3217725 128.7511061 105.7909704  38.8524733
 128.1156894 105.8644331  39.5645638 128.4208468 106.3803303  38.1743813
 133.9809411 100.2912087  45.0569055 134.7134583  99.7211304  45.2906885
 133.2248767  99.9033687  45.4975561 123.2553990 103.2529181  38.5485708
 123.1390248 102.5774085  39.2166793 123.3656250 102.7661555  37.7317861
 125.5985531 102.7139328  42.2532398 125.2343738 102.1869949  42.9645319
 126.4552647 102.3237798  42.0798883 131.5034831  94.0033661  49.5163664
 131.1718156  94.8729072  49.2924879 130.9080445  93.6869945  50.1957694
 125.2391018  97.7429228  37.2493746 125.4065420  98.6109465  37.6164217
 125.0488187  97.9056510  36.3255035 127.9966351 106.2046207  48.9159576
 127.6967074 107.1071246  48.8075384 127.6517410 105.9378390  49.7680729
 131.3963495  98.7228747  46.5957014 130.4880372  98.6544156  46.3015775
 131.3451091  99.2000692  47.4238839 125.2180239 100.1986886  38.2340413
 125.0979864 100.6443936  39.0725893 124.5232827 100.5472203  37.6753951
 122.9787131 112.9690527  41.8830544 122.9011160 113.9198352  41.9619025
 122.3748774 112.6236400  42.5405470 125.4704361 100.1418393  54.5391911
 124.6937695 100.7012313  54.5294776 126.1094924 100.6275176  55.0606781
 133.2625141  96.9245186  48.3734888 132.6199521  97.2177719  47.7274682
 132.7580070  96.8098106  49.1788084 130.9165305 100.6708359  39.0620747
 131.8283161 100.9035746  38.8868445 130.4074952 101.2545403  38.4995826
 123.7250733 102.9503846  54.1009878 124.4665417 103.4888890  53.8244702
 123.0187718 103.5770135  54.2581430 129.2006072 105.0932987  52.6982040
 129.6089429 104.6515397  51.9536672 128.4783334 104.5185614  52.9516232
 125.5537143 100.0305593  50.0715597 126.3998338 100.4545007  50.2150246
 125.4935780  99.3739218  50.7654160 129.5234887 105.6534177  46.4534328
 128.8943750 105.8179891  45.7510396 129.1360549 106.0675787  47.2245292
 133.4024119 106.5888615  43.8078692 132.7175157 106.9687516  43.2575726
 133.4867968 107.1983942  44.5410640 128.7036588  97.6909962  51.7296770
 128.4597520  98.4452022  51.1931046 128.9796518  98.0695309  52.5644017
 130.6575051 104.2348574  50.4074036 130.8691946 104.8780334  49.7308417
 130.6104799 103.4010891  49.9395966 128.2601280  96.8466395  47.3110608
 127.3985759  97.1447648  47.6027345 128.2863714  97.0636794  46.3791641
 125.0762849 105.3908585  43.7184414 125.5401195 105.6696288  42.9289036
 124.8119647 104.4892030  43.5357504 121.9686930 104.9380067  46.6564177
 122.5388287 105.3667335  46.0181661 122.5595042 104.6562652  47.3548362
 124.0131735 101.5131738  40.5273979 124.7155778 101.9652781  40.9947905
 123.6812364 100.8715557  41.1553872 122.4612097 100.1043494  54.9025188
 121.8310757 100.7859775  55.1360585 122.3548184  99.9926576  53.9578326
 131.7720879 107.1120530  48.5796393 132.5938322 106.7100717  48.2979075
 131.7683281 107.0088764  49.5312509 125.5377482 106.6604573  50.7357104
 125.6021915 107.1224980  51.5715275 124.8288406 106.0301938  50.8639413
 139.8626872 103.4559278  44.9281365 139.1090580 102.8866676  44.7725369
 139.9974413 103.4221943  45.8751999 125.2525500 108.3272680  40.6036084
 125.1171174 109.1724216  41.0320932 125.7935312 108.5291958  39.8402018
 121.7392839  94.4064260  57.2650439 121.3459785  93.8530459  57.9398083
 122.5558980  94.7174839  57.6556957 118.7054897 105.8448118  41.1764009
 119.2179418 106.6391369  41.3269574 119.3577610 105.1474409  41.1097610
 120.5149782 108.9613875  43.2586762 120.6916410 109.8831839  43.0707746
 121.3106615 108.6472294  43.6881142 124.6560800  95.8222139  54.8570696
 125.3970514  96.4229292  54.7775158 124.8878723  95.0799777  54.2988738
 119.8002138 101.0078507  53.1348925 119.6855653 100.1063764  53.4356024
 118.9446656 101.2542203  52.7833742 126.8793976 108.9496247  54.7336426
 126.4357830 108.1632625  54.4157330 127.5411190 109.1375397  54.0680317
 121.6381097 110.4792048  49.2597104 122.1888522 110.3509112  48.4874098
 120.7992573 110.7786937  48.9091997 128.9775214 109.2299047  52.7617827
 128.9593689 110.0507928  52.2698096 129.8995134 109.1053122  52.9867968
 125.4348268 106.7443176  53.6041336 125.9676605 105.9831464  53.3740644
 124.9062349 106.4516828  54.3465490 128.6017963  91.8503242  49.1334977
 128.2582233  92.7404884  49.0574088 128.9696926  91.6604900  48.2704562
 116.6703814 104.1736773  41.9523580 117.5079036 104.5833781  41.7357287
 116.8482082 103.2336215  41.9223773 128.5668246 101.8411853  37.6407412
 128.0514869 102.6116458  37.8795800 128.2945554 101.1676989  38.2640474
 126.1515357  96.6861554  42.6992651 125.2956953  96.2968405  42.5198290
 126.5642309  96.7653515  41.8392436 127.6814504  94.2207897  47.0984211
 127.1779299  94.1838033  46.2852016 127.9745110  95.1300640  47.1580867
 133.5402520 104.5944208  39.5760586 132.7631963 104.2555367  39.1315748
 134.2194001 104.5996831  38.9015551 128.3554549  99.7138945  39.4667194
 128.0504685 100.0285095  40.3177337 129.3084991  99.7920365  39.5094527
 126.8000981 105.8729169  41.1160148 126.2722343 105.1381928  40.8033385
 126.2988484 106.6503845  40.8700116 131.7793827 104.0678189  46.2327194
 131.1217501 104.7577451  46.3207323 132.5834226 104.4574621  46.5761180
 130.5899286 102.4222562  44.2831136 131.1031168 103.0552554  44.7852845
 131.2400510 101.8223757  43.9174496 121.8589296  98.5653296  37.4962644
 121.0226608  98.9027983  37.8171919 121.7194065  98.4302276  36.5589781
 123.8342376  93.4090084  42.2041829 123.1806789  93.0939101  41.5798443
 123.7922850  92.7865824  42.9301652 124.9453581 103.6909379  34.1195121
 124.0380643 103.4598632  34.3186270 125.4424613 102.8946998  34.3069102
 127.8521660 112.4006886  37.0391807 127.1783359 112.7038583  37.6476765
 128.2387482 113.2035967  36.6897264 127.0680117  99.8972017  46.5289476
 126.1502678 100.1186964  46.3711164 127.4840260  99.9718328  45.6701184
 127.8515164 101.2963433  41.6592156 128.5986983 101.8084830  41.3499279
 128.1206754 100.9747486  42.5196550 126.1241815 103.7921974  38.6419111
 125.2153034 103.5081007  38.7391581 126.1536898 104.2121052  37.7822418
 131.3561082 107.4028563  42.4110278 130.9023409 106.5619473  42.4675469
 130.7255049 108.0389962  42.7485058 130.2994002  98.3320549  43.6410946
 129.5616758  97.8197936  43.9721188 130.5520775  97.8920931  42.8294223
 129.7994021 109.2405060  43.3460096 130.0916996 109.8010117  42.6272462
 130.3092642 109.5333621  44.1013256 130.4005629  91.1096801  44.2352715
 130.7064506  90.2494165  43.9478630 131.1258234  91.7014422  44.0351709
 116.6929985 101.5127488  42.6234313 116.4954385 100.9196849  41.8985380
 116.1376649 101.2079698  43.3410252 124.6726709 101.4050594  44.7428906
 124.7275318 100.4524431  44.6671383 123.8617911 101.5610034  45.2270205
 125.8217902 105.3330718  35.9807189 125.3837332 104.6166576  35.5212827
 126.5628343 105.5606832  35.4192281 124.7627646 110.0185411  44.4353550
 124.7203825 110.2446257  43.5062082 125.6790345 109.7848786  44.5839351
 128.2093280 100.4869479  51.3334179 128.5642668 100.7140952  52.1928645
 128.8565411 100.8187855  50.7111434 133.9391017 103.6087915  42.0383508
 133.8008916 103.7989511  41.1104697 133.5827236 104.3707297  42.4951559
 133.9660397 105.6764442  47.0494779 134.3996903 105.5839731  47.8977833
 134.6791977 105.6521942  46.4114795 122.8793447 106.8948440  44.2315512
 123.6734046 106.3998760  44.0298087 122.1685140 106.3666303  43.8683218
 127.6988292 109.2766536  48.5827880 127.7525314 109.8457472  49.3505596
 126.8303073 109.4468421  48.2181917 119.1876211 101.0391522  40.3075265
 118.2573799 100.9775977  40.5245227 119.2833683 100.5167475  39.5111906
 134.8275946 105.7188142  49.5827665 135.0211836 106.6233953  49.8286940
 134.7276565 105.2595561  50.4166250 126.4812257  95.6046033  52.0817992
 125.8340172  96.3035982  51.9882469 127.2513272  96.0382177  52.4494240
 129.8891055 105.8694885  55.1568545 129.7376561 105.6405437  54.2398629
 129.8795734 106.8265486  55.1699890 126.6576391 103.4426798  50.1414812
 127.5868451 103.5937957  49.9683779 126.2367421 103.5310819  49.2863458
 125.4564723 107.4677462  47.9113349 125.3175809 107.0996247  48.7839288
 124.6679319 107.9825102  47.7397307 126.0512875 112.5686559  39.2538886
 126.2264631 112.0974602  40.0684509 125.3645663 113.1952325  39.4820147
 127.0069938 106.8459065  45.3002187 126.6719771 106.8059835  46.1959837
 126.5073884 106.1803781  44.8272598 120.9814182 102.2526695  50.8254768
 120.8433980 101.5206934  51.4266307 121.8919106 102.1635595  50.5438956
 129.9429130 104.1915099  35.5739247 129.3258301 103.4661927  35.4772300
 129.4745618 104.9524459  35.2306321 123.6096483 101.9646654  50.3138448
 124.3196102 101.3239846  50.2725067 123.5665791 102.2159549  51.2364629
 131.5983262 108.9014008  53.2345027 131.5395808 108.2173228  52.5675610
 132.0002780 109.6432998  52.7825653 122.3225417  98.9511872  52.1334088
 121.7862774  98.5002611  52.7855684 121.7342125  99.0857781  51.3904552
 120.6173960 115.7175921  46.0278746 120.8570559 116.3494446  46.7057765
 119.7743157 115.3663961  46.3144105 121.7327676  98.4100524  34.6960551
 120.8557142  98.2889324  34.3322798 122.2085429  97.6186602  34.4439440
 131.6000669 106.8653591  51.4659007 130.7127448 106.5279513  51.5885406
 132.1699220 106.1336623  51.7027772 113.2529816 103.1977683  44.7902058
 113.9400856 102.8839413  44.2023074 113.0977945 104.1019048  44.5169310
 125.1301822 111.5255044  48.4320250 125.0571994 112.3310015  48.9439555
 124.6879215 111.7247010  47.6068272 124.9191602 110.7626814  41.9423072
 124.1359124 111.3048494  42.0361296 125.6184347 111.2800794  42.3417313
 128.2288252  96.5721443  44.5857277 128.7256952  95.8191406  44.2658347
 127.4575234  96.6085760  44.0200486 136.0818009 102.2761809  46.2275569
 136.0707886 103.1586524  45.8569502 135.2135389 101.9233360  46.0330106
 127.5900506 111.4241878  50.5878409 128.3028478 112.0589343  50.5154310
 127.0990534 111.5205744  49.7718411 129.3118033 105.3293131  42.1595700
 128.3774311 105.4494593  41.9900405 129.4894701 104.4265597  41.8955710
 124.8123221  98.7138826  44.3128962 124.4421008  98.1609867  45.0009867
 125.3082313  98.1096960  43.7603962 132.6990584 101.1710450  42.6945735
 133.1651036 102.0038441  42.6206037 133.1498085 100.7055431  43.3990993
 122.6412419 109.1736321  51.4083980 123.3421879 109.8072804  51.5613374
 122.1707534 109.5151053  50.6479619 130.7666815 107.5154271  39.6931887
 131.0426659 107.4010866  40.6025761 129.8971314 107.1171756  39.6544060
 130.6707247  93.5391037  46.7336636 129.7570327  93.7695264  46.9018843
 131.1000348  93.6229481  47.5850668 130.4413705 101.7280929  49.2336530
 129.7885156 101.9756836  48.5788983 130.8194085 100.9145067  48.8999007
 127.4020879 111.7640622  43.3364700 127.5843274 110.9462278  43.7992453
 128.2253865 111.9808314  42.8989590 127.7363045 110.6908807  40.5979749
 128.2650811 110.1801262  39.9849911 127.9991264 110.3751337  41.4625282
 126.4901278 102.4700740  55.7202567 125.8141915 102.3694869  56.3904942
 127.3128912 102.3139954  56.1838564 118.2380137 108.7072676  48.3415082
 118.8233574 107.9616364  48.4742987 118.0404976 109.0176633  49.2251746
 121.0918793 111.7423924  43.3577525 120.4229168 112.2270051  42.8741565
 120.9531662 111.9893144  44.2720903 112.8297792 101.2778277  47.0619525
 112.8681892 100.7441867  47.8556644 112.3238085 100.7513482  46.4430503
 125.2324061 113.7767667  49.9560183 125.7842369 113.9399289  50.7209268
 125.5730255 114.3672105  49.2840208 119.6840827  98.1965950  54.2055102
 120.3112866  97.8143027  54.8192626 118.8268746  97.9780152  54.5710795
 130.0834936 108.6028925  55.8108838 130.6274840 109.2158883  55.3163792
 129.5021780 109.1608503  56.3275851 116.4606370 100.0042379  40.1373457
 116.7559811  99.0953057  40.0840511 115.5594406  99.9830118  39.8154459
 128.3692449 111.7249643  46.9423865 128.2443588 110.9239383  46.4334811
 129.0271540 112.2195836  46.4537835 130.4327357 109.5258663  48.5703415
 129.4857692 109.4064014  48.4981742 130.7810130 108.6381161  48.6529677
 122.7926930  95.4152802  52.3941657 123.3161332  95.6615098  53.1567967
 122.5739264  96.2472837  51.9744795 118.1894211  97.6856476  40.2612782
 117.8606918  96.8053855  40.0787888 118.5433582  97.6304145  41.1489171
 127.4373790 109.3211379  44.7707768 127.2898753 108.3928087  44.9515338
 128.2627284 109.3431470  44.2864843 121.3036035  97.9729446  40.6288260
 121.6432107  98.5015367  39.9066868 121.7508155  98.3109852  41.4046826
 131.0407912 110.1439938  45.8572640 131.9654460 109.9382799  45.7197091
 130.8723215 109.8956339  46.7661982 123.9979475  96.3566497  50.0791328
 123.6576296  95.5574310  50.4812008 123.2918482  96.6568208  49.5068161
 123.2904182  96.4704068  38.8281552 124.0112544  96.8485321  38.3245269
 122.6669486  97.1892945  38.9316530 127.4335305  97.1749217  39.7639885
 127.6498919  98.0573855  39.4628713 126.9529372  96.7835430  39.0345527
 124.0330909  97.1237478  46.3891519 124.0192478  96.2278571  46.0523817
 124.7503337  97.1308142  47.0229805 125.8857040  97.5574818  48.4344646
 125.6274817  98.4791889  48.4328977 125.3542080  97.1605253  49.1245111
 130.8303228 110.6625605  41.2134732 131.0040106 110.0972028  40.4608584
 131.3232120 111.4626500  41.0314222 116.6480188 102.6740274  49.2798291
 116.1033656 103.4500082  49.4118565 117.5259538 103.0211079  49.1217412
 123.4367805  96.0051858  41.6579089 123.5583716  95.0768504  41.8569977
 123.1469847  96.0190544  40.7457405 126.3058995  93.6906769  44.7945809
 126.3280692  93.7546102  43.8397788 126.7227054  92.8511277  44.9886315
 136.6842619 103.4262028  42.8325032 137.1273765 102.6769353  42.4344155
 135.8069130 103.4172165  42.4498763 131.8178401 109.9792370  38.3131630
 132.5129305 110.5999062  38.5318945 132.1601551 109.1287721  38.5884008
 117.4346210 101.8010171  52.1728447 116.6927946 101.9492806  52.7593078
 117.1138954 102.0618436  51.3095197 133.7169824 107.4292075  39.8418961
 134.2421148 107.7679348  39.1168281 133.6292176 106.4939091  39.6582095
 125.3789873 111.3426149  51.9708837 125.6876999 111.0975296  52.8431537
 126.1765355 111.5472787  51.4827708 125.4010485 113.4964059  44.2014214
 124.9615475 113.0040437  44.8947071 126.1518602 112.9537026  43.9606289
 117.8802824 109.6875599  44.2038842 118.7060844 109.3879371  43.8237486
 117.5296876 108.9183222  44.6528631 122.8484357 109.0402068  46.2736516
 122.2264366 108.3772773  45.9738744 123.5189224 109.0663199  45.5910163
 116.0811429 107.6061926  45.1627776 115.2443337 107.1784100  44.9811777
 116.0535074 107.7994369  46.0998567 122.9208884  97.5183856  55.8669022
 122.9697040  98.3945978  55.4846791 123.4631398  96.9761249  55.2940665
 133.4063730 108.0624979  55.1470159 132.6159274 108.0449118  54.6074658
 133.1697085 108.6013273  55.9019195 133.5261605 104.9117445  52.4602887
 133.5759610 104.7467453  53.4018410 133.4175528 104.0444704  52.0700768
 122.4097864 107.5905991  39.7494976 122.5585984 108.2741455  39.0961649
 123.2164307 107.5711081  40.2644432 130.8165367 100.8948373  53.7762194
 131.7175230 100.7554838  53.4846192 130.8913342 101.0602828  54.7160371
 125.1508173  98.2715228  52.6215380 124.2811482  98.5648794  52.3497969
 125.3867653  98.8555673  53.3422644 135.0279802 107.3314387  52.7044909
 134.7364610 107.6944367  53.5408370 134.4151933 106.6181395  52.5258241
 136.2275484 104.8967267  45.2247479 137.0622376 105.3357071  45.3885039
 136.3634613 104.4205920  44.4055725 133.2766990 102.4547001  51.1724967
 133.7521112 102.6474648  50.3643818 132.3532555 102.5106187  50.9268350
 120.1650497 103.6171169  40.7556045 119.9196539 102.7133499  40.9536255
 120.3346411 103.6188319  39.8135523 127.8547207  94.4894845  50.1380801
 128.3729150  95.2255872  49.8127289 127.5002339  94.7958838  50.9727560
 119.4346144  99.3499526  38.2542207 118.7415389  99.4243881  37.5982243
 119.1897896  98.5859870  38.7763723 128.1059801  90.9095127  45.6581697
 128.3861554  90.2418317  46.2842124 128.8910408  91.1024223  45.1456361
 125.9093269 110.0854121  37.2206724 125.3367236 110.7044309  36.7677195
 126.4826063 110.6353483  37.7546646 131.9768659  99.3312761  49.4053272
 132.9286082  99.4310859  49.4265496 131.8072109  98.5391030  49.9151357
 129.9983039  96.4168345  49.5912673 129.4032971  96.6973357  48.8959162
 129.7132735  96.9062246  50.3629414 129.1290529 110.3691272  38.3515306
 130.0621202 110.3036833  38.5548181 129.0413742 111.2047538  37.8929839
 131.7578546 109.6857142  35.3119253 131.6792177 109.3517005  36.2055011
 132.5788212 110.1778910  35.3110726 134.4556737 102.5518881  48.5195572
 134.4233057 101.6134882  48.7055256 135.0657361 102.6302918  47.7861397
 126.2940068 101.4214934  34.5622776 127.2399172 101.2921142  34.6311194
 125.9154313 100.6829596  35.0392204 134.6051225  99.3429925  48.5653855
 134.0890274  98.5588381  48.3783784 135.4891174  99.0148641  48.7300375
 132.2661952  93.0870940  44.5249668 132.0686773  92.7786028  45.4093000
 132.8761658  93.8132579  44.6547598 140.2733287 103.6134888  47.6601609
 141.0036675 103.3520176  48.2209312 139.6640232 102.8763610  47.7003677
 138.3548584 101.7542751  48.2576060 137.6281747 101.6198716  47.6492552
 137.9395871 102.0619579  49.0632778 126.1778760 105.4732680  56.0223433
 127.0981770 105.6511279  56.2163480 126.1428343 104.5288726  55.8703132
 124.4782985  99.3464911  34.4977661 123.5714440  99.0498023  34.5740375
 124.7558966  99.0494729  33.6311948 115.3960925 100.6671274  44.9476708
 115.0763710  99.8136582  44.6551082 114.8494353 100.8819852  45.7034675
 119.1740833 103.3833715  48.6646214 119.3926843 104.3150823  48.6834248
 119.5866607 103.0241689  49.4501018 126.0945051  93.8901800  40.6521903
 125.2845779  93.5448885  41.0277149 126.7829468  93.5809344  41.2409514
 128.0235599  92.9679847  42.2746199 128.5766637  93.3875300  42.9336222
 128.2605685  92.0415595  42.3169155 124.0468698  98.9566921  58.0548963
 123.9465425  99.9061278  57.9861054 123.8290240  98.6285160  57.1825033
 123.2481769  96.2051846  34.6389641 124.1100933  96.5306744  34.8985458
 123.4332114  95.4183342  34.1262706 115.2649185 104.2874185  46.9169829
 114.5712657 103.8728138  46.4039784 116.0122176 104.3294722  46.3203248
 131.4014406  95.0780372  41.7824864 130.8213075  95.7365176  41.4002916
 131.1350339  94.2557717  41.3712281 129.8517972  94.4785430  43.9846184
 130.3517751  94.5901964  43.1760503 130.4953580  94.1746483  44.6246992
 123.9099968 102.3864060  56.8714025 123.4267050 103.1864420  57.0777914
 123.9960907 102.3972004  55.9181469 117.1785928 104.2192439  44.7935844
 117.1556616 104.3180126  43.8417727 117.4886564 105.0657590  45.1153010
 119.8373306 106.2768594  48.9082459 120.7916559 106.2452537  48.8412390
 119.6385829 105.8159218  49.7232685 120.4272688 104.8469710  51.4753256
 121.2465577 105.3413789  51.4988094 120.7009495 103.9301678  51.4470824
 130.1839284  97.2380463  40.8381212 129.2965139  97.5230113  40.6201407
 130.5993273  97.0774226  39.9908489 133.5353820  97.2626984  44.5535551
 134.3114210  97.7523436  44.8260168 132.8101954  97.6885038  45.0107421
 135.9726379  97.9754603  45.6109492 136.5670870  97.7350339  44.9002800
 136.0452962  97.2561733  46.2383028 118.1923534 111.8188214  45.9252657
 118.0578002 111.0588615  45.3590655 117.7755597 112.5429114  45.4581445
 129.3282497 107.0025137  34.9329232 130.0318348 107.2075140  35.5486887
 128.6045146 107.5701899  35.1978315 130.1580308 102.7534999  41.0531502
 130.1015509 103.2103550  40.2139134 130.7108650 101.9925683  40.8754345
 133.9685114  98.5424730  41.8781621 133.7122048  98.1421366  42.7089829
 133.3437982  99.2568524  41.7531761 138.2797451 101.2820804  44.3852913
 137.7197009 101.3513993  45.1584475 137.6740955 101.1061788  43.6652409
 121.3492660 112.7157531  46.1371099 121.2325044 113.6602963  46.0349789
 120.5285107 112.4131092  46.5256898 131.2369195 107.4407666  36.9827692
 132.0714799 107.0088865  36.8005167 131.0753538 107.2689680  37.9104586
 130.8915087 103.9439780  38.3484031 130.8363891 103.7784051  37.4072475
 130.2661142 104.6515813  38.5046221 115.6807602  99.1807844  52.1745453
 116.3266466  98.6706798  52.6632679 115.4724753  99.9176526  52.7488879
 128.2060994 106.2488692  57.6737594 129.0752154 106.4229344  57.3124229
 127.7267746 107.0683108  57.5513323 124.2011213  93.4447889  37.9269350
 124.1889882  94.3889729  38.0837620 125.0934634  93.2618034  37.6328811
 122.3747174 113.3685793  49.3527028 123.2774421 113.4009403  49.6693523
 122.1484545 112.4386244  49.3673363 124.1300776 112.1216779  46.0137106
 123.1796407 112.1218641  45.9001478 124.4333263 111.3749514  45.4973141
 128.0163332  90.0390665  42.1815286 127.2495728  89.4849152  42.3271969
 128.4274037  90.1112534  43.0429438 120.0205093  96.3275461  56.2720468
 120.8836555  95.9712266  56.4823792 119.4470504  95.9889356  56.9595872
 139.8653470 117.9577318  47.0782869 140.5031880 117.8384065  46.3746209
 139.7474313 118.9058162  47.1370821 136.6743176 117.9104746  47.0144393
 136.3361688 117.7945810  46.1264928 137.5432944 117.5095911  46.9945399
 132.5329992 119.7640222  43.0041284 131.9694857 119.6730159  42.2357572
 132.4182387 118.9440127  43.4843777 137.1562959 119.0639597  52.9730599
 137.1451600 118.6692396  52.1011102 137.3183599 118.3305670  53.5664370
 130.0794424 121.2591414  45.8425505 130.8715716 120.9182238  45.4271804
 130.3191074 121.3686389  46.7627658 132.0385178 120.5200327  38.7142883
 132.8116054 119.9729314  38.5755759 132.3910577 121.3844576  38.9257345
 133.8770220 121.8476709  51.9209783 133.5860086 122.7522340  51.8056449
 134.5127205 121.8893237  52.6353852 134.8026427 119.2253558  48.5111142
 135.3989999 119.0009580  47.7968105 134.8601399 118.4838303  49.1136590
 139.4194738 115.6828771  44.1536077 140.2057828 115.2648195  43.8026494
 139.6833443 116.5874864  44.3217725 134.0947744 118.5821099  38.5485708
 133.9784002 117.9066002  39.2166793 134.2050004 118.0953473  37.7317861
 136.4379285 118.0431246  42.2532398 136.0737493 117.5161867  42.9645319
 137.2946401 117.6529715  42.0798883 142.3428586 109.3325579  49.5163664
 142.0111911 110.2020990  49.2924879 141.7474199 109.0161863  50.1957694
 136.0784772 113.0721146  37.2493746 136.2459175 113.9401382  37.6164217
 135.8881941 113.2348428  36.3255035 138.8360105 121.5338125  48.9159576
 138.5360829 122.4363164  48.8075384 138.4911165 121.2670308  49.7680729
 132.2872587 117.9851922  44.9496281 131.3623083 117.8528136  45.1573973
 132.5357000 118.7646141  45.4466223 142.2357249 114.0520665  46.5957014
 141.3274127 113.9836073  46.3015775 142.1844845 114.5292610  47.4238839
 136.0573993 115.5278803  38.2340413 135.9373618 115.9735854  39.0725893
 135.3626582 115.8764121  37.6753951 129.6481398 117.6285195  45.7840070
 129.7773779 117.8819674  46.6979482 128.9678849 118.2212903  45.4644725
 136.3098115 115.4710310  54.5391911 135.5331449 116.0304231  54.5294776
 136.9488678 115.9567093  55.0606781 134.5644487 118.2795764  54.1009878
 135.3059172 118.8180808  53.8244702 133.8581473 118.9062053  54.2581430
 140.0399827 120.4224904  52.6982040 140.4483183 119.9807315  51.9536672
 139.3177088 119.8477532  52.9516232 136.3930897 115.3597511  50.0715597
 137.2392092 115.7836925  50.2150246 136.3329535 114.7031135  50.7654160
 140.3628642 120.9826095  46.4534328 139.7337504 121.1471809  45.7510396
 139.9754304 121.3967705  47.2245292 139.5430342 113.0201879  51.7296770
 139.2991274 113.7743940  51.1931046 139.8190273 113.3987227  52.5644017
 141.4968805 119.5640492  50.4074036 141.7085700 120.2072252  49.7308417
 141.4498553 118.7302808  49.9395966 139.0995034 112.1758312  47.3110608
 138.2379513 112.4739566  47.6027345 139.1257469 112.3928711  46.3791641
 135.9156603 120.7200503  43.7184414 136.3794949 120.9988206  42.9289036
 135.6513402 119.8183948  43.5357504 132.8080685 120.2671985  46.6564177
 133.3782042 120.6959253  46.0181661 133.3988796 119.9854569  47.3548362
 134.8525490 116.8423655  40.5273979 135.5549533 117.2944699  40.9947905
 134.5206118 116.2007474  41.1553872 133.3005851 115.4335412  54.9025188
 132.6704512 116.1151693  55.1360585 133.1941939 115.3218494  53.9578326
 128.5950823 115.1007208  45.8291112 127.8049877 115.3564737  45.3531223
 129.0862071 115.9155546  45.9343153 142.6114633 122.4412447  48.5796393
 143.4332077 122.0392635  48.2979075 142.6077036 122.3380681  49.5312509
 130.5465569 115.4651787  42.7874589 129.7496732 115.5770482  43.3058085
 130.3191161 115.8038440  41.9215479 136.3771237 121.9896491  50.7357104
 136.4415669 122.4516898  51.5715275 135.6682160 121.3593855  50.8639413
 126.8788526 115.3537699  48.2606103 127.1296565 116.2384708  48.5263679
 127.4148075 115.1742300  47.4881195 132.5786594 109.7356178  57.2650439
 132.1853539 109.1822376  57.9398083 133.3952734 110.0466756  57.6556957
 129.5448652 121.1740036  41.1764009 130.0573172 121.9683286  41.3269574
 130.1971364 120.4766327  41.1097610 131.3543536 124.2905792  43.2586762
 131.5310165 125.2123757  43.0707746 132.1500370 123.9764212  43.6881142
 135.4954555 111.1514057  54.8570696 136.2364268 111.7521210  54.7775158
 135.7272478 110.4091695  54.2988738 130.6395893 116.3370424  53.1348925
 130.5249408 115.4355681  53.4356024 129.7840411 116.5834121  52.7833742
 137.7187731 124.2788165  54.7336426 137.2751585 123.4924543  54.4157330
 138.3804944 124.4667315  54.0680317 132.4774852 125.8083966  49.2597104
 133.0282277 125.6801029  48.4874098 131.6386328 126.1078855  48.9091997
 136.2742023 122.0735094  53.6041336 136.8070360 121.3123382  53.3740644
 135.7456104 121.7808746  54.3465490 139.4411718 107.1795160  49.1334977
 139.0975987 108.0696802  49.0574088 139.8090680 106.9896818  48.2704562
 127.5097568 119.5028690  41.9523580 128.3472790 119.9125699  41.7357287
 127.6875836 118.5628133  41.9223773 136.9909111 112.0153472  42.6992651
 136.1350708 111.6260322  42.5198290 137.4036063 112.0945433  41.8392436
 138.5208258 109.5499815  47.0984211 138.0173054 109.5129950  46.2852016
 138.8138865 110.4592558  47.1580867 134.7651144 109.6338545  46.1050392
 135.6304141 109.4381353  45.7456282 134.8328653 109.4048897  47.0319749
 139.1948304 115.0430863  39.4667194 138.8898439 115.3577012  40.3177337
 140.1478746 115.1212283  39.5094527 137.6394735 121.2021086  41.1160148
 137.1116097 120.4673846  40.8033385 137.1382238 121.9795763  40.8700116
 142.6187581 119.3970107  46.2327194 141.9611256 120.0869368  46.3207323
 143.4227981 119.7866539  46.5761180 132.3713463 111.8640753  43.4766759
 132.9457215 111.6415934  42.7439952 132.9584446 111.9329447  44.2295360
 141.4293040 117.7514480  44.2831136 141.9424922 118.3844471  44.7852845
 142.0794264 117.1515675  43.9174496 132.6983050 113.8945214  37.4962644
 131.8620362 114.2319900  37.8171919 132.5587820 113.7594194  36.5589781
 134.6736131 108.7382002  42.2041829 134.0200543 108.4231019  41.5798443
 134.6316605 108.1157742  42.9301652 137.9073871 115.2263935  46.5289476
 136.9896433 115.4478882  46.3711164 138.3234015 115.3010246  45.6701184
 138.6908919 116.6255351  41.6592156 139.4380738 117.1376748  41.3499279
 138.9600508 116.3039404  42.5196550 141.1387756 113.6612467  43.6410946
 140.4010513 113.1489853  43.9721188 141.3914530 113.2212849  42.8294223
 141.2399383 106.4388719  44.2352715 141.5458260 105.5786083  43.9478630
 141.9651988 107.0306339  44.0351709 127.5323739 116.8419406  42.6234313
 127.3348139 116.2488766  41.8985380 126.9770403 116.5371616  43.3410252
 135.5120463 116.7342512  44.7428906 135.5669073 115.7816349  44.6671383
 134.7011665 116.8901951  45.2270205 133.4512823 115.3519572  42.5019285
 132.6380689 115.6513742  42.9084477 133.9471817 114.9575261  43.2193767
 135.6021401 125.3477329  44.4353550 135.5597580 125.5738175  43.5062082
 136.5184100 125.1140703  44.5839351 139.0487035 115.8161396  51.3334179
 139.4036422 116.0432870  52.1928645 139.6959166 116.1479773  50.7111434
 132.9426898 112.9237927  48.1180520 133.5826277 112.7826687  47.4203483
 132.1104428 112.6372441  47.7419122 133.7187202 122.2240358  44.2315512
 134.5127800 121.7290678  44.0298087 133.0078894 121.6958221  43.8683218
 138.5382046 124.6058453  48.5827880 138.5919068 125.1749390  49.3505596
 137.6696828 124.7760338  48.2181917 130.0269965 116.3683440  40.3075265
 129.0967553 116.3067895  40.5245227 130.1227437 115.8459392  39.5111906
 129.9455514 112.8938252  42.8953507 130.2062332 113.8083586  42.7862667
 130.7672687 112.4262695  43.0450120 131.4180440 114.3076010  50.0652331
 132.0903493 114.0993372  49.4164980 130.5910226 114.1098096  49.6257564
 137.3206012 110.9337951  52.0817992 136.6733927 111.6327900  51.9882469
 138.0907027 111.3674094  52.4494240 140.7284810 121.1986803  55.1568545
 140.5770316 120.9697354  54.2398629 140.7189489 122.1557404  55.1699890
 137.4970146 118.7718715  50.1414812 138.4262206 118.9229875  49.9683779
 137.0761176 118.8602736  49.2863458 136.2958478 122.7969380  47.9113349
 136.1569563 122.4288164  48.7839288 135.5073074 123.3117019  47.7397307
 137.8463693 122.1750983  45.3002187 137.5113525 122.1351753  46.1959837
 137.3467639 121.5095698  44.8272598 131.8207937 117.5818613  50.8254768
 131.6827735 116.8498851  51.4266307 132.7312860 117.4927513  50.5438956
 134.4490237 117.2938572  50.3138448 135.1589856 116.6531764  50.2725067
 134.4059546 117.5451467  51.2364629 133.1619171 114.2803790  52.1334088
 132.6256528 113.8294528  52.7855684 132.5735880 114.4149699  51.3904552
 132.5721430 113.7392441  34.6960551 131.6950897 113.6181242  34.3322798
 133.0479183 112.9478519  34.4439440 142.4394423 122.1945509  51.4659007
 141.5521202 121.8571431  51.5885406 143.0092974 121.4628540  51.7027772
 124.0923571 118.5269601  44.7902058 124.7794610 118.2131331  44.2023074
 123.9371699 119.4310966  44.5169310 128.8958293 113.4159797  49.2187082
 128.8116481 112.8085467  48.4837492 128.0740999 113.9068816  49.2196578
 135.9695577 126.8546962  48.4320250 135.8965748 127.6601933  48.9439555
 135.5272970 127.0538927  47.6068272 139.0682007 111.9013361  44.5857277
 139.5650706 111.1483323  44.2658347 138.2968988 111.9377678  44.0200486
 140.1511787 120.6585048  42.1595700 139.2168066 120.7786511  41.9900405
 140.3288456 119.7557515  41.8955710 135.6516975 114.0430744  44.3128962
 135.2814763 113.4901784  45.0009867 136.1476068 113.4388877  43.7603962
 133.4806174 124.5028239  51.4083980 134.1815633 125.1364722  51.5613374
 133.0101289 124.8442971  50.6479619 141.5101001 108.8682954  46.7336636
 140.5964081 109.0987181  46.9018843 141.9394103 108.9521399  47.5850668
 141.2807460 117.0572846  49.2336530 140.6278910 117.3048754  48.5788983
 141.6587840 116.2436985  48.8999007 137.3295033 117.7992658  55.7202567
 136.6535670 117.6986787  56.3904942 138.1522667 117.6431871  56.1838564
 129.0773892 124.0364594  48.3415082 129.6627329 123.2908282  48.4742987
 128.8798730 124.3468551  49.2251746 131.9312547 127.0715841  43.3577525
 131.2622922 127.5561969  42.8741565 131.7925417 127.3185062  44.2720903
 123.6691547 116.6070194  47.0619525 123.7075646 116.0733785  47.8556644
 123.1631839 116.0805400  46.4430503 131.0482309 111.4534735  50.5582068
 131.1123635 112.3149566  50.1459465 130.9849429 110.8408736  49.8254426
 130.5234582 113.5257867  54.2055102 131.1506620 113.1434945  54.8192626
 129.6662500 113.3072069  54.5710795 127.3000124 115.3334296  40.1373457
 127.5953565 114.4244975  40.0840511 126.3988160 115.3122036  39.8154459
 130.8294371 113.4090293  46.1201005 130.1080957 114.0226261  45.9808479
 131.6187627 113.9448058  46.0417651 133.6320685 110.7444719  52.3941657
 134.1555087 110.9907016  53.1567967 133.4133018 111.5764754  51.9744795
 129.0287966 113.0148394  40.2612782 128.7000672 112.1345773  40.0787888
 129.3827337 112.9596063  41.1489171 138.2767545 124.6503297  44.7707768
 138.1292507 123.7220004  44.9515338 139.1021038 124.6723388  44.2864843
 132.1429789 113.3021364  40.6288260 132.4825862 113.8307285  39.9066868
 132.5901909 113.6401770  41.4046826 134.8373230 111.6858415  50.0791328
 134.4970050 110.8866228  50.4812008 134.1312236 111.9860125  49.5068161
 135.4889702 108.7707727  48.5318651 136.3115771 108.2968205  48.4097541
 135.7327765 109.5498211  49.0317337 134.1297936 111.7995985  38.8281552
 134.8506299 112.1777238  38.3245269 133.5063240 112.5184862  38.9316530
 138.2729059 112.5041134  39.7639885 138.4892673 113.3865772  39.4628713
 137.7923126 112.1127348  39.0345527 133.0128280 115.4626848  46.3410629
 132.8672861 115.7767151  47.2334911 132.5353484 116.0811748  45.7881528
 134.8724663 112.4529396  46.3891519 134.8586232 111.5570489  46.0523817
 135.5897091 112.4600059  47.0229805 136.7250794 112.8866736  48.4344646
 136.4668572 113.8083807  48.4328977 136.1935834 112.4897170  49.1245111
 127.4873943 118.0032192  49.2798291 126.9427411 118.7792000  49.4118565
 128.3653292 118.3502997  49.1217412 134.2761559 111.3343776  41.6579089
 134.3977470 110.4060422  41.8569977 133.9863602 111.3482462  40.7457405
 137.1452750 109.0198686  44.7945809 137.1674446 109.0838019  43.8397788
 137.5620809 108.1803195  44.9886315 128.2739964 117.1302088  52.1728447
 127.5321700 117.2784724  52.7593078 127.9532709 117.3910354  51.3095197
 136.2183627 126.6718067  51.9708837 136.5270754 126.4267213  52.8431537
 137.0159109 126.8764705  51.4827708 128.7196578 125.0167517  44.2038842
 129.5454598 124.7171289  43.8237486 128.3690630 124.2475139  44.6528631
 133.6878111 124.3693985  46.2736516 133.0658121 123.7064690  45.9738744
 134.3582978 124.3955117  45.5910163 126.9205183 122.9353844  45.1627776
 126.0837091 122.5076018  44.9811777 126.8928829 123.1286287  46.0998567
 133.7602639 112.8475773  55.8669022 133.8090794 113.7237896  55.4846791
 134.3025153 112.3053166  55.2940665 141.6559122 116.2240291  53.7762194
 142.5568985 116.0846756  53.4846192 141.7307096 116.3894746  54.7160371
 135.9901927 113.6007146  52.6215380 135.1205237 113.8940712  52.3497969
 136.2261408 114.1847591  53.3422644 131.0044251 118.9463086  40.7556045
 130.7590293 118.0425416  40.9536255 131.1740166 118.9480237  39.8135523
 138.6940961 109.8186763  50.1380801 139.2122905 110.5547790  49.8127289
 138.3396094 110.1250756  50.9727560 130.2739899 114.6791444  38.2542207
 129.5809144 114.7535799  37.5982243 130.0291651 113.9151787  38.7763723
 138.9453555 106.2387045  45.6581697 139.2255309 105.5710234  46.2842124
 139.7304162 106.4316141  45.1456361 140.8376793 111.7460262  49.5912673
 140.2426725 112.0265275  48.8959162 140.5526490 112.2354163  50.3629414
 137.0172515 120.8024598  56.0223433 137.9375524 120.9803197  56.2163480
 136.9822098 119.8580643  55.8703132 126.2354680 115.9963192  44.9476708
 125.9157464 115.1428500  44.6551082 125.6888108 116.2111770  45.7034675
 130.0134587 118.7125633  48.6646214 130.2320597 119.6442740  48.6834248
 130.4260361 118.3533607  49.4501018 136.9338805 109.2193718  40.6521903
 136.1239533 108.8740803  41.0277149 137.6223222 108.9101262  41.2409514
 138.8629353 108.2971765  42.2746199 139.4160392 108.7167218  42.9336222
 139.0999440 107.3707513  42.3169155 134.8862453 114.2858838  58.0548963
 134.7859179 115.2353195  57.9861054 134.6683995 113.9577077  57.1825033
 134.0875524 111.5343763  34.6389641 134.9494688 111.8598662  34.8985458
 134.2725868 110.7475259  34.1262706 126.1042940 119.6166103  46.9169829
 125.4106411 119.2020056  46.4039784 126.8515931 119.6586640  46.3203248
 142.2408160 110.4072290  41.7824864 141.6606830 111.0657094  41.4002916
 141.9744093 109.5849634  41.3712281 140.6911727 109.8077348  43.9846184
 141.1911505 109.9193882  43.1760503 141.3347335 109.5038400  44.6246992
 134.7493723 117.7155977  56.8714025 134.2660804 118.5156337  57.0777914
 134.8354662 117.7263922  55.9181469 128.0179682 119.5484357  44.7935844
 127.9950370 119.6472044  43.8417727 128.3280319 120.3949508  45.1153010
 130.6767060 121.6060512  48.9082459 131.6310314 121.5744454  48.8412390
 130.4779584 121.1451136  49.7232685 131.2666442 120.1761628  51.4753256
 132.0859331 120.6705707  51.4988094 131.5403250 119.2593596  51.4470824
 141.0233038 112.5672380  40.8381212 140.1358894 112.8522031  40.6201407
 141.4387028 112.4066144  39.9908489 129.0317289 127.1480131  45.9252657
 128.8971757 126.3880532  45.3590655 128.6149351 127.8721031  45.4581445
 140.9974062 118.0826916  41.0531502 140.9409264 118.5395468  40.2139134
 141.5502405 117.3217601  40.8754345 132.1886415 128.0449448  46.1371099
 132.0718799 128.9894881  46.0349789 131.3678861 127.7423010  46.5256898
 126.5201357 114.5099762  52.1745453 127.1660220 113.9998716  52.6632679
 126.3118508 115.2468443  52.7488879 139.0454749 121.5780609  57.6737594
 139.9145908 121.7521262  57.3124229 138.5661500 122.3975026  57.5513323
 135.0404967 108.7739806  37.9269350 135.0283637 109.7181646  38.0837620
 135.9328389 108.5909952  37.6328811 133.2140929 128.6977710  49.3527028
 134.1168176 128.7301321  49.6693523 132.9878299 127.7678161  49.3673363
 134.9694531 127.4508697  46.0137106 134.0190162 127.4510558  45.9001478
 135.2727017 126.7041431  45.4973141 138.8557086 105.3682583  42.1815286
 138.0889482 104.8141070  42.3271969 139.2667791 105.4404452  43.0429438
 130.8598848 111.6567379  56.2720468 131.7230309 111.3004184  56.4823792
 130.2864258 111.3181274  56.9595872  58.0013940  -8.4504592  38.6455089
  57.7103806  -7.5458961  38.5301756  58.6370925  -8.4088064  39.3599159
  61.8431450  -6.0193137  41.4581733  61.3995305  -6.8056758  41.1402637
  62.5048664  -5.8313986  40.7925623  56.6018572  -4.4897335  35.9842411
  57.1525997  -4.6180272  35.2119405  55.7630047  -4.1902446  35.6337304
  63.9412688  -5.7390337  39.4863134  63.9231164  -4.9181456  38.9943403
  64.8632608  -5.8636261  39.7113275  62.6625766  -5.6922848  35.3073187
  62.7162788  -5.1231911  36.0750903  61.7940547  -5.5220963  34.9427224
  55.5811435   0.7486538  32.7524053  55.8208033   1.3805062  33.4303071
  54.7380631   0.3974578  33.0389412  60.0939297  -3.4434340  35.1565557
  60.0209468  -2.6379368  35.6684861  59.6516690  -3.2442374  34.3313578
  62.5537980  -3.5447506  37.3123715  63.2665952  -2.9100041  37.2399617
  62.0628009  -3.4483640  36.4963717  57.6049894  -5.7953062  38.1329286
  58.3059353  -5.1616579  38.2858681  57.1345009  -5.4538331  37.3724926
  60.1961536  -1.1921716  36.6805490  60.7479844  -1.0290095  37.4454575
  60.5367729  -0.6017278  36.0085515  63.3329923  -3.2439741  33.6669172
  63.2081062  -4.0450001  33.1580117  63.9909014  -2.7493547  33.1783142
  66.0045386  -4.8249446  32.5817947  66.9291934  -5.0306584  32.4442398
  65.8360690  -5.0733044  33.4907288  60.3427347  -3.6263235  38.6954144
  60.6514473  -3.8714088  39.5676844  61.1402829  -3.4216596  38.2073014
  57.3384649  -1.6003591  36.0772334  58.2411895  -1.5679981  36.3938829
  57.1122019  -2.5303140  36.0918670  74.8290944   2.9887934  33.8028175
  75.4669354   2.8694681  33.0991515  74.7111787   3.9368778  33.8616127
  71.6380651   2.9415362  33.7389700  71.2999162   2.8256427  32.8510235
  72.5070419   2.5406527  33.7190706  67.4967466   4.7950839  29.7286591
  66.9332331   4.7040776  28.9602879  67.3819861   3.9750743  30.2089083
  72.1200434   4.0950214  39.6975905  72.1089074   3.7003012  38.8256409
  72.2821073   3.3616287  40.2909677  65.0431898   6.2902030  32.5670811
  65.8353190   5.9492855  32.1517111  65.2828548   6.3997005  33.4872965
  73.0767025   8.4621806  25.0401056  72.4255005   9.0475887  24.6535070
  73.8711388   8.9928001  25.0996093  67.0022652   5.5510943  25.4388190
  67.7753528   5.0039931  25.3001066  67.3548051   6.4155193  25.6502652
  68.8407695   6.8787326  38.6455089  68.5497561   7.7832957  38.5301756
  69.4764679   6.9203853  39.3599159  69.7663902   4.2564174  35.2356449
  70.3627474   4.0320197  34.5213412  69.8238873   3.5148920  35.8381897
  74.3832213   0.7139388  30.8781383  75.1695302   0.2958811  30.5271800
  74.6470917   1.6185480  31.0463032  74.5542290   6.1512238  25.5770040
  73.9188123   6.2246865  26.2890945  74.2239697   6.7405837  24.8989119
  79.7840640   0.6514621  31.7814362  80.5165812   0.0813838  32.0152191
  79.0279996   0.2636222  32.2220867  71.4016760   3.0741863  28.9777704
  71.0374967   2.5472484  29.6890626  72.2583876   2.6840332  28.8044190
  73.7997580   6.5648741  35.6404883  73.4998303   7.4673780  35.5320690
  73.4548639   6.2980924  36.4926036  67.2510061   3.0162538  31.6741588
  66.3260558   2.8838752  31.8819279  67.4994474   3.7956757  32.1711530
  77.1994724  -0.9168719  33.3202320  76.2911601  -0.9853310  33.0261081
  77.1482319  -0.4396774  34.1484146  64.6118872   2.6595812  32.5085377
  64.7411253   2.9130291  33.4224788  63.9316324   3.2523520  32.1890032
  68.7818360  13.3293062  28.6075851  68.7042389  14.2800887  28.6864331
  68.1780003  12.9838934  29.2650777  71.2735589   0.5020927  41.2637218
  70.4968923   1.0614847  41.2540082  71.9126152   0.9877710  41.7852088
  76.7196534   1.0310893  25.7866054  77.6314390   1.2638280  25.6113751
  76.2106181   1.6147937  25.2241132  69.5281962   3.3106380  40.8255185
  70.2696646   3.8491424  40.5490008  68.8218947   3.9372669  40.9826737
  75.0037301   5.4535521  39.4227346  75.4120657   5.0117931  38.6781979
  74.2814563   4.8788148  39.6761539  71.3568371   0.3908128  36.7960903
  72.2029567   0.8147541  36.9395552  71.2967009  -0.2658248  37.4899466
  75.3266116   6.0136711  33.1779635  74.6974978   6.1782426  32.4755703
  74.9391778   6.4278321  33.9490599  79.2055348   6.9491149  30.5323999
  78.5206386   7.3290051  29.9821032  79.2899197   7.5586476  31.2655947
  74.5067817  -1.9487504  38.4542077  74.2628749  -1.1945443  37.9176352
  74.7827747  -1.5702156  39.2889324  76.4606279   4.5951108  37.1319342
  76.6723175   5.2382868  36.4553723  76.4136028   3.7613425  36.6641272
  74.0632508  -2.7931071  34.0355915  73.2016987  -2.4949817  34.3272652
  74.0894943  -2.5760672  33.1036947  70.8794078   5.7511120  30.4429720
  71.3432423   6.0298823  29.6534343  70.6150876   4.8494564  30.2602811
  67.7718159   5.2982601  33.3809483  68.3419516   5.7269869  32.7426968
  68.3626271   5.0165186  34.0793669  69.8162964   1.8734272  27.2519285
  70.5187007   2.3255316  27.7193212  69.4843592   1.2318091  27.8799178
  68.2643325   0.4646029  41.6270495  67.6341986   1.1462309  41.8605892
  68.1579413   0.3529110  40.6823633  63.5588298   0.1317825  32.5536419
  62.7687352   0.3875353  32.0776530  64.0499545   0.9466162  32.6588459
  77.5752107   7.4723064  35.3041700  78.3969551   7.0703251  35.0224381
  77.5714510   7.3691298  36.2557816  65.5103043   0.4962404  29.5119896
  64.7134206   0.6081098  30.0303391  65.2828635   0.8349056  28.6460786
  71.3408711   7.0207107  37.4602410  71.4053143   7.4827514  38.2960582
  70.6319635   6.3904472  37.5884720  61.8426001   0.3848315  34.9851410
  62.0934039   1.2695325  35.2508986  62.3785549   0.2052917  34.2126502
  85.6658100   3.8161812  31.6526671  84.9121809   3.2469210  31.4970676
  85.8005642   3.7824477  32.5997306  71.0556728   8.6875215  27.3281391
  70.9202403   9.5326750  27.7566238  71.5966541   8.8894492  26.5647324
  64.5086126   6.2050653  27.9009316  65.0210646   6.9993903  28.0514880
  65.1608839   5.5076943  27.8342917  66.3181011   9.3216409  29.9832069
  66.4947639  10.2434374  29.7953053  67.1137844   9.0074828  30.4126449
  65.6033367   1.3681041  39.8594232  65.4886882   0.4666298  40.1601331
  64.7477885   1.6144738  39.5079049  72.6825205   9.3098781  41.4581733
  72.2389059   8.5235160  41.1402637  73.3442418   9.4977932  40.7925623
  67.4412326  10.8394583  35.9842411  67.9919751  10.7111646  35.2119405
  66.6023802  11.1389472  35.6337304  74.7806443   9.5901581  39.4863134
  74.7624918  10.4110462  38.9943403  75.7026363   9.4655656  39.7113275
  71.2379497   7.1045710  40.3286642  71.7707834   6.3433999  40.0985950
  70.7093578   6.8119362  41.0710797  62.4735043   4.5339307  28.6768886
  63.3110265   4.9436315  28.4602594  62.6513310   3.5938749  28.6469080
  74.3699475   2.2014388  24.3652719  73.8546098   2.9718992  24.6041107
  74.0976783   1.5279524  24.9885781  71.9546586  -2.9535912  29.4237957
  71.0988182  -3.3429061  29.2443596  72.3673538  -2.8743951  28.5637743
  79.3433749   4.9546742  26.3005893  78.5663192   4.6157902  25.8561055
  80.0225230   4.9599365  25.6260858  74.1585778   0.0741480  26.1912500
  73.8535914   0.3887629  27.0422643  75.1116220   0.1522900  26.2339833
  72.6032210   6.2331703  27.8405454  72.0753571   5.4984463  27.5278692
  72.1019713   7.0106379  27.5945423  77.5825056   4.4280723  32.9572501
  76.9248730   5.1179985  33.0452629  78.3865455   4.8177155  33.3006487
  76.3930515   2.7825096  31.0076442  76.9062396   3.4155088  31.5098152
  77.0431738   2.1826292  30.6419802  73.6552889  12.7609420  23.7637113
  72.9814588  13.0641117  24.3722071  74.0418711  13.5638501  23.4142571
  72.8711345   0.2574552  33.2534783  71.9533907   0.4789499  33.0956471
  73.2871489   0.3320862  32.3946490  73.6546393   1.6565967  28.3837463
  74.4018212   2.1687365  28.0744585  73.9237983   1.3350020  29.2441857
  71.9273043   4.1524508  25.3664417  71.0184263   3.8683541  25.4636887
  71.9568127   4.5723587  24.5067724  77.1592311   7.7631098  29.1355585
  76.7054638   6.9222007  29.1920775  76.5286278   8.3992496  29.4730365
  76.1025230  -1.3076916  30.3656252  75.3647987  -1.8199530  30.6966495
  76.3552004  -1.7476535  29.5539529  75.6025250   9.6007594  30.0705403
  75.8948224  10.1612651  29.3517769  76.1123871   9.8936155  30.8258562
  70.4757937   1.7653129  31.4674213  70.5306547   0.8126965  31.3916689
  69.6649139   1.9212568  31.9515511  68.4150297   0.3830188  29.2264592
  67.6018163   0.6824359  29.6329784  68.9109292  -0.0114123  29.9439074
  70.5658875  10.3787945  31.1598856  70.5235054  10.6048792  30.2307388
  71.4821574  10.1451320  31.3084657  74.0124509   0.8472013  38.0579486
  74.3673897   1.0743486  38.9173951  74.6596640   1.1790390  37.4356741
  79.7422246   3.9690449  28.7628815  79.6040145   4.1592045  27.8350004
  79.3858465   4.7309832  29.2196866  67.9064372  -2.0451456  34.8425827
  68.5463751  -2.1862697  34.1448790  67.0741903  -2.3316943  34.4664429
  79.7691626   6.0366976  33.7740086  80.2028132   5.9442265  34.6223140
  80.4823206   6.0124476  33.1360102  68.6824676   7.2550974  30.9560819
  69.4765275   6.7601295  30.7543394  67.9716368   6.7268838  30.5928525
  73.5019520   9.6369070  35.3073187  73.5556543  10.2060006  36.0750903
  72.6334302   9.8070955  34.9427224  66.3817914  -0.6613374  36.7897638
  67.0540967  -0.8696012  36.1410287  65.5547700  -0.8591288  36.3502870
  80.6307175   6.0790676  36.3072971  80.8243065   6.9836487  36.5532246
  80.5307793   5.6198096  37.1411556  75.6922284   6.2297419  41.8813852
  75.5407790   6.0007971  40.9643936  75.6826963   7.1868021  41.8945197
  72.4607620   3.8029332  36.8660118  73.3899680   3.9540492  36.6929086
  72.0398650   3.8913353  36.0108765  71.2595952   7.8279996  34.6358656
  71.1207038   7.4598781  35.5084594  70.4710548   8.3427636  34.4642614
  71.8544104  12.9289093  25.9784193  72.0295860  12.4577136  26.7929815
  71.1676892  13.5554859  26.2065453  72.8101167   7.2061599  32.0247494
  72.4751000   7.1662369  32.9205144  72.3105113   6.5406315  31.5517904
  66.7845411   2.6129229  37.5500075  66.6465209   1.8809468  38.1511614
  67.6950335   2.5238129  37.2684263  69.4127712   2.3249188  37.0383755
  70.1227330   1.6842381  36.9970373  69.3697020   2.5762083  37.9609935
  77.4014490   9.2616542  39.9590334  77.3427037   8.5775762  39.2920917
  77.8034009  10.0035532  39.5070960  68.1256646  -0.6885594  38.8579394
  67.5894003  -1.1394855  39.5100991  67.5373354  -0.5539685  38.1149859
  66.4205189  16.0778456  32.7524053  66.6601788  16.7096980  33.4303071
  65.5774386  15.7266496  33.0389412  77.4031898   7.2256126  38.1904314
  76.5158677   6.8882047  38.3130712  77.9730449   6.4939157  38.4273079
  59.0561045   3.5580217  31.5147365  59.7432085   3.2441947  30.9268380
  58.9009174   4.4621582  31.2414616  63.8595767  -1.5529586  35.9432389
  63.7753956  -2.1603916  35.2082799  63.0378473  -1.0620568  35.9441885
  70.9333051  11.8857578  35.1565557  70.8603223  12.6912550  35.6684861
  70.4910444  12.0849544  34.3313578  70.7222831  11.1229348  28.6668378
  69.9390353  11.6651028  28.7606603  71.4215576  11.6403328  29.0662620
  81.8849238   2.6364343  32.9520875  81.8739115   3.5189058  32.5814808
  81.0166618   2.2835894  32.7575412  73.3931735  11.7844412  37.3123715
  74.1059707  12.4191877  37.2399617  72.9021763  11.8808278  36.4963717
  75.1149262   5.6895665  28.8841007  74.1805540   5.8097127  28.7145711
  75.2925930   4.7868132  28.6201017  70.6154450  -0.9258639  31.0374268
  70.2452237  -1.4787599  31.7255174  71.1113542  -1.5300506  30.4849268
  78.5021813   1.5312984  29.4191041  78.9682265   2.3640976  29.3451344
  78.9529313   1.0657966  30.1236300  68.4443648   9.5338856  38.1329286
  69.1453108  10.1675339  38.2858681  67.9738763   9.8753587  37.3724926
  76.5698044   7.8756805  26.4177193  76.8457888   7.7613400  27.3271067
  75.7002543   7.4774290  26.3789366  76.2444934   2.0883463  35.9581837
  75.5916384   2.3359370  35.3034289  76.6225314   1.2747601  35.6244314
  73.2052108  12.1243156  30.0610007  73.3874503  11.3064812  30.5237759
  74.0285094  12.3410848  29.6234897  73.5394274  11.0511341  27.3225055
  74.0682040  10.5403796  26.7095218  73.8022493  10.7353872  28.1870588
  72.2932507   2.8303274  42.4447874  71.6173144   2.7297403  43.1150249
  73.1160141   2.6742488  42.9083871  64.0411366   9.0675211  35.0660389
  64.6264803   8.3218898  35.1988293  63.8436205   9.3779167  35.9497053
  66.8950021  12.1026458  30.0822831  66.2260397  12.5872586  29.5986871
  66.7562891  12.3495678  30.9966210  58.6329021   1.6380811  33.7864832
  58.6713121   1.1044401  34.5801950  58.1269314   1.1116016  33.1675809
  71.0355290  14.1370202  36.6805490  71.5873598  14.3001823  37.4454575
  71.3761484  14.7274639  36.0085515  66.0119783  -3.5154649  37.2827374
  66.0761110  -2.6539818  36.8704772  65.9486904  -4.1280647  36.5499733
  65.4872056  -1.4431516  40.9300409  66.1144095  -1.8254439  41.5437933
  64.6299975  -1.6617314  41.2956101  75.8866164   8.9631459  42.5354144
  76.4306068   9.5761417  42.0409099  75.3053009   9.5211037  43.0521157
  74.1723677  12.0852177  33.6669172  74.0474817  11.2841917  33.1580117
  74.8302768  12.5798370  33.1783142  65.7931846  -1.5599090  32.8446312
  65.0718431  -0.9463123  32.7053785  66.5825101  -1.0241326  32.7662958
  76.2358586   9.8861197  35.2948722  75.2888921   9.7666548  35.2227049
  76.5841359   8.9983695  35.3774983  68.5958159  -4.2244664  39.1186964
  69.1192561  -3.9782367  39.8813273  68.3770492  -3.3924629  38.6990101
  73.2405019   9.6813913  31.4953074  73.0929981   8.7530621  31.6760644
  74.0658513   9.7034004  31.0110149  76.8439141  10.5042472  32.5817947
  77.7685688  10.2985333  32.4442398  76.6754444  10.2558873  33.4907288
  69.8010704  -3.2830969  36.8036634  69.4607524  -4.0823156  37.2057314
  69.0949710  -2.9829258  36.2313468  67.9765755   0.4937464  33.0655936
  67.8310335   0.8077767  33.9580218  67.4990958   1.1122365  32.5126835
  69.8362138  -2.5159988  33.1136826  69.8223706  -3.4118895  32.7769124
  70.5534566  -2.5089324  33.7475112  71.6888268  -2.0822648  35.1589953
  71.4306046  -1.1605577  35.1574283  71.1573309  -2.4792213  35.8490417
  76.6334457  11.0228140  27.9380038  76.8071335  10.4574562  27.1853891
  77.1263348  11.8229034  27.7559528  62.4511417   3.0342809  36.0043597
  61.9064885   3.8102617  36.1363872  63.3290767   3.3813613  35.8462719
  82.4873848   3.7864562  29.5570338  82.9304994   3.0371888  29.1589461
  81.6100359   3.7774699  29.1744070  77.6209630  10.3394904  25.0376937
  78.3160534  10.9601597  25.2564251  77.9632780   9.4890255  25.3129315
  63.2377439   2.1612705  38.8973754  62.4959175   2.3095340  39.4838384
  62.9170183   2.4220970  38.0340503  79.5201053   7.7894609  26.5664267
  80.0452377   8.1281882  25.8413587  79.4323405   6.8541625  26.3827402
  71.1821101  11.7028683  38.6954144  71.4908228  11.4577830  39.5676844
  71.9796583  11.9075322  38.2073014  71.2041713  13.8566593  30.9259521
  70.7646704  13.3642971  31.6192377  71.9549830  13.3139560  30.6851596
  63.6834052  10.0478134  30.9284149  64.5092072   9.7481905  30.5482792
  63.3328104   9.2785756  31.3773937  68.6515586   9.4004602  32.9981822
  68.0295595   8.7375307  32.6984050  69.3220452   9.4265734  32.3155470
  61.8842657   7.9664460  31.8873082  61.0474566   7.5386634  31.7057084
  61.8566303   8.1596903  32.8243873  68.7240113  -2.1213610  42.5914328
  68.7728269  -1.2451487  42.2092098  69.2662627  -2.6636217  42.0185972
  79.2094959   8.4227513  41.8715465  78.4190502   8.4051652  41.3319965
  78.9728313   8.9615807  42.6264502  79.3292834   5.2719979  39.1848194
  79.3790839   5.1069987  40.1263717  79.2206757   4.4047238  38.7946075
  68.2129092   7.9508525  26.4740283  68.3617213   8.6343990  25.8206956
  69.0195536   7.9313615  26.9889739  76.6196596   1.2550907  40.5007501
  77.5206459   1.1157372  40.2091498  76.6944571   1.4205362  41.4405678
  70.9539402  -1.3682238  39.3460687  70.0842711  -1.0748672  39.0743276
  71.1898882  -0.7841793  40.0667951  80.8311031   7.6916921  39.4290215
  80.5395839   8.0546902  40.2653676  80.2183162   6.9783929  39.2503548
  82.0306713   5.2569801  31.9492786  82.8653604   5.6959605  32.1130346
  82.1665842   4.7808454  31.1301031  79.0798219   2.8149536  37.8970273
  79.5552340   3.0077182  37.0889125  78.1563784   2.8708721  37.6513657
  65.9681725   3.9773703  27.4801352  65.7227767   3.0736033  27.6781562
  66.1377640   3.9790853  26.5380830  71.7124498  10.4456656  23.9452030
  71.1398465  11.0646843  23.4922502  72.2857292  10.9956017  24.4791952
  77.7799888  -0.3084704  36.1298579  78.7317311  -0.2086607  36.1510803
  77.6103338  -1.1006436  36.6396663  74.9321758  10.7293806  25.0760613
  75.8652431  10.6639367  25.2793488  74.8444971  11.5650073  24.6175145
  77.5609774  10.0459676  22.0364560  77.4823406   9.7119540  22.9300318
  78.3819441  10.5381444  22.0356032  80.2587966   2.9121415  35.2440879
  80.2264286   1.9737416  35.4300563  80.8688589   2.9905452  34.5106704
  86.0764516   3.9737422  34.3846916  86.8067904   3.7122710  34.9454619
  85.4671461   3.2366144  34.4248983  84.1579813   2.1145285  34.9821367
  83.4312976   1.9801250  34.3737858  83.7427100   2.4222113  35.7878085
  71.9809989   5.8335214  42.7468740  72.9012999   6.0113813  42.9408786
  71.9459572   4.8891260  42.5948439  61.1992154   1.0273808  31.6722014
  60.8794938   0.1739116  31.3796388  60.6525582   1.2422386  32.4279982
  64.9772062   3.7436249  35.3891521  65.1958071   4.6753357  35.4079555
  65.3897835   3.3844224  36.1746325  69.8499927  -0.6830545  44.7794270
  69.7496654   0.2663812  44.7106361  69.6321469  -1.0112306  43.9070340
  61.0680414   4.6476720  33.6415136  60.3743885   4.2330672  33.1285090
  61.8153405   4.6897256  33.0448555  69.7131197   2.7466594  43.5959331
  69.2298279   3.5466954  43.8023221  69.7992136   2.7574539  42.6426775
  62.9817157   4.5794973  31.5181151  62.9587845   4.6782661  30.5663034
  63.2917793   5.4260124  31.8398317  65.6404534   6.6371128  35.6327765
  66.5947788   6.6055071  35.5657697  65.4417058   6.1761752  36.4477991
  66.2303917   5.2072244  38.1998563  67.0496806   5.7016323  38.2233400
  66.5040724   4.2904213  38.1716130  63.9954763  12.1790748  32.6497963
  63.8609231  11.4191149  32.0835961  63.5786826  12.9031648  32.1826752
  75.1313726   7.3627671  21.6574538  75.8349576   7.5677674  22.2732194
  74.4076375   7.9304433  21.9223622  75.9611537   3.1137533  27.7776809
  75.9046738   3.5706084  26.9384441  76.5139879   2.3528217  27.5999651
  84.0828680   1.6423338  31.1098220  83.5228238   1.7116527  31.8829782
  83.4772184   1.4664322  30.3897716  67.1523889  13.0760065  32.8616406
  67.0356273  14.0205497  32.7595096  66.3316335  12.7733627  33.2502205
  77.0400424   7.8010201  23.7072998  77.8746028   7.3691399  23.5250473
  76.8784767   7.6292214  24.6349893  76.6946316   4.3042314  25.0729338
  76.6395120   4.1386585  24.1317782  76.0692371   5.0118347  25.2291527
  61.4838831  -0.4589622  38.8990760  62.1297694  -0.9690668  39.3877985
  61.2755982   0.2779060  39.4734185  74.0092223   6.6091226  44.3982901
  74.8783383   6.7831878  44.0369535  73.5298975   7.4285643  44.2758630
  68.1778403  13.7288327  36.0772334  69.0805650  13.7611937  36.3938829
  67.9515773  12.7988778  36.0918670  69.9332005  12.4819313  32.7382413
  68.9827636  12.4821175  32.6246785  70.2364491  11.7352048  32.2218447
  65.8236322  -3.3122005  42.9965774  66.6867783  -3.6685200  43.2069099
  65.2501732  -3.6508110  43.6841178  85.6684699  18.3179852  33.8028175
  86.3063109  18.1986599  33.0991515  85.5505542  19.2660696  33.8616127
  82.4774405  18.2707280  33.7389700  82.1392917  18.1548345  32.8510235
  83.3464173  17.8698445  33.7190706  78.3361221  20.1242756  29.7286591
  77.7726086  20.0332693  28.9602879  78.2213616  19.3042661  30.2089083
  82.9594188  19.4242132  39.6975905  82.9482829  19.0294930  38.8256409
  83.1214828  18.6908204  40.2909677  75.8825653  21.6193948  32.5670811
  76.6746945  21.2784773  32.1517111  76.1222303  21.7288923  33.4872965
  83.9160779  23.7913724  25.0401056  83.2648759  24.3767804  24.6535070
  84.7105142  24.3219919  25.0996093  77.8416407  20.8802861  25.4388190
  78.6147283  20.3331848  25.3001066  78.1941805  21.7447110  25.6502652
  79.6801449  22.2079243  38.6455089  79.3891315  23.1124874  38.5301756
  80.3158434  22.2495771  39.3599159  80.6057656  19.5856092  35.2356449
  81.2021228  19.3612114  34.5213412  80.6632628  18.8440837  35.8381897
  80.1782684  17.0395527  23.0706640  80.4308205  16.5177049  22.3090103
  79.2407244  16.8761673  23.1733324  85.2225967  16.0431306  30.8781383
  86.0089056  15.6250729  30.5271800  85.4864672  16.9477398  31.0463032
  85.3936045  21.4804156  25.5770040  84.7581878  21.5538782  26.2890945
  85.0633451  22.0697755  24.8989119  90.6234394  15.9806539  31.7814362
  91.3559566  15.4105756  32.0152191  89.8673750  15.5928139  32.2220867
  79.8978973  18.9423633  25.2731015  79.7815231  18.2668537  25.9412099
  80.0081233  18.4556007  24.4563168  82.2410514  18.4033780  28.9777704
  81.8768721  17.8764401  29.6890626  83.0977630  18.0132249  28.8044190
  88.1459815   9.6928113  36.2408970  87.8143140  10.5623524  36.0170185
  87.5505428   9.3764397  36.9203001  81.8816001  13.4323680  23.9739053
  82.0490403  14.3003916  24.3409524  81.6913170  13.5950962  23.0500342
  84.6391334  21.8940659  35.6404883  84.3392057  22.7965698  35.5320690
  84.2942394  21.6272842  36.4926036  78.0903816  18.3454456  31.6741588
  77.1654312  18.2130670  31.8819279  78.3388229  19.1248675  32.1711530
  88.0388478  14.4123199  33.3202320  87.1305355  14.3438608  33.0261081
  87.9876074  14.8895144  34.1484146  81.8605222  15.8881338  24.9585720
  81.7404847  16.3338388  25.7971200  81.1657810  16.2366655  24.3999258
  75.4512627  17.9887729  32.5085377  75.5805008  18.2422208  33.4224788
  74.7710078  18.5815437  32.1890032  79.6212114  28.6584979  28.6075851
  79.5436144  29.6092804  28.6864331  79.0173758  28.3130852  29.2650777
  82.1129344  15.8312845  41.2637218  81.3362678  16.3906765  41.2540082
  82.7519907  16.3169628  41.7852088  89.9050124  12.6139638  35.0980194
  89.2624505  12.9072171  34.4519989  89.4005053  12.4992558  35.9033391
  87.5590288  16.3602811  25.7866054  88.4708144  16.5930197  25.6113751
  87.0499935  16.9439855  25.2241132  80.3675716  18.6398298  40.8255185
  81.1090401  19.1783342  40.5490008  79.6612702  19.2664587  40.9826737
  85.8431056  20.7827439  39.4227346  86.2514412  20.3409849  38.6781979
  85.1208317  20.2080066  39.6761539  82.1962126  15.7200045  36.7960903
  83.0423321  16.1439459  36.9395552  82.1360763  15.0633670  37.4899466
  86.1659870  21.3428629  33.1779635  85.5368733  21.5074343  32.4755703
  85.7785532  21.7570239  33.9490599  90.0449102  22.2783067  30.5323999
  89.3600140  22.6581968  29.9821032  90.1292952  22.8878394  31.2655947
  85.3461571  13.3804414  38.4542077  85.1022503  14.1346474  37.9176352
  85.6221502  13.7589761  39.2889324  87.3000034  19.9243026  37.1319342
  87.5116929  20.5674786  36.4553723  87.2529782  19.0905343  36.6641272
  84.9026263  12.5360847  34.0355915  84.0410742  12.8342100  34.3272652
  84.9288698  12.7531246  33.1036947  81.7187832  21.0803037  30.4429720
  82.1826178  21.3590740  29.6534343  81.4544630  20.1786482  30.2602811
  78.6111913  20.6274519  33.3809483  79.1813270  21.0561787  32.7426968
  79.2020025  20.3457103  34.0793669  80.6556718  17.2026190  27.2519285
  81.3580762  17.6547233  27.7193212  80.3237347  16.5610008  27.8799178
  79.1037080  15.7937946  41.6270495  78.4735740  16.4754227  41.8605892
  78.9973168  15.6821028  40.6823633  74.3982052  15.4609742  32.5536419
  73.6081106  15.7167271  32.0776530  74.8893300  16.2758080  32.6588459
  88.4145862  22.8014981  35.3041700  89.2363306  22.3995169  35.0224381
  88.4108265  22.6983216  36.2557816  76.3496798  15.8254322  29.5119896
  75.5527961  15.9373016  30.0303391  76.1222390  16.1640974  28.6460786
  82.1802465  22.3499025  37.4602410  82.2446898  22.8119432  38.2960582
  81.4713389  21.7196390  37.5884720  72.6819755  15.7140233  34.9851410
  72.9327794  16.5987243  35.2508986  73.2179304  15.5344834  34.2126502
  96.5051855  19.1453730  31.6526671  95.7515563  18.5761128  31.4970676
  96.6399396  19.1116394  32.5997306  81.8950483  24.0167132  27.3281391
  81.7596158  24.8618668  27.7566238  82.4360295  24.2186410  26.5647324
  78.3817823  10.0958712  43.9895746  77.9884768   9.5424911  44.6643390
  79.1983963  10.4069291  44.3802263  75.3479880  21.5342570  27.9009316
  75.8604401  22.3285821  28.0514880  76.0002593  20.8368861  27.8342917
  77.1574765  24.6508327  29.9832069  77.3341393  25.5726291  29.7953053
  77.9531599  24.3366746  30.4126449  81.2985784  11.5116591  41.5816002
  82.0395497  12.1123744  41.5020465  81.5303706  10.7694229  41.0234045
  76.4427122  16.6972958  39.8594232  76.3280637  15.7958216  40.1601331
  75.5871639  16.9436655  39.5079049  83.5218959  24.6390699  41.4581733
  83.0782814  23.8527077  41.1402637  84.1836173  24.8269849  40.7925623
  78.2806081  26.1686500  35.9842411  78.8313506  26.0403564  35.2119405
  77.4417556  26.4681389  35.6337304  85.6200197  24.9193499  39.4863134
  85.6018673  25.7402380  38.9943403  86.5420117  24.7947574  39.7113275
  82.0773252  22.4337628  40.3286642  82.6101588  21.6725916  40.0985950
  81.5487333  22.1411280  41.0710797  85.2442947   7.5397694  35.8580284
  84.9007216   8.4299336  35.7819395  85.6121909   7.3499352  34.9949869
  73.3128797  19.8631225  28.6768886  74.1504019  20.2728233  28.4602594
  73.4907065  18.9230667  28.6469080  85.2093229  17.5306305  24.3652719
  84.6939853  18.3010910  24.6041107  84.9370538  16.8571441  24.9885781
  82.7940340  12.3756006  29.4237957  81.9381937  11.9862856  29.2443596
  83.2067292  12.4547967  28.5637743  84.3239487   9.9102349  33.8229517
  83.8204283   9.8732484  33.0097323  84.6170094  10.8195092  33.8826174
  80.5682373   9.9941079  32.8295699  81.4335370   9.7983888  32.4701588
  80.6359882   9.7651431  33.7565056  90.1827503  20.2838660  26.3005893
  89.4056946  19.9449819  25.8561055  90.8618984  20.2891283  25.6260858
  84.9979532  15.4033397  26.1912500  84.6929668  15.7179547  27.0422643
  85.9509975  15.4814817  26.2339833  83.4425964  21.5623621  27.8405454
  82.9147326  20.8276380  27.5278692  82.9413467  22.3398297  27.5945423
  88.4218810  19.7572641  32.9572501  87.7642485  20.4471903  33.0452629
  89.2259210  20.1469073  33.3006487  78.1744692  12.2243287  30.2012066
  78.7488444  12.0018468  29.4685259  78.7615674  12.2931981  30.9540667
  87.2324269  18.1117014  31.0076442  87.7456151  18.7447006  31.5098152
  87.8825493  17.5118209  30.6419802  78.5014279  14.2547748  24.2207951
  77.6651591  14.5922434  24.5417226  78.3619049  14.1196728  23.2835088
  80.4767360   9.0984536  28.9287135  79.8231772   8.7833553  28.3043750
  80.4347834   8.4760276  29.6546958  81.5878564  19.3803831  20.8440427
  80.6805626  19.1493084  21.0431576  82.0849596  18.5841450  21.0314409
  84.4946643  28.0901338  23.7637113  83.8208342  28.3933035  24.3722071
  84.8812465  28.8930418  23.4142571  83.7105100  15.5866469  33.2534783
  82.7927661  15.8081416  33.0956471  84.1265244  15.6612780  32.3946490
  84.4940148  16.9857885  28.3837463  85.2411967  17.4979282  28.0744585
  84.7631737  16.6641938  29.2441857  82.7666798  19.4816426  25.3664417
  81.8578017  19.1975459  25.4636887  82.7961882  19.9015504  24.5067724
  87.9986065  23.0923015  29.1355585  87.5448392  22.2513925  29.1920775
  87.3680032  23.7284414  29.4730365  86.9418985  14.0215001  30.3656252
  86.2041742  13.5092388  30.6966495  87.1945758  13.5815383  29.5539529
  86.4419005  24.9299512  30.0705403  86.7341979  25.4904569  29.3517769
  86.9517625  25.2228073  30.8258562  87.0430612   6.7991253  30.9598022
  87.3489489   5.9388617  30.6723937  87.7683217   7.3908874  30.7597016
  73.3354968  17.2021940  29.3479620  73.1379368  16.6091301  28.6230686
  72.7801632  16.8974150  30.0655558  81.3151692  17.0945046  31.4674213
  81.3700302  16.1418883  31.3916689  80.5042894  17.2504485  31.9515511
  82.4642886  21.0225169  22.7052496  82.0262316  20.3061028  22.2458133
  83.2053327  21.2501284  22.1437587  79.2544052  15.7122106  29.2264592
  78.4411917  16.0116277  29.6329784  79.7503046  15.3177795  29.9439074
  81.4052630  25.7079863  31.1598856  81.3628809  25.9340709  30.2307388
  82.3215329  25.4743238  31.3084657  84.8518264  16.1763931  38.0579486
  85.2067651  16.4035404  38.9173951  85.4990395  16.5082307  37.4356741
  90.5816000  19.2982366  28.7628815  90.4433899  19.4883962  27.8350004
  90.2252219  20.0601749  29.2196866  78.7458127  13.2840462  34.8425827
  79.3857506  13.1429221  34.1448790  77.9135657  12.9974975  34.4664429
  90.6085380  21.3658893  33.7740086  91.0421887  21.2734183  34.6223140
  91.3216961  21.3416394  33.1360102  79.5218431  22.5842892  30.9560819
  80.3159029  22.0893212  30.7543394  78.8110123  22.0560755  30.5928525
  84.3413275  24.9660988  35.3073187  84.3950297  25.5351924  36.0750903
  83.4728056  25.1362873  34.9427224  75.8301194  16.7285974  27.0320572
  74.8998782  16.6670429  27.2490534  75.9258666  16.2061927  26.2357213
  75.7486743  13.2540787  29.6198813  76.0093560  14.1686120  29.5107974
  76.5703915  12.7865229  29.7695426  77.2211668  14.6678544  36.7897638
  77.8934722  14.4595906  36.1410287  76.3941455  14.4700630  36.3502870
  91.4700930  21.4082594  36.3072971  91.6636820  22.3128405  36.5532246
  91.3701548  20.9490013  37.1411556  83.1237240  11.2940485  38.8063299
  82.4765155  11.9930434  38.7127775  83.8938256  11.7276629  39.1739547
  86.5316038  21.5589337  41.8813852  86.3801545  21.3299889  40.9643936
  86.5220718  22.5159938  41.8945197  83.3001375  19.1321250  36.8660118
  84.2293435  19.2832409  36.6929086  82.8792405  19.2205270  36.0108765
  82.0989707  23.1571914  34.6358656  81.9600792  22.7890698  35.5084594
  81.3104303  23.6719553  34.4642614  82.6937858  28.2581011  25.9784193
  82.8689614  27.7869054  26.7929815  82.0070647  28.8846777  26.2065453
  83.6494922  22.5353517  32.0247494  83.3144754  22.4954287  32.9205144
  83.1498867  21.8698233  31.5517904  77.6239166  17.9421147  37.5500075
  77.4858964  17.2101386  38.1511614  78.5344089  17.8530047  37.2684263
  86.5854113  19.8809551  22.2984554  85.9683284  19.1556379  22.2017606
  86.1170602  20.6418911  21.9551628  80.2521466  17.6541106  37.0383755
  80.9621085  17.0134298  36.9970373  80.2090774  17.9054001  37.9609935
  88.2408245  24.5908459  39.9590334  88.1820791  23.9067680  39.2920917
  88.6427763  25.3327449  39.5070960  78.9650400  14.6406324  38.8579394
  78.4287757  14.1897062  39.5100991  78.3767109  14.7752233  38.1149859
  77.2598944  31.4070373  32.7524053  77.4995542  32.0388897  33.4303071
  76.4168140  31.0558413  33.0389412  78.3752659  14.0994975  21.4205858
  77.4982126  13.9783776  21.0568105  78.8510412  13.3081054  21.1684746
  88.2425652  22.5548043  38.1904314  87.3552431  22.2173965  38.3130712
  88.8124203  21.8231075  38.4273079  69.8954799  18.8872135  31.5147365
  70.5825839  18.5733865  30.9268380  69.7402928  19.7913500  31.2414616
  74.6989521  13.7762332  35.9432389  74.6147710  13.1688001  35.2082799
  73.8772228  14.2671350  35.9441885  81.7726806  27.2149496  35.1565557
  81.6996977  28.0204467  35.6684861  81.3304199  27.4141462  34.3313578
  81.5616585  26.4521266  28.6668378  80.7784107  26.9942946  28.7606603
  82.2609330  26.9695245  29.0662620  84.8713235  12.2615895  31.3102584
  85.3681935  11.5085858  30.9903654  84.1000217  12.2980212  30.7445793
  92.7242993  17.9656261  32.9520875  92.7132869  18.8480976  32.5814808
  91.8560372  17.6127812  32.7575412  84.2325489  27.1136330  37.3123715
  84.9453461  27.7483795  37.2399617  83.7415518  27.2100196  36.4963717
  85.9543016  21.0187582  28.8841007  85.0199295  21.1389045  28.7145711
  86.1319685  20.1160049  28.6201017  81.4548204  14.4033278  31.0374268
  81.0845992  13.8504319  31.7255174  81.9507297  13.7991412  30.4849268
  89.3415567  16.8604902  29.4191041  89.8076020  17.6932893  29.3451344
  89.7923068  16.3949883  30.1236300  79.2837403  24.8630773  38.1329286
  79.9846862  25.4967256  38.2858681  78.8132518  25.2045505  37.3724926
  87.4091799  23.2048723  26.4177193  87.6851642  23.0905318  27.3271067
  86.5396297  22.8066208  26.3789366  87.3132230   9.2285489  33.4581943
  86.3995310   9.4589716  33.6264150  87.7425332   9.3123933  34.3095975
  87.0838689  17.4175381  35.9581837  86.4310139  17.6651288  35.3034289
  87.4619069  16.6039519  35.6244314  84.0445863  27.4535074  30.0610007
  84.2268257  26.6356730  30.5237759  84.8678849  27.6702766  29.6234897
  84.3788028  26.3803259  27.3225055  84.9075794  25.8695714  26.7095218
  84.6416248  26.0645789  28.1870588  83.1326262  18.1595192  42.4447874
  82.4566899  18.0589321  43.1150249  83.9553896  18.0034405  42.9083871
  74.8805121  24.3967128  35.0660389  75.4658558  23.6510816  35.1988293
  74.6829959  24.7071085  35.9497053  77.7343776  27.4318376  30.0822831
  77.0654151  27.9164503  29.5986871  77.5956646  27.6787596  30.9966210
  69.4722775  16.9672728  33.7864832  69.5106875  16.4336319  34.5801950
  68.9663068  16.4407934  33.1675809  81.8749045  29.4662119  36.6805490
  82.4267353  29.6293741  37.4454575  82.2155238  30.0566557  36.0085515
  76.8513538  11.8137269  37.2827374  76.9154864  12.6752100  36.8704772
  76.7880658  11.2011271  36.5499733  76.3265810  13.8860402  40.9300409
  76.9537849  13.5037479  41.5437933  75.4693729  13.6674603  41.2956101
  86.7259919  24.2923377  42.5354144  87.2699823  24.9053335  42.0409099
  86.1446764  24.8502955  43.0521157  73.1031353  15.6936831  26.8618763
  73.3984794  14.7847509  26.8085817  72.2019389  15.6724570  26.5399766
  85.0117432  27.4144095  33.6669172  84.8868571  26.6133835  33.1580117
  85.6696523  27.9090288  33.1783142  76.6325600  13.7692827  32.8446312
  75.9112186  14.3828795  32.7053785  77.4218856  14.3050592  32.7662958
  87.0752340  25.2153115  35.2948722  86.1282676  25.0958466  35.2227049
  87.4235113  24.3275613  35.3774983  79.4351914  11.1047254  39.1186964
  79.9586315  11.3509550  39.8813273  79.2164247  11.9367289  38.6990101
  74.8319195  13.3750928  26.9858089  74.5031901  12.4948307  26.8033195
  75.1858565  13.3198597  27.8734478  84.0798774  25.0105831  31.4953074
  83.9323736  24.0822538  31.6760644  84.9052267  25.0325922  31.0110149
  77.9461018  13.6623898  27.3533566  78.2857090  14.1909819  26.6312175
  78.3933138  14.0004304  28.1292133  87.6832895  25.8334390  32.5817947
  88.6079443  25.6277251  32.4442398  87.5148199  25.5850791  33.4907288
  80.6404459  12.0460949  36.8036634  80.3001279  11.2468762  37.2057314
  79.9343465  12.3462660  36.2313468  81.2920930   9.1310261  35.2563957
  82.1147000   8.6570739  35.1342848  81.5358994   9.9100745  35.7562644
  79.9329165  12.1598520  25.5526859  80.6537527  12.5379772  25.0490576
  79.3094469  12.8787396  25.6561837  84.0760288  12.8643669  26.4885191
  84.2923902  13.7468307  26.1874020  83.5954355  12.4729882  25.7590833
  78.8159509  15.8229382  33.0655936  78.6704090  16.1369685  33.9580218
  78.3384713  16.4414282  32.5126835  80.6755892  12.8131930  33.1136826
  80.6617461  11.9173023  32.7769124  81.3928320  12.8202594  33.7475112
  82.5282023  13.2469270  35.1589953  82.2699801  14.1686341  35.1574283
  81.9967063  12.8499705  35.8490417  87.4728212  26.3520057  27.9380038
  87.6465089  25.7866480  27.1853891  87.9657103  27.1520952  27.7559528
  73.2905171  18.3634726  36.0043597  72.7458639  19.1394534  36.1363872
  74.1684521  18.7105531  35.8462719  80.0792788  11.6946310  28.3824396
  80.2008699  10.7662956  28.5815283  79.7894830  11.7084996  27.4702711
  82.9483978   9.3801221  31.5191116  82.9705675   9.4440554  30.5643095
  83.3652037   8.5405729  31.7131622  93.3267603  19.1156480  29.5570338
  93.7698749  18.3663805  29.1589461  92.4494113  19.1066616  29.1744070
  88.4603384  25.6686822  25.0376937  89.1554289  26.2893514  25.2564251
  88.8026534  24.8182173  25.3129315  74.0771193  17.4904623  38.8973754
  73.3352929  17.6387258  39.4838384  73.7563938  17.7512888  38.0340503
  90.3594807  23.1186527  26.5664267  90.8846131  23.4573800  25.8413587
  90.2717160  22.1833542  26.3827402  82.0214856  27.0320601  38.6954144
  82.3301982  26.7869748  39.5676844  82.8190338  27.2367239  38.2073014
  82.0435468  29.1858510  30.9259521  81.6040458  28.6934889  31.6192377
  82.7943585  28.6431478  30.6851596  74.5227807  25.3770051  30.9284149
  75.3485827  25.0773823  30.5482792  74.1721859  24.6077674  31.3773937
  79.4909340  24.7296519  32.9981822  78.8689349  24.0667225  32.6984050
  80.1614207  24.7557651  32.3155470  72.7236412  23.2956378  31.8873082
  71.8868320  22.8678552  31.7057084  72.6960057  23.4888821  32.8243873
  79.5633868  13.2078308  42.5914328  79.6122023  14.0840430  42.2092098
  80.1056382  12.6655701  42.0185972  90.0488713  23.7519431  41.8715465
  89.2584257  23.7343570  41.3319965  89.8122068  24.2907724  42.6264502
  90.1686588  20.6011897  39.1848194  90.2184593  20.4361905  40.1263717
  90.0600512  19.7339156  38.7946075  79.0522847  23.2800443  26.4740283
  79.2010967  23.9635907  25.8206956  79.8589290  23.2605533  26.9889739
  87.4590351  16.5842825  40.5007501  88.3600213  16.4449290  40.2091498
  87.5338325  16.7497280  41.4405678  81.7933156  13.9609680  39.3460687
  80.9236465  14.2543246  39.0743276  82.0292636  14.5450125  40.0667951
  91.6704785  23.0208839  39.4290215  91.3789593  23.3838819  40.2653676
  91.0576916  22.3075847  39.2503548  92.8700467  20.5861718  31.9492786
  93.7047359  21.0251523  32.1130346  93.0059596  20.1100372  31.1301031
  89.9191973  18.1441453  37.8970273  90.3946095  18.3369100  37.0889125
  88.9957539  18.2000639  37.6513657  76.8075480  19.3065620  27.4801352
  76.5621522  18.4027950  27.6781562  76.9771395  19.3082771  26.5380830
  84.4972190  10.1789297  36.8626107  85.0154134  10.9150324  36.5372596
  84.1427323  10.4853290  37.6972866  76.0771127  15.0393978  24.9787513
  75.3840372  15.1138333  24.3227549  75.8322879  14.2754322  25.5009030
  84.7484784   6.5989579  32.3827004  85.0286538   5.9312768  33.0087430
  85.5335391   6.7918675  31.8701668  82.5518253  25.7748573  23.9452030
  81.9792220  26.3938760  23.4922502  83.1251046  26.3247935  24.4791952
  88.6193642  15.0207213  36.1298579  89.5711065  15.1205311  36.1510803
  88.4497093  14.2285482  36.6396663  86.6408022  12.1062797  36.3157980
  86.0457954  12.3867809  35.6204469  86.3557719  12.5956698  37.0874721
  85.7715512  26.0585723  25.0760613  86.7046185  25.9931285  25.2793488
  85.6838725  26.8941990  24.6175145  88.4003529  25.3751594  22.0364560
  88.3217160  25.0411457  22.9300318  89.2213196  25.8673362  22.0356032
  91.0981720  18.2413333  35.2440879  91.0658040  17.3029334  35.4300563
  91.7082344  18.3197370  34.5106704  82.9365051  17.1109386  21.2868083
  83.8824156  16.9815594  21.3556501  82.5579296  16.3724048  21.7637511
  91.2476209  15.0324376  35.2899162  90.7315257  14.2482833  35.1029091
  92.1316157  14.7043093  35.4545681  88.9086936   8.7765392  31.2494975
  88.7111757   8.4680480  32.1338307  89.5186641   9.5027031  31.3792904
  96.9158270  19.3029340  34.3846916  97.6461658  19.0414628  34.9454619
  96.3065215  18.5658062  34.4248983  94.9973567  17.4437202  34.9821367
  94.2706731  17.3093167  34.3737858  94.5820854  17.7514031  35.7878085
  82.8203744  21.1627132  42.7468740  83.7406753  21.3405731  42.9408786
  82.7853327  20.2183178  42.5948439  81.1207968  15.0359362  21.2222968
  80.2139424  14.7392475  21.2985682  81.3983949  14.7389181  20.3557254
  72.0385909  16.3565726  31.6722014  71.7188693  15.5031034  31.3796388
  71.4919337  16.5714304  32.4279982  75.8165816  19.0728167  35.3891521
  76.0351826  20.0045275  35.4079555  76.2291590  18.7136141  36.1746325
  82.7370034   9.5796252  27.3767209  81.9270762   9.2343337  27.7522455
  83.4254451   9.2703796  27.9654821  84.6660582   8.6574299  28.9991506
  85.2191621   9.0769752  29.6581529  84.9030669   7.7310047  29.0414462
  80.6893681  14.6461373  44.7794270  80.5890408  15.5955730  44.7106361
  80.4715223  14.3179611  43.9070340  79.8906753  11.8946298  21.3634947
  80.7525917  12.2201196  21.6230765  80.0757097  11.1077794  20.8508013
  71.9074169  19.9768637  33.6415136  71.2137640  19.5622590  33.1285090
  72.6547160  20.0189174  33.0448555  88.0439389  10.7674824  28.5070170
  87.4638058  11.4259628  28.1248223  87.7775322   9.9452169  28.0957588
  86.4942956  10.1679882  30.7091491  86.9942734  10.2796416  29.9005809
  87.1378564   9.8640935  31.3492299  80.5524951  18.0758511  43.5959331
  80.0692033  18.8758872  43.8023221  80.6385891  18.0866456  42.6426775
  73.8210911  19.9086891  31.5181151  73.7981599  20.0074578  30.5663034
  74.1311548  20.7552042  31.8398317  76.4798289  21.9663046  35.6327765
  77.4341542  21.9346988  35.5657697  76.2810813  21.5053670  36.4477991
  77.0697671  20.5364162  38.1998563  77.8890560  21.0308241  38.2233400
  77.3434479  19.6196130  38.1716130  86.8264267  12.9274914  27.5626518
  85.9390122  13.2124565  27.3446713  87.2418256  12.7668678  26.7153795
  90.1778803  12.9521435  31.2780858  90.9539194  13.4417888  31.5505475
  89.4526938  13.3779490  31.7352727  92.6151362  13.6649055  32.3354798
  93.2095853  13.4244791  31.6248107  92.6877946  12.9456185  32.9628335
  74.8348518  27.5082666  32.6497963  74.7002986  26.7483067  32.0835961
  74.4180580  28.2323565  32.1826752  85.9707481  22.6919589  21.6574538
  86.6743331  22.8969592  22.2732194  85.2470130  23.2596351  21.9223622
  86.8005291  18.4429450  27.7776809  86.7440492  18.8998002  26.9384441
  87.3533633  17.6820135  27.5999651  90.6110097  14.2319182  28.6026928
  90.3547031  13.8315818  29.4335136  89.9862965  14.9462976  28.4777067
  94.9222435  16.9715256  31.1098220  94.3621993  17.0408445  31.8829782
  94.3165938  16.7956240  30.3897716  77.9917644  28.4051983  32.8616406
  77.8750028  29.3497415  32.7595096  77.1710090  28.1025544  33.2502205
  87.8794178  23.1302118  23.7072998  88.7139782  22.6983317  23.5250473
  87.7178521  22.9584132  24.6349893  87.5340070  19.6334232  25.0729338
  87.4788874  19.4678503  24.1317782  86.9086126  20.3410265  25.2291527
  72.3232585  14.8702296  38.8990760  72.9691449  14.3601250  39.3877985
  72.1149736  15.6070978  39.4734185  84.8485978  21.9383144  44.3982901
  85.7177137  22.1123796  44.0369535  84.3692729  22.7577560  44.2758630
  80.8436196   9.1342341  24.6514656  80.8314866  10.0784181  24.8082927
  81.7359618   8.9512486  24.3574117  79.0172158  29.0580245  36.0772334
  79.9199404  29.0903855  36.3938829  78.7909528  28.1280695  36.0918670
  80.7725760  27.8111231  32.7382413  79.8221391  27.8113093  32.6246785
  81.0758246  27.0643966  32.2218447  84.6588315   5.7285117  28.9060593
  83.8920711   5.1743604  29.0517275  85.0699020   5.8006986  29.7674745
  76.6630076  12.0169913  42.9965774  77.5261538  11.6606718  43.2069099
  76.0895487  11.6783808  43.6841178  96.5078453  33.6471769  33.8028175
  97.1456863  33.5278517  33.0991515  96.3899296  34.5952613  33.8616127
  93.3168160  33.5999198  33.7389700  92.9786671  33.4840262  32.8510235
  94.1857928  33.1990363  33.7190706  89.1754975  35.4534674  29.7286591
  88.6119840  35.3624611  28.9602879  89.0607370  34.6334578  30.2089083
  93.7987943  34.7534049  39.6975905  93.7876583  34.3586848  38.8256409
  93.9608582  34.0200122  40.2909677  86.7219407  36.9485866  32.5670811
  87.5140699  36.6076690  32.1517111  86.9616057  37.0580841  33.4872965
  94.7554534  39.1205642  25.0401056  94.1042514  39.7059722  24.6535070
  95.5498897  39.6511837  25.0996093  88.6810161  36.2094779  25.4388190
  89.4541037  35.6623766  25.3001066  89.0335560  37.0739028  25.6502652
  90.5195204  37.5371161  38.6455089  90.2285070  38.4416792  38.5301756
  91.1552188  37.5787689  39.3599159  91.4451411  34.9148010  35.2356449
  92.0414983  34.6904032  34.5213412  91.5026382  34.1732755  35.8381897
  91.0176439  32.3687445  23.0706640  91.2701960  31.8468966  22.3090103
  90.0800998  32.2053590  23.1733324  96.0619722  31.3723223  30.8781383
  96.8482811  30.9542646  30.5271800  96.3258426  32.2769315  31.0463032
  96.2329799  36.8096074  25.5770040  95.5975632  36.8830700  26.2890945
  95.9027206  37.3989672  24.8989119 101.4628149  31.3098457  31.7814362
 102.1953321  30.7397673  32.0152191 100.7067505  30.9220057  32.2220867
  90.7372728  34.2715551  25.2731015  90.6208986  33.5960454  25.9412099
  90.8474988  33.7847925  24.4563168  93.0804269  33.7325698  28.9777704
  92.7162476  33.2056319  29.6890626  93.9371384  33.3424167  28.8044190
  98.9853569  25.0220031  36.2408970  98.6536894  25.8915442  36.0170185
  98.3899183  24.7056315  36.9203001  92.7209756  28.7615598  23.9739053
  92.8884158  29.6295834  24.3409524  92.5306925  28.9242879  23.0500342
  95.4785089  37.2232577  35.6404883  95.1785812  38.1257615  35.5320690
  95.1336148  36.9564760  36.4926036  88.9297570  33.6746373  31.6741588
  88.0048067  33.5422588  31.8819279  89.1781983  34.4540593  32.1711530
  98.8782233  29.7415117  33.3202320  97.9699110  29.6730525  33.0261081
  98.8269828  30.2187062  34.1484146  92.6998976  31.2173255  24.9585720
  92.5798602  31.6630306  25.7971200  92.0051565  31.5658573  24.3999258
  86.2906381  33.3179647  32.5085377  86.4198762  33.5714126  33.4224788
  85.6103833  33.9107355  32.1890032  90.4605869  43.9876897  28.6075851
  90.3829898  44.9384722  28.6864331  89.8567512  43.6422769  29.2650777
  92.9523098  31.1604762  41.2637218  92.1756432  31.7198683  41.2540082
  93.5913661  31.6461545  41.7852088 100.7443879  27.9431555  35.0980194
 100.1018259  28.2364088  34.4519989 100.2398807  27.8284476  35.9033391
  98.3984043  31.6894728  25.7866054  99.3101899  31.9222115  25.6113751
  97.8893690  32.2731773  25.2241132  91.2069471  33.9690216  40.8255185
  91.9484155  34.5075260  40.5490008  90.5006456  34.5956505  40.9826737
  96.6824810  36.1119356  39.4227346  97.0908166  35.6701767  38.6781979
  95.9602072  35.5371984  39.6761539  93.0355880  31.0491963  36.7960903
  93.8817076  31.4731377  36.9395552  92.9754518  30.3925587  37.4899466
  97.0053625  36.6720547  33.1779635  96.3762487  36.8366261  32.4755703
  96.6179287  37.0862156  33.9490599 100.8842857  37.6074985  30.5323999
 100.1993895  37.9873886  29.9821032 100.9686706  38.2170311  31.2655947
  96.1855326  28.7096331  38.4542077  95.9416258  29.4638392  37.9176352
  96.4615256  29.0881679  39.2889324  98.1393788  35.2534944  37.1319342
  98.3510684  35.8966704  36.4553723  98.0923537  34.4197260  36.6641272
  95.7420017  27.8652764  34.0355915  94.8804496  28.1634018  34.3272652
  95.7682452  28.0823163  33.1036947  92.5581587  36.4094955  30.4429720
  93.0219932  36.6882658  29.6534343  92.2938385  35.5078400  30.2602811
  89.4505668  35.9566436  33.3809483  90.0207025  36.3853705  32.7426968
  90.0413780  35.6749021  34.0793669  91.4950473  32.5318107  27.2519285
  92.1974516  32.9839151  27.7193212  91.1631101  31.8901926  27.8799178
  89.9430834  31.1229864  41.6270495  89.3129495  31.8046145  41.8605892
  89.8366922  31.0112946  40.6823633  85.2375807  30.7901660  32.5536419
  84.4474861  31.0459188  32.0776530  85.7287054  31.6049998  32.6588459
  87.1890552  31.1546239  29.5119896  86.3921715  31.2664933  30.0303391
  86.9616144  31.4932891  28.6460786  93.0196220  37.6790942  37.4602410
  93.0840652  38.1411350  38.2960582  92.3107144  37.0488307  37.5884720
  83.5213510  31.0432150  34.9851410  83.7721548  31.9279160  35.2508986
  84.0573058  30.8636752  34.2126502 107.3445609  34.4745648  31.6526671
 106.5909318  33.9053046  31.4970676 107.4793151  34.4408312  32.5997306
  92.7344237  39.3459050  27.3281391  92.5989912  40.1910586  27.7566238
  93.2754050  39.5478328  26.5647324  89.2211577  25.4250630  43.9895746
  88.8278523  24.8716828  44.6643390  90.0377717  25.7361208  44.3802263
  86.1873635  36.8634488  27.9009316  86.6998155  37.6577738  28.0514880
  86.8396348  36.1660778  27.8342917  87.9968520  39.9800244  29.9832069
  88.1735148  40.9018209  29.7953053  88.7925353  39.6658663  30.4126449
  92.1379538  26.8408509  41.5816002  92.8789251  27.4415662  41.5020465
  92.3697461  26.0986147  41.0234045  87.2820876  32.0264876  39.8594232
  87.1674391  31.1250133  40.1601331  86.4265394  32.2728573  39.5079049
  94.3612714  39.9682616  41.4581733  93.9176568  39.1818995  41.1402637
  95.0229927  40.1561767  40.7925623  89.1199835  41.4978418  35.9842411
  89.6707260  41.3695481  35.2119405  88.2811311  41.7973307  35.6337304
  92.9167006  37.7629546  40.3286642  93.4495343  37.0017834  40.0985950
  92.3881087  37.4703198  41.0710797  96.0836701  22.8689612  35.8580284
  95.7400970  23.7591253  35.7819395  96.4515664  22.6791269  34.9949869
  84.1522552  35.1923142  28.6768886  84.9897774  35.6020151  28.4602594
  84.3300819  34.2522584  28.6469080  96.0486984  32.8598223  24.3652719
  95.5333607  33.6302828  24.6041107  95.7764292  32.1863359  24.9885781
  93.6334095  27.7047924  29.4237957  92.7775691  27.3154774  29.2443596
  94.0461047  27.7839884  28.5637743  95.1633241  25.2394267  33.8229517
  94.6598037  25.2024402  33.0097323  95.4563848  26.1487010  33.8826174
  91.4076127  25.3232997  32.8295699  92.2729124  25.1275805  32.4701588
  91.4753636  25.0943348  33.7565056 101.0221258  35.6130578  26.3005893
 100.2450701  35.2741737  25.8561055 101.7012739  35.6183201  25.6260858
  95.8373287  30.7325315  26.1912500  95.5323422  31.0471464  27.0422643
  96.7903729  30.8106735  26.2339833  94.2819719  36.8915538  27.8405454
  93.7541080  36.1568298  27.5278692  93.7807221  37.6690215  27.5945423
  99.2612565  35.0864559  32.9572501  98.6036239  35.7763820  33.0452629
 100.0652964  35.4760991  33.3006487  89.0138446  27.5535205  30.2012066
  89.5882198  27.3310386  29.4685259  89.6009429  27.6223899  30.9540667
  98.0718024  33.4408931  31.0076442  98.5849905  34.0738923  31.5098152
  98.7219247  32.8410127  30.6419802  89.3408033  29.5839666  24.2207951
  88.5045346  29.9214352  24.5417226  89.2012803  29.4488645  23.2835088
  91.3161114  24.4276453  28.9287135  90.6625526  24.1125471  28.3043750
  91.2741588  23.8052194  29.6546958  92.4272319  34.7095749  20.8440427
  91.5199381  34.4785002  21.0431576  92.9243351  33.9133368  21.0314409
  95.3340398  43.4193256  23.7637113  94.6602097  43.7224953  24.3722071
  95.7206220  44.2222336  23.4142571  94.5498854  30.9158387  33.2534783
  93.6321416  31.1373334  33.0956471  94.9658998  30.9904698  32.3946490
  95.3333902  32.3149803  28.3837463  96.0805721  32.8271200  28.0744585
  95.6025492  31.9933855  29.2441857  93.6060552  34.8108343  25.3664417
  92.6971772  34.5267376  25.4636887  93.6355636  35.2307422  24.5067724
  98.8379820  38.4214933  29.1355585  98.3842147  37.5805843  29.1920775
  98.2073787  39.0576331  29.4730365  97.7812739  29.3506919  30.3656252
  97.0435496  28.8384305  30.6966495  98.0339513  28.9107301  29.5539529
  97.2812759  40.2591430  30.0705403  97.5735733  40.8196487  29.3517769
  97.7911380  40.5519991  30.8258562  97.8824367  22.1283171  30.9598022
  98.1883243  21.2680534  30.6723937  98.6076971  22.7200791  30.7597016
  84.1748723  32.5313858  29.3479620  83.9773123  31.9383218  28.6230686
  83.6195387  32.2266068  30.0655558  92.1545446  32.4236964  31.4674213
  92.2094056  31.4710800  31.3916689  91.3436648  32.5796403  31.9515511
  93.3036640  36.3517087  22.7052496  92.8656070  35.6352946  22.2458133
  94.0447081  36.5793202  22.1437587  90.0937806  31.0414024  29.2264592
  89.2805672  31.3408194  29.6329784  90.5896801  30.6469713  29.9439074
  92.2446384  41.0371781  31.1598856  92.2022563  41.2632627  30.2307388
  93.1609083  40.8035155  31.3084657  95.6912018  31.5055848  38.0579486
  96.0461406  31.7327321  38.9173951  96.3384149  31.8374225  37.4356741
 101.4209755  34.6274284  28.7628815 101.2827654  34.8175880  27.8350004
 101.0645974  35.3893667  29.2196866  89.5851881  28.6132379  34.8425827
  90.2251260  28.4721138  34.1448790  88.7529412  28.3266893  34.4664429
 101.4479135  36.6950811  33.7740086 101.8815641  36.6026100  34.6223140
 102.1610715  36.6708312  33.1360102  90.3612185  37.9134810  30.9560819
  91.1552784  37.4185130  30.7543394  89.6503877  37.3852673  30.5928525
  95.1807029  40.2952905  35.3073187  95.2344052  40.8643842  36.0750903
  94.3121811  40.4654790  34.9427224  86.6694948  32.0577891  27.0320572
  85.7392537  31.9962347  27.2490534  86.7652420  31.5353844  26.2357213
  86.5880498  28.5832704  29.6198813  86.8487315  29.4978038  29.5107974
  87.4097670  28.1157147  29.7695426  88.0605423  29.9970461  36.7897638
  88.7328476  29.7887824  36.1410287  87.2335209  29.7992547  36.3502870
  93.9630995  26.6232402  38.8063299  93.3158910  27.3222352  38.7127775
  94.7332010  27.0568546  39.1739547  97.3709793  36.8881255  41.8813852
  97.2195299  36.6591806  40.9643936  97.3614472  37.8451856  41.8945197
  94.1395129  34.4613167  36.8660118  95.0687189  34.6124327  36.6929086
  93.7186159  34.5497188  36.0108765  92.9383461  38.4863832  34.6358656
  92.7994547  38.1182616  35.5084594  92.1498057  39.0011471  34.4642614
  93.5331613  43.5872928  25.9784193  93.7083369  43.1160971  26.7929815
  92.8464401  44.2138694  26.2065453  94.4888676  37.8645434  32.0247494
  94.1538509  37.8246204  32.9205144  93.9892622  37.1990150  31.5517904
  88.4632920  33.2713064  37.5500075  88.3252718  32.5393303  38.1511614
  89.3737844  33.1821965  37.2684263  97.4247868  35.2101469  22.2984554
  96.8077038  34.4848297  22.2017606  96.9564356  35.9710829  21.9551628
  91.0915221  32.9833024  37.0383755  91.8014839  32.3426216  36.9970373
  91.0484529  33.2345919  37.9609935  89.8044155  29.9698242  38.8579394
  89.2681512  29.5188980  39.5100991  89.2160863  30.1044150  38.1149859
  88.0992698  46.7362291  32.7524053  88.3389296  47.3680815  33.4303071
  87.2561895  46.3850331  33.0389412  89.2146414  29.4286893  21.4205858
  88.3375880  29.3075694  21.0568105  89.6904167  28.6372971  21.1684746
  80.7348554  34.2164053  31.5147365  81.4219594  33.9025783  30.9268380
  80.5796683  35.1205417  31.2414616  85.5383276  29.1054249  35.9432389
  85.4541465  28.4979919  35.2082799  84.7165982  29.5963268  35.9441885
  92.6120560  42.5441413  35.1565557  92.5390732  43.3496385  35.6684861
  92.1697953  42.7433379  34.3313578  92.4010340  41.7813183  28.6668378
  91.6177862  42.3234864  28.7606603  93.1003085  42.2987163  29.0662620
  95.7106990  27.5907813  31.3102584  96.2075689  26.8377775  30.9903654
  94.9393971  27.6272130  30.7445793 103.5636747  33.2948178  32.9520875
 103.5526624  34.1772894  32.5814808 102.6954127  32.9419729  32.7575412
  95.0719244  42.4428247  37.3123715  95.7847216  43.0775712  37.2399617
  94.5809272  42.5392113  36.4963717  96.7936771  36.3479500  28.8841007
  95.8593049  36.4680963  28.7145711  96.9713439  35.4451967  28.6201017
  92.2941959  29.7325196  31.0374268  91.9239746  29.1796236  31.7255174
  92.7901051  29.1283329  30.4849268 100.1809322  32.1896819  29.4191041
 100.6469774  33.0224811  29.3451344 100.6316822  31.7241801  30.1236300
  90.1231157  40.1922691  38.1329286  90.8240617  40.8259174  38.2858681
  89.6526272  40.5337422  37.3724926  98.2485553  38.5340641  26.4177193
  98.5245397  38.4197235  27.3271067  97.3790052  38.1358126  26.3789366
  98.1525985  24.5577406  33.4581943  97.2389064  24.7881633  33.6264150
  98.5819086  24.6415850  34.3095975  97.9232443  32.7467298  35.9581837
  97.2703893  32.9943206  35.3034289  98.3012823  31.9331437  35.6244314
  94.8839617  42.7826992  30.0610007  95.0662012  41.9648647  30.5237759
  95.7072603  42.9994684  29.6234897  95.2181783  41.7095177  27.3225055
  95.7469549  41.1987631  26.7095218  95.4810002  41.3937707  28.1870588
  93.9720016  33.4887109  42.4447874  93.2960653  33.3881239  43.1150249
  94.7947650  33.3326323  42.9083871  85.7198875  39.7259046  35.0660389
  86.3052312  38.9802734  35.1988293  85.5223714  40.0363003  35.9497053
  88.5737530  42.7610293  30.0822831  87.9047906  43.2456421  29.5986871
  88.4350400  43.0079514  30.9966210  80.3116530  32.2964646  33.7864832
  80.3500629  31.7628237  34.5801950  79.8056823  31.7699852  33.1675809
  92.7142799  44.7954037  36.6805490  93.2661107  44.9585658  37.4454575
  93.0548993  45.3858475  36.0085515  87.6907292  27.1429187  37.2827374
  87.7548619  28.0044018  36.8704772  87.6274413  26.5303188  36.5499733
  87.1659565  29.2152319  40.9300409  87.7931604  28.8329397  41.5437933
  86.3087484  28.9966521  41.2956101  83.9425108  31.0228748  26.8618763
  84.2378549  30.1139427  26.8085817  83.0413143  31.0016488  26.5399766
  95.8511186  42.7436012  33.6669172  95.7262326  41.9425752  33.1580117
  96.5090277  43.2382206  33.1783142  87.4719355  29.0984745  32.8446312
  86.7505940  29.7120713  32.7053785  88.2612610  29.6342510  32.7662958
  90.2745668  26.4339171  39.1186964  90.7980070  26.6801468  39.8813273
  90.0558001  27.2659206  38.6990101  85.6712949  28.7042846  26.9858089
  85.3425655  27.8240225  26.8033195  86.0252320  28.6490515  27.8734478
  94.9192528  40.3397749  31.4953074  94.7717490  39.4114456  31.6760644
  95.7446022  40.3617839  31.0110149  88.7854772  28.9915816  27.3533566
  89.1250845  29.5201737  26.6312175  89.2326893  29.3296222  28.1292133
  98.5226650  41.1626307  32.5817947  99.4473197  40.9569169  32.4442398
  98.3541953  40.9142709  33.4907288  91.4798213  27.3752866  36.8036634
  91.1395033  26.5760680  37.2057314  90.7737219  27.6754577  36.2313468
  92.1314685  24.4602179  35.2563957  92.9540754  23.9862657  35.1342848
  92.3752748  25.2392663  35.7562644  90.7722919  27.4890437  25.5526859
  91.4931282  27.8671690  25.0490576  90.1488224  28.2079314  25.6561837
  94.9154042  28.1935586  26.4885191  95.1317657  29.0760224  26.1874020
  94.4348109  27.8021800  25.7590833  89.6553264  31.1521300  33.0655936
  89.5097844  31.4661603  33.9580218  89.1778467  31.7706200  32.5126835
  91.5149647  28.1423848  33.1136826  91.5011215  27.2464941  32.7769124
  92.2322075  28.1494511  33.7475112  93.3675777  28.5761188  35.1589953
  93.1093555  29.4978258  35.1574283  92.8360818  28.1791622  35.8490417
  98.3121966  41.6811975  27.9380038  98.4858844  41.1158397  27.1853891
  98.8050857  42.4812870  27.7559528  84.1298926  33.6926644  36.0043597
  83.5852394  34.4686452  36.1363872  85.0078276  34.0397448  35.8462719
  90.9186543  27.0238228  28.3824396  91.0402454  26.0954874  28.5815283
  90.6288585  27.0376914  27.4702711  93.7877733  24.7093138  31.5191116
  93.8099430  24.7732471  30.5643095  94.2045792  23.8697647  31.7131622
 104.1661357  34.4448398  29.5570338 104.6092503  33.6955723  29.1589461
 103.2887868  34.4358534  29.1744070  99.2997139  40.9978739  25.0376937
  99.9948043  41.6185432  25.2564251  99.6420289  40.1474090  25.3129315
  84.9164948  32.8196540  38.8973754  84.1746684  32.9679176  39.4838384
  84.5957692  33.0804806  38.0340503 101.1988562  38.4478445  26.5664267
 101.7239886  38.7865718  25.8413587 101.1110914  37.5125460  26.3827402
  92.8608610  42.3612518  38.6954144  93.1695737  42.1161665  39.5676844
  93.6584092  42.5659157  38.2073014  92.8829222  44.5150428  30.9259521
  92.4434213  44.0226807  31.6192377  93.6337339  43.9723396  30.6851596
  85.3621561  40.7061969  30.9284149  86.1879581  40.4065741  30.5482792
  85.0115613  39.9369591  31.3773937  90.3303095  40.0588437  32.9981822
  89.7083104  39.3959142  32.6984050  91.0007961  40.0849569  32.3155470
  83.5630166  38.6248295  31.8873082  82.7262075  38.1970470  31.7057084
  83.5353812  38.8180739  32.8243873  90.4027622  28.5370225  42.5914328
  90.4515778  29.4132348  42.2092098  90.9450136  27.9947618  42.0185972
 101.0080343  35.9303815  39.1848194 101.0578348  35.7653822  40.1263717
 100.8994266  35.0631074  38.7946075  89.8916601  38.6092361  26.4740283
  90.0404722  39.2927825  25.8206956  90.6983045  38.5897451  26.9889739
  98.2984105  31.9134743  40.5007501  99.1993968  31.7741208  40.2091498
  98.3732080  32.0789198  41.4405678  92.6326910  29.2901598  39.3460687
  91.7630220  29.5835164  39.0743276  92.8686391  29.8742043  40.0667951
 103.7094222  35.9153636  31.9492786 104.5441113  36.3543440  32.1130346
 103.8453351  35.4392289  31.1301031 100.7585728  33.4733371  37.8970273
 101.2339849  33.6661017  37.0889125  99.8351293  33.5292557  37.6513657
  87.6469234  34.6357538  27.4801352  87.4015276  33.7319868  27.6781562
  87.8165149  34.6374689  26.5380830  95.3365944  25.5081215  36.8626107
  95.8547888  26.2442241  36.5372596  94.9821077  25.8145208  37.6972866
  86.9164882  30.3685896  24.9787513  86.2234127  30.4430251  24.3227549
  86.6716634  29.6046239  25.5009030  95.5878538  21.9281497  32.3827004
  95.8680292  21.2604686  33.0087430  96.3729145  22.1210593  31.8701668
  93.3912007  41.1040491  23.9452030  92.8185974  41.7230678  23.4922502
  93.9644801  41.6539853  24.4791952  99.4587397  30.3499131  36.1298579
 100.4104820  30.4497229  36.1510803  99.2890847  29.5577400  36.6396663
  97.4801776  27.4354714  36.3157980  96.8851708  27.7159727  35.6204469
  97.1951473  27.9248615  37.0874721  96.6109267  41.3877641  25.0760613
  97.5439940  41.3223203  25.2793488  96.5232480  42.2233908  24.6175145
  99.2397283  40.7043511  22.0364560  99.1610915  40.3703375  22.9300318
 100.0606950  41.1965279  22.0356032 101.9375475  33.5705251  35.2440879
 101.9051795  32.6321251  35.4300563 102.5476098  33.6489287  34.5106704
  93.7758805  32.4401304  21.2868083  94.7217910  32.3107512  21.3556501
  93.3973050  31.7015966  21.7637511 102.0869963  30.3616294  35.2899162
 101.5709012  29.5774751  35.1029091 102.9709912  30.0335011  35.4545681
  99.7480690  24.1057310  31.2494975  99.5505511  23.7972398  32.1338307
 100.3580396  24.8318949  31.3792904 107.7552024  34.6321258  34.3846916
 108.4855413  34.3706546  34.9454619 107.1458970  33.8949980  34.4248983
 105.8367322  32.7729120  34.9821367 105.1100485  32.6385085  34.3737858
 105.4214608  33.0805949  35.7878085  93.6597498  36.4919050  42.7468740
  94.5800507  36.6697649  42.9408786  93.6247081  35.5475095  42.5948439
  91.9601723  30.3651280  21.2222968  91.0533178  30.0684393  21.2985682
  92.2377704  30.0681098  20.3557254  82.8779663  31.6857644  31.6722014
  82.5582447  30.8322952  31.3796388  82.3313091  31.9006222  32.4279982
  86.6559571  34.4020085  35.3891521  86.8745580  35.3337192  35.4079555
  87.0685344  34.0428059  36.1746325  93.5763788  24.9088170  27.3767209
  92.7664517  24.5635255  27.7522455  94.2648205  24.5995714  27.9654821
  95.5054337  23.9866217  28.9991506  96.0585375  24.4061670  29.6581529
  95.7424423  23.0601965  29.0414462  91.5287436  29.9753290  44.7794270
  91.4284163  30.9247647  44.7106361  91.3108978  29.6471529  43.9070340
  90.7300507  27.2238215  21.3634947  91.5919671  27.5493114  21.6230765
  90.9150851  26.4369711  20.8508013  82.7467923  35.3060555  33.6415136
  82.0531394  34.8914508  33.1285090  83.4940914  35.3481092  33.0448555
  98.8833144  26.0966742  28.5070170  98.3031813  26.7551546  28.1248223
  98.6169076  25.2744086  28.0957588  97.3336710  25.4971799  30.7091491
  97.8336488  25.6088334  29.9005809  97.9772318  25.1932852  31.3492299
  91.3918706  33.4050429  43.5959331  90.9085788  34.2050789  43.8023221
  91.4779645  33.4158374  42.6426775  84.6604666  35.2378809  31.5181151
  84.6375354  35.3366496  30.5663034  84.9705302  36.0843960  31.8398317
  87.3192043  37.2954964  35.6327765  88.2735297  37.2638906  35.5657697
  87.1204567  36.8345588  36.4477991  87.9091426  35.8656080  38.1998563
  88.7284315  36.3600159  38.2233400  88.1828233  34.9488048  38.1716130
  97.6658022  28.2566832  27.5626518  96.7783877  28.5416483  27.3446713
  98.0812011  28.0960596  26.7153795 101.0172558  28.2813353  31.2780858
 101.7932948  28.7709806  31.5505475 100.2920692  28.7071407  31.7352727
 103.4545117  28.9940972  32.3354798 104.0489607  28.7536708  31.6248107
 103.5271700  28.2748103  32.9628335  85.6742272  42.8374583  32.6497963
  85.5396740  42.0774984  32.0835961  85.2574334  43.5615483  32.1826752
  96.8101235  38.0211507  21.6574538  97.5137085  38.2261509  22.2732194
  96.0863884  38.5888269  21.9223622  97.6399046  33.7721368  27.7776809
  97.5834247  34.2289920  26.9384441  98.1927388  33.0112053  27.5999651
 101.4503851  29.5611100  28.6026928 101.1940786  29.1607736  29.4335136
 100.8256719  30.2754894  28.4777067 105.7616189  32.3007173  31.1098220
 105.2015747  32.3700363  31.8829782 105.1559693  32.1248158  30.3897716
  88.8311398  43.7343900  32.8616406  88.7143782  44.6789333  32.7595096
  88.0103844  43.4317462  33.2502205  98.7187933  38.4594036  23.7072998
  99.5533537  38.0275235  23.5250473  98.5572276  38.2876050  24.6349893
  98.3733825  34.9626149  25.0729338  98.3182629  34.7970421  24.1317782
  97.7479880  35.6702182  25.2291527  83.1626340  30.1994214  38.8990760
  83.8085203  29.6893168  39.3877985  82.9543491  30.9362895  39.4734185
  95.6879732  37.2675061  44.3982901  96.5570892  37.4415713  44.0369535
  95.2086483  38.0869478  44.2758630  91.6829950  24.4634258  24.6514656
  91.6708620  25.4076098  24.8082927  92.5753372  24.2804404  24.3574117
  89.8565912  44.3872162  36.0772334  90.7593159  44.4195772  36.3938829
  89.6303282  43.4572613  36.0918670  91.6119514  43.1403149  32.7382413
  90.6615145  43.1405010  32.6246785  91.9152000  42.3935883  32.2218447
  95.4982070  21.0577035  28.9060593  94.7314466  20.5035522  29.0517275
  95.9092775  21.1298904  29.7674745  87.5023831  27.3461831  42.9965774
  88.3655292  26.9898636  43.2069099  86.9289241  27.0075726  43.6841178
 107.3472208  48.9763687  33.8028175 107.9850618  48.8570435  33.0991515
 107.2293051  49.9244531  33.8616127 104.1561914  48.9291115  33.7389700
 103.8180426  48.8132180  32.8510235 105.0251682  48.5282280  33.7190706
 100.0148730  50.7826592  29.7286591  99.4513595  50.6916529  28.9602879
  99.9001125  49.9626496  30.2089083 105.5948288  54.4497559  25.0401056
 104.9436268  55.0351640  24.6535070 106.3892651  54.9803754  25.0996093
  99.5203916  51.5386697  25.4388190 100.2934792  50.9915684  25.3001066
  99.8729314  52.4030946  25.6502652 101.8570193  47.6979363  23.0706640
 102.1095714  47.1760884  22.3090103 100.9194752  47.5345508  23.1733324
 106.9013476  46.7015141  30.8781383 107.6876565  46.2834564  30.5271800
 107.1652181  47.6061233  31.0463032 107.0723554  52.1387991  25.5770040
 106.4369387  52.2122618  26.2890945 106.7420960  52.7281590  24.8989119
 112.3021903  46.6390374  31.7814362 113.0347075  46.0689591  32.0152191
 111.5461259  46.2511975  32.2220867 101.5766482  49.6007469  25.2731015
 101.4602740  48.9252372  25.9412099 101.6868742  49.1139843  24.4563168
 103.9198023  49.0617616  28.9777704 103.5556230  48.5348237  29.6890626
 104.7765139  48.6716085  28.8044190 109.8247324  40.3511948  36.2408970
 109.4930648  41.2207359  36.0170185 109.2292937  40.0348232  36.9203001
 103.5603510  44.0907515  23.9739053 103.7277912  44.9587752  24.3409524
 103.3700679  44.2534797  23.0500342  99.7691325  49.0038291  31.6741588
  98.8441821  48.8714505  31.8819279 100.0175738  49.7832510  32.1711530
 109.7175987  45.0707034  33.3202320 108.8092864  45.0022443  33.0261081
 109.6663583  45.5478979  34.1484146 103.5392731  46.5465173  24.9585720
 103.4192356  46.9922224  25.7971200 102.8445319  46.8950491  24.3999258
  97.1300136  48.6471565  32.5085377  97.2592517  48.9006044  33.4224788
  96.4497587  49.2399273  32.1890032 101.2999623  59.3168815  28.6075851
 101.2223653  60.2676640  28.6864331 100.6961267  58.9714687  29.2650777
 111.5837633  43.2723473  35.0980194 110.9412014  43.5656006  34.4519989
 111.0792562  43.1576393  35.9033391 109.2377797  47.0186646  25.7866054
 110.1495653  47.2514033  25.6113751 108.7287444  47.6023690  25.2241132
 107.5218565  51.4411274  39.4227346 107.9301921  50.9993684  38.6781979
 106.7995826  50.8663901  39.6761539 103.8749635  46.3783881  36.7960903
 104.7210830  46.8023294  36.9395552 103.8148272  45.7217505  37.4899466
 107.8447379  52.0012465  33.1779635 107.2156242  52.1658179  32.4755703
 107.4573041  52.4154074  33.9490599 111.7236611  52.9366902  30.5323999
 111.0387649  53.3165804  29.9821032 111.8080461  53.5462229  31.2655947
 107.0249080  44.0388249  38.4542077 106.7810012  44.7930310  37.9176352
 107.3009011  44.4173597  39.2889324 108.9787543  50.5826861  37.1319342
 109.1904438  51.2258621  36.4553723 108.9317291  49.7489178  36.6641272
 106.5813772  43.1944682  34.0355915 105.7198251  43.4925936  34.3272652
 106.6076207  43.4115081  33.1036947 103.3975341  51.7386873  30.4429720
 103.8613687  52.0174576  29.6534343 103.1332139  50.8370317  30.2602811
 100.2899422  51.2858354  33.3809483 100.8600779  51.7145623  32.7426968
 100.8807534  51.0040939  34.0793669 102.3344227  47.8610025  27.2519285
 103.0368271  48.3131069  27.7193212 102.0024856  47.2193844  27.8799178
  96.0769561  46.1193578  32.5536419  95.2868615  46.3751106  32.0776530
  96.5680809  46.9341915  32.6588459 110.0933371  53.4598817  35.3041700
 110.9150815  53.0579004  35.0224381 110.0895774  53.3567051  36.2557816
  98.0284307  46.4838157  29.5119896  97.2315470  46.5956851  30.0303391
  97.8009899  46.8224809  28.6460786  94.3607264  46.3724068  34.9851410
  94.6115303  47.2571078  35.2508986  94.8966813  46.1928670  34.2126502
 118.1839364  49.8037565  31.6526671 117.4303072  49.2344963  31.4970676
 118.3186905  49.7700230  32.5997306 103.5737992  54.6750968  27.3281391
 103.4383667  55.5202503  27.7566238 104.1147804  54.8770245  26.5647324
  97.0267389  52.1926406  27.9009316  97.5391910  52.9869656  28.0514880
  97.6790102  51.4952696  27.8342917  98.8362274  55.3092162  29.9832069
  99.0128902  56.2310127  29.7953053  99.6319108  54.9950581  30.4126449
 106.9230456  38.1981529  35.8580284 106.5794725  39.0883171  35.7819395
 107.2909418  38.0083187  34.9949869  94.9916306  50.5215060  28.6768886
  95.8291528  50.9312068  28.4602594  95.1694574  49.5814502  28.6469080
 106.8880738  48.1890141  24.3652719 106.3727362  48.9594745  24.6041107
 106.6158047  47.5155277  24.9885781 104.4727849  43.0339841  29.4237957
 103.6169446  42.6446692  29.2443596 104.8854801  43.1131802  28.5637743
 106.0026996  40.5686185  33.8229517 105.4991791  40.5316320  33.0097323
 106.2957603  41.4778927  33.8826174 102.2469882  40.6524914  32.8295699
 103.1122879  40.4567723  32.4701588 102.3147391  40.4235266  33.7565056
 111.8615012  50.9422495  26.3005893 111.0844455  50.6033655  25.8561055
 112.5406493  50.9475118  25.6260858 106.6767041  46.0617233  26.1912500
 106.3717177  46.3763382  27.0422643 107.6297484  46.1398653  26.2339833
 105.1213473  52.2207456  27.8405454 104.5934835  51.4860216  27.5278692
 104.6200976  52.9982132  27.5945423 110.1006319  50.4156476  32.9572501
 109.4429994  51.1055738  33.0452629 110.9046718  50.8052908  33.3006487
  99.8532201  42.8827122  30.2012066 100.4275953  42.6602304  29.4685259
 100.4403183  42.9515817  30.9540667 108.9111778  48.7700849  31.0076442
 109.4243660  49.4030841  31.5098152 109.5613002  48.1702045  30.6419802
 100.1801788  44.9131583  24.2207951  99.3439100  45.2506270  24.5417226
 100.0406558  44.7780563  23.2835088 102.1554869  39.7568371  28.9287135
 101.5019281  39.4417388  28.3043750 102.1135343  39.1344112  29.6546958
 103.2666073  50.0387666  20.8440427 102.3593135  49.8076920  21.0431576
 103.7637105  49.2425286  21.0314409 106.1734152  58.7485173  23.7637113
 105.4995851  59.0516870  24.3722071 106.5599974  59.5514254  23.4142571
 105.3892609  46.2450305  33.2534783 104.4715170  46.4665252  33.0956471
 105.8052753  46.3196615  32.3946490 106.1727657  47.6441720  28.3837463
 106.9199476  48.1563118  28.0744585 106.4419246  47.3225773  29.2441857
 104.4454307  50.1400261  25.3664417 103.5365526  49.8559294  25.4636887
 104.4749391  50.5599340  24.5067724 109.6773574  53.7506851  29.1355585
 109.2235901  52.9097761  29.1920775 109.0467541  54.3868249  29.4730365
 108.6206494  44.6798837  30.3656252 107.8829251  44.1676223  30.6966495
 108.8733267  44.2399218  29.5539529 108.1206514  55.5883347  30.0705403
 108.4129488  56.1488404  29.3517769 108.6305134  55.8811908  30.8258562
 108.7218121  37.4575089  30.9598022 109.0276998  36.5972452  30.6723937
 109.4470726  38.0492709  30.7597016  95.0142477  47.8605775  29.3479620
  94.8166877  47.2675136  28.6230686  94.4589141  47.5557985  30.0655558
 102.9939201  47.7528882  31.4674213 103.0487811  46.8002718  31.3916689
 102.1830403  47.9088321  31.9515511 104.1430395  51.6809005  22.7052496
 103.7049825  50.9644864  22.2458133 104.8840836  51.9085120  22.1437587
 100.9331561  46.3705941  29.2264592 100.1199426  46.6700112  29.6329784
 101.4290555  45.9761630  29.9439074 103.0840139  56.3663698  31.1598856
 103.0416318  56.5924545  30.2307388 104.0002838  56.1327073  31.3084657
 112.2603509  49.9566202  28.7628815 112.1221408  50.1467798  27.8350004
 111.9039728  50.7185585  29.2196866 112.2872889  52.0242729  33.7740086
 112.7209396  51.9318018  34.6223140 113.0004470  52.0000229  33.1360102
 101.2005939  53.2426727  30.9560819 101.9946538  52.7477048  30.7543394
 100.4897632  52.7144591  30.5928525  97.5088703  47.3869809  27.0320572
  96.5786291  47.3254265  27.2490534  97.6046175  46.8645762  26.2357213
  97.4274252  43.9124622  29.6198813  97.6881069  44.8269955  29.5107974
  98.2491424  43.4449065  29.7695426  98.8999177  45.3262379  36.7897638
  99.5722231  45.1179741  36.1410287  98.0728964  45.1284465  36.3502870
 113.1488439  52.0666429  36.3072971 113.3424329  52.9712240  36.5532246
 113.0489057  51.6073849  37.1411556 104.9788884  49.7905085  36.8660118
 105.9080944  49.9416245  36.6929086 104.5579914  49.8789106  36.0108765
 103.7777215  53.8155749  34.6358656 103.6388301  53.4474534  35.5084594
 102.9891812  54.3303389  34.4642614 104.3725367  58.9164846  25.9784193
 104.5477123  58.4452889  26.7929815 103.6858155  59.5430612  26.2065453
 105.3282431  53.1937352  32.0247494 104.9932263  53.1538122  32.9205144
 104.8286376  52.5282068  31.5517904  99.3026675  48.6004982  37.5500075
  99.1646473  47.8685221  38.1511614 100.2131598  48.5113882  37.2684263
 108.2641622  50.5393386  22.2984554 107.6470793  49.8140215  22.2017606
 107.7958111  51.3002747  21.9551628 101.9308975  48.3124941  37.0383755
 102.6408594  47.6718134  36.9970373 101.8878283  48.5637836  37.9609935
  98.9386453  62.0654209  32.7524053  99.1783051  62.6972733  33.4303071
  98.0955649  61.7142249  33.0389412 100.0540168  44.7578811  21.4205858
  99.1769635  44.6367612  21.0568105 100.5297921  43.9664889  21.1684746
 109.9213161  53.2131879  38.1904314 109.0339940  52.8757801  38.3130712
 110.4911712  52.4814910  38.4273079  91.5742308  49.5455970  31.5147365
  92.2613348  49.2317701  30.9268380  91.4190437  50.4497335  31.2414616
  96.3777030  44.4346167  35.9432389  96.2935219  43.8271837  35.2082799
  95.5559737  44.9255185  35.9441885 103.2404094  57.1105101  28.6668378
 102.4571616  57.6526781  28.7606603 103.9396839  57.6279081  29.0662620
 106.5500744  42.9199731  31.3102584 107.0469444  42.1669693  30.9903654
 105.7787726  42.9564047  30.7445793 114.4030502  48.6240096  32.9520875
 114.3920378  49.5064812  32.5814808 113.5347881  48.2711647  32.7575412
 107.6330525  51.6771418  28.8841007 106.6986804  51.7972880  28.7145711
 107.8107194  50.7743885  28.6201017 103.1335713  45.0617114  31.0374268
 102.7633501  44.5088154  31.7255174 103.6294806  44.4575247  30.4849268
 111.0203076  47.5188737  29.4191041 111.4863529  48.3516729  29.3451344
 111.4710577  47.0533719  30.1236300 109.0879308  53.8632558  26.4177193
 109.3639151  53.7489153  27.3271067 108.2183806  53.4650043  26.3789366
 108.9919739  39.8869324  33.4581943 108.0782819  40.1173551  33.6264150
 109.4212841  39.9707768  34.3095975 108.7626198  48.0759216  35.9581837
 108.1097648  48.3235123  35.3034289 109.1406578  47.2623354  35.6244314
 105.7233372  58.1118909  30.0610007 105.9055766  57.2940565  30.5237759
 106.5466358  58.3286601  29.6234897 106.0575537  57.0387094  27.3225055
 106.5863303  56.5279549  26.7095218 106.3203757  56.7229625  28.1870588
  99.4131285  58.0902211  30.0822831  98.7441660  58.5748339  29.5986871
  99.2744155  58.3371431  30.9966210  91.1510284  47.6256564  33.7864832
  91.1894384  47.0920155  34.5801950  90.6450577  47.0991769  33.1675809
  94.7818862  46.3520666  26.8618763  95.0772303  45.4431344  26.8085817
  93.8806898  46.3308405  26.5399766  98.3113109  44.4276663  32.8446312
  97.5899695  45.0412630  32.7053785  99.1006365  44.9634427  32.7662958
 108.7539849  55.8736950  35.2948722 107.8070185  55.7542301  35.2227049
 109.1022622  54.9859448  35.3774983  96.5106704  44.0334764  26.9858089
  96.1819410  43.1532143  26.8033195  96.8646074  43.9782432  27.8734478
 105.7586283  55.6689666  31.4953074 105.6111245  54.7406374  31.6760644
 106.5839776  55.6909757  31.0110149  99.6248527  44.3207733  27.3533566
  99.9644599  44.8493655  26.6312175 100.0720647  44.6588140  28.1292133
 109.3620404  56.4918225  32.5817947 110.2866952  56.2861086  32.4442398
 109.1935708  56.2434626  33.4907288 101.6116674  42.8182355  25.5526859
 102.3325036  43.1963608  25.0490576 100.9881978  43.5371232  25.6561837
 105.7547797  43.5227504  26.4885191 105.9711411  44.4052142  26.1874020
 105.2741864  43.1313717  25.7590833 100.4947018  46.4813217  33.0655936
 100.3491599  46.7953520  33.9580218 100.0172222  47.0998118  32.5126835
 102.3543401  43.4715765  33.1136826 102.3404970  42.5756859  32.7769124
 103.0715829  43.4786429  33.7475112 104.2069532  43.9053105  35.1589953
 103.9487310  44.8270176  35.1574283 103.6754572  43.5083540  35.8490417
 109.1515721  57.0103893  27.9380038 109.3252598  56.4450315  27.1853891
 109.6444612  57.8104787  27.7559528  94.9692680  49.0218562  36.0043597
  94.4246148  49.7978370  36.1363872  95.8472030  49.3689366  35.8462719
 101.7580297  42.3530146  28.3824396 101.8796208  41.4246792  28.5815283
 101.4682339  42.3668831  27.4702711 104.6271487  40.0385056  31.5191116
 104.6493184  40.1024389  30.5643095 105.0439546  39.1989565  31.7131622
 115.0055112  49.7740315  29.5570338 115.4486258  49.0247641  29.1589461
 114.1281622  49.7650452  29.1744070 110.1390893  56.3270657  25.0376937
 110.8341798  56.9477350  25.2564251 110.4814043  55.4766008  25.3129315
  95.7558702  48.1488458  38.8973754  95.0140438  48.2971093  39.4838384
  95.4351446  48.4096724  38.0340503 112.0382316  53.7770362  26.5664267
 112.5633640  54.1157635  25.8413587 111.9504669  52.8417378  26.3827402
 103.7222977  59.8442346  30.9259521 103.2827967  59.3518724  31.6192377
 104.4731094  59.3015313  30.6851596  96.2015316  56.0353887  30.9284149
  97.0273336  55.7357658  30.5482792  95.8509368  55.2661509  31.3773937
 101.1696849  55.3880355  32.9981822 100.5476858  54.7251060  32.6984050
 101.8401716  55.4141487  32.3155470 111.7276222  54.4103266  41.8715465
 110.9371766  54.3927405  41.3319965 111.4909577  54.9491560  42.6264502
 111.8474097  51.2595732  39.1848194 111.8972102  51.0945740  40.1263717
 111.7388021  50.3922992  38.7946075 100.7310356  53.9384278  26.4740283
 100.8798476  54.6219743  25.8206956 101.5376799  53.9189368  26.9889739
 109.1377860  47.2426661  40.5007501 110.0387722  47.1033125  40.2091498
 109.2125834  47.4081115  41.4405678 113.3492294  53.6792674  39.4290215
 113.0577102  54.0422655  40.2653676 112.7364425  52.9659682  39.2503548
 114.5487976  51.2445554  31.9492786 115.3834868  51.6835358  32.1130346
 114.6847105  50.7684207  31.1301031 111.5979482  48.8025289  37.8970273
 112.0733604  48.9952935  37.0889125 110.6745048  48.8584474  37.6513657
  98.4862989  49.9649456  27.4801352  98.2409031  49.0611786  27.6781562
  98.6558903  49.9666606  26.5380830  97.7558636  45.6977813  24.9787513
  97.0627881  45.7722168  24.3227549  97.5110388  44.9338157  25.5009030
 106.4272293  37.2573415  32.3827004 106.7074047  36.5896604  33.0087430
 107.2122900  37.4502510  31.8701668 104.2305761  56.4332409  23.9452030
 103.6579729  57.0522596  23.4922502 104.8038555  56.9831770  24.4791952
 110.2981151  45.6791049  36.1298579 111.2498574  45.7789146  36.1510803
 110.1284602  44.8869317  36.6396663 108.3195531  42.7646632  36.3157980
 107.7245463  43.0451645  35.6204469 108.0345228  43.2540533  37.0874721
 107.4503021  56.7169559  25.0760613 108.3833694  56.6515120  25.2793488
 107.3626234  57.5525826  24.6175145 110.0791038  56.0335429  22.0364560
 110.0004669  55.6995293  22.9300318 110.9000705  56.5257197  22.0356032
 112.7769229  48.8997168  35.2440879 112.7445549  47.9613169  35.4300563
 113.3869853  48.9781205  34.5106704 104.6152560  47.7693221  21.2868083
 105.5611665  47.6399429  21.3556501 104.2366805  47.0307883  21.7637511
 112.9263718  45.6908212  35.2899162 112.4102766  44.9066668  35.1029091
 113.8103666  45.3626928  35.4545681 110.5874445  39.4349227  31.2494975
 110.3899266  39.1264316  32.1338307 111.1974150  40.1610866  31.3792904
 118.5945779  49.9613175  34.3846916 119.3249167  49.6998463  34.9454619
 117.9852724  49.2241897  34.4248983 116.6761076  48.1021038  34.9821367
 115.9494240  47.9677003  34.3737858 116.2608363  48.4097866  35.7878085
 102.7995477  45.6943198  21.2222968 101.8926933  45.3976310  21.2985682
 103.0771458  45.3973016  20.3557254  93.7173418  47.0149561  31.6722014
  93.3976202  46.1614869  31.3796388  93.1706846  47.2298139  32.4279982
  97.4953325  49.7312002  35.3891521  97.7139335  50.6629110  35.4079555
  97.9079099  49.3719977  36.1746325 104.4157543  40.2380087  27.3767209
 103.6058271  39.8927172  27.7522455 105.1041960  39.9287631  27.9654821
 106.3448091  39.3158134  28.9991506 106.8979130  39.7353588  29.6581529
 106.5818178  38.3893882  29.0414462 101.5694262  42.5530133  21.3634947
 102.4313426  42.8785031  21.6230765 101.7544606  41.7661629  20.8508013
 109.7226898  41.4258659  28.5070170 109.1425567  42.0843463  28.1248223
 109.4562831  40.6036004  28.0957588 108.1730465  40.8263717  30.7091491
 108.6730243  40.9380252  29.9005809 108.8166073  40.5224770  31.3492299
  98.1585798  52.6246881  35.6327765  99.1129051  52.5930824  35.5657697
  97.9598322  52.1637505  36.4477991  98.7485180  51.1947998  38.1998563
  99.5678069  51.6892076  38.2233400  99.0221988  50.2779966  38.1716130
 108.5051776  43.5858750  27.5626518 107.6177631  43.8708400  27.3446713
 108.9205765  43.4252513  26.7153795 111.8566312  43.6105271  31.2780858
 112.6326703  44.1001723  31.5505475 111.1314447  44.0363325  31.7352727
 114.2938871  44.3232890  32.3354798 114.8883362  44.0828626  31.6248107
 114.3665455  43.6040021  32.9628335 107.6494990  53.3503425  21.6574538
 108.3530840  53.5553427  22.2732194 106.9257638  53.9180186  21.9223622
 108.4792800  49.1013286  27.7776809 108.4228001  49.5581837  26.9384441
 109.0321142  48.3403970  27.5999651 112.2897606  44.8903018  28.6026928
 112.0334540  44.4899653  29.4335136 111.6650474  45.6046812  28.4777067
 116.6009944  47.6299091  31.1098220 116.0409502  47.6992280  31.8829782
 115.9953447  47.4540076  30.3897716  99.6705153  59.0635818  32.8616406
  99.5537537  60.0081250  32.7595096  98.8497599  58.7609380  33.2502205
 109.5581687  53.7885954  23.7072998 110.3927291  53.3567152  23.5250473
 109.3966030  53.6167967  24.6349893 109.2127579  50.2918067  25.0729338
 109.1576383  50.1262338  24.1317782 108.5873635  50.9994100  25.2291527
  94.0020094  45.5286131  38.8990760  94.6478958  45.0185085  39.3877985
  93.7937245  46.2654813  39.4734185 102.5223705  39.7926176  24.6514656
 102.5102375  40.7368016  24.8082927 103.4147127  39.6096321  24.3574117
 102.4513269  58.4695066  32.7382413 101.5008900  58.4696928  32.6246785
 102.7545755  57.7227801  32.2218447 106.3375824  36.3868953  28.9060593
 105.5708220  35.8327439  29.0517275 106.7486529  36.4590821  29.7674745
 118.1865962  64.3055605  33.8028175 118.8244372  64.1862352  33.0991515
 118.0686805  65.2536449  33.8616127 114.9955669  64.2583033  33.7389700
 114.6574180  64.1424098  32.8510235 115.8645437  63.8574198  33.7190706
 110.8542484  66.1118509  29.7286591 110.2907349  66.0208446  28.9602879
 110.7394879  65.2918414  30.2089083 115.4775452  65.4117885  39.6975905
 115.4664092  65.0170683  38.8256409 115.6396091  64.6783957  40.2909677
 108.4006916  67.6069701  32.5670811 109.1928208  67.2660526  32.1517111
 108.6403566  67.7164676  33.4872965 116.4342043  69.7789477  25.0401056
 115.7830023  70.3643557  24.6535070 117.2286406  70.3095672  25.0996093
 110.3597670  66.8678614  25.4388190 111.1328546  66.3207601  25.3001066
 110.7123069  67.7322864  25.6502652 112.1982713  68.1954996  38.6455089
 111.9072579  69.1000627  38.5301756 112.8339697  68.2371524  39.3599159
 113.1238919  65.5731845  35.2356449 113.7202492  65.3487867  34.5213412
 113.1813891  64.8316590  35.8381897 112.6963948  63.0271280  23.0706640
 112.9489469  62.5052802  22.3090103 111.7588507  62.8637426  23.1733324
 117.7407231  62.0307059  30.8781383 118.5270320  61.6126482  30.5271800
 118.0045935  62.9353151  31.0463032 117.9117308  67.4679909  25.5770040
 117.2763141  67.5414535  26.2890945 117.5814714  68.0573508  24.8989119
 123.1415658  61.9682292  31.7814362 123.8740830  61.3981509  32.0152191
 122.3855014  61.5803892  32.2220867 112.4160237  64.9299386  25.2731015
 112.2996495  64.2544290  25.9412099 112.5262497  64.4431760  24.4563168
 114.7591778  64.3909533  28.9777704 114.3949985  63.8640154  29.6890626
 115.6158893  64.0008002  28.8044190 120.6641078  55.6803866  36.2408970
 120.3324403  56.5499277  36.0170185 120.0686692  55.3640150  36.9203001
 114.3997265  59.4199433  23.9739053 114.5671667  60.2879669  24.3409524
 114.2094434  59.5826715  23.0500342 117.1572598  67.8816412  35.6404883
 116.8573321  68.7841451  35.5320690 116.8123657  67.6148595  36.4926036
 110.6085079  64.3330209  31.6741588 109.6835576  64.2006423  31.8819279
 110.8569492  65.1124428  32.1711530 120.5569742  60.3998952  33.3202320
 119.6486619  60.3314361  33.0261081 120.5057337  60.8770897  34.1484146
 114.3786485  61.8757091  24.9585720 114.2586111  62.3214141  25.7971200
 113.6839074  62.2242408  24.3999258 107.9693890  63.9763482  32.5085377
 108.0986271  64.2297961  33.4224788 107.2891342  64.5691190  32.1890032
 112.1393378  74.6460732  28.6075851 112.0617407  75.5968557  28.6864331
 111.5355021  74.3006605  29.2650777 114.6310607  61.8188598  41.2637218
 113.8543941  62.3782518  41.2540082 115.2701170  62.3045381  41.7852088
 122.4231388  58.6015391  35.0980194 121.7805768  58.8947924  34.4519989
 121.9186316  58.4868311  35.9033391 120.0771552  62.3478564  25.7866054
 120.9889408  62.5805950  25.6113751 119.5681199  62.9315608  25.2241132
 112.8856980  64.6274051  40.8255185 113.6271664  65.1659095  40.5490008
 112.1793965  65.2540340  40.9826737 118.3612319  66.7703192  39.4227346
 118.7695675  66.3285602  38.6781979 117.6389581  66.1955819  39.6761539
 114.7143389  61.7075798  36.7960903 115.5604584  62.1315212  36.9395552
 114.6542027  61.0509423  37.4899466 118.6841134  67.3304382  33.1779635
 118.0549996  67.4950096  32.4755703 118.2966796  67.7445992  33.9490599
 122.5630366  68.2658820  30.5323999 121.8781404  68.6457721  29.9821032
 122.6474215  68.8754147  31.2655947 117.8642835  59.3680167  38.4542077
 117.6203766  60.1222227  37.9176352 118.1402765  59.7465514  39.2889324
 119.8181297  65.9118779  37.1319342 120.0298193  66.5550539  36.4553723
 119.7711046  65.0781096  36.6641272 117.4207526  58.5236600  34.0355915
 116.5592005  58.8217853  34.3272652 117.4469961  58.7406999  33.1036947
 114.2369096  67.0678790  30.4429720 114.7007441  67.3466493  29.6534343
 113.9725894  66.1662235  30.2602811 111.1293177  66.6150272  33.3809483
 111.6994534  67.0437540  32.7426968 111.7201289  66.3332857  34.0793669
 113.1737982  63.1901943  27.2519285 113.8762025  63.6422986  27.7193212
 112.8418610  62.5485762  27.8799178 111.6218343  61.7813699  41.6270495
 110.9917004  62.4629980  41.8605892 111.5154431  61.6696781  40.6823633
 106.9163316  61.4485495  32.5536419 106.1262370  61.7043024  32.0776530
 107.4074563  62.2633833  32.6588459 120.9327125  68.7890734  35.3041700
 121.7544569  68.3870922  35.0224381 120.9289528  68.6858969  36.2557816
 108.8678061  61.8130075  29.5119896 108.0709224  61.9248769  30.0303391
 108.6403653  62.1516727  28.6460786 114.6983729  68.3374778  37.4602410
 114.7628161  68.7995185  38.2960582 113.9894653  67.7072143  37.5884720
 129.0233118  65.1329483  31.6526671 128.2696827  64.5636881  31.4970676
 129.1580660  65.0992147  32.5997306 114.4131746  70.0042885  27.3281391
 114.2777421  70.8494421  27.7566238 114.9541559  70.2062163  26.5647324
 107.8661144  67.5218323  27.9009316 108.3785664  68.3161574  28.0514880
 108.5183857  66.8244614  27.8342917 109.6756029  70.6384080  29.9832069
 109.8522657  71.5602044  29.7953053 110.4712862  70.3242499  30.4126449
 113.8167047  57.4992344  41.5816002 114.5576760  58.0999497  41.5020465
 114.0484970  56.7569982  41.0234045 116.0400223  70.6266452  41.4581733
 115.5964077  69.8402830  41.1402637 116.7017436  70.8145602  40.7925623
 110.7987344  72.1562253  35.9842411 111.3494769  72.0279317  35.2119405
 109.9598820  72.4557142  35.6337304 118.1381461  70.9069252  39.4863134
 118.1199936  71.7278133  38.9943403 119.0601381  70.7823327  39.7113275
 114.5954515  68.4213381  40.3286642 115.1282852  67.6601669  40.0985950
 114.0668596  68.1287033  41.0710797 117.7624210  53.5273447  35.8580284
 117.4188479  54.4175089  35.7819395 118.1303173  53.3375105  34.9949869
 105.8310061  65.8506978  28.6768886 106.6685283  66.2603986  28.4602594
 106.0088328  64.9106420  28.6469080 117.7274493  63.5182058  24.3652719
 117.2121116  64.2886663  24.6041107 117.4551801  62.8447194  24.9885781
 115.3121604  58.3631759  29.4237957 114.4563200  57.9738609  29.2443596
 115.7248556  58.4423720  28.5637743 116.8420750  55.8978102  33.8229517
 116.3385546  55.8608237  33.0097323 117.1351357  56.8070845  33.8826174
 113.0863636  55.9816832  32.8295699 113.9516633  55.7859641  32.4701588
 113.1541145  55.7527184  33.7565056 122.7008767  66.2714413  26.3005893
 121.9238210  65.9325572  25.8561055 123.3800248  66.2767036  25.6260858
 117.5160796  61.3909150  26.1912500 117.2110931  61.7055300  27.0422643
 118.4691238  61.4690570  26.2339833 115.9607228  67.5499374  27.8405454
 115.4328589  66.8152133  27.5278692 115.4594730  68.3274050  27.5945423
 120.9400074  65.7448394  32.9572501 120.2823748  66.4347656  33.0452629
 121.7440473  66.1344826  33.3006487 110.6925955  58.2119040  30.2012066
 111.2669707  57.9894221  29.4685259 111.2796938  58.2807734  30.9540667
 119.7505533  64.0992767  31.0076442 120.2637414  64.7322759  31.5098152
 120.4006756  63.4993962  30.6419802 111.0195542  60.2423501  24.2207951
 110.1832855  60.5798188  24.5417226 110.8800312  60.1072481  23.2835088
 112.9948623  55.0860289  28.9287135 112.3413035  54.7709306  28.3043750
 112.9529097  54.4636029  29.6546958 114.1059828  65.3679584  20.8440427
 113.1986890  65.1368837  21.0431576 114.6030860  64.5717203  21.0314409
 117.0127907  74.0777091  23.7637113 116.3389606  74.3808788  24.3722071
 117.3993729  74.8806171  23.4142571 116.2286363  61.5742222  33.2534783
 115.3108925  61.7957169  33.0956471 116.6446507  61.6488533  32.3946490
 117.0121411  62.9733638  28.3837463 117.7593230  63.4855035  28.0744585
 117.2813001  62.6517691  29.2441857 115.2848061  65.4692179  25.3664417
 114.3759281  65.1851212  25.4636887 115.3143145  65.8891257  24.5067724
 120.5167329  69.0798768  29.1355585 120.0629656  68.2389678  29.1920775
 119.8861295  69.7160167  29.4730365 119.4600248  60.0090754  30.3656252
 118.7223005  59.4968141  30.6966495 119.7127022  59.5691136  29.5539529
 118.9600268  70.9175265  30.0705403 119.2523242  71.4780322  29.3517769
 119.4698889  71.2103826  30.8258562 119.5611876  52.7867006  30.9598022
 119.8670752  51.9264370  30.6723937 120.2864480  53.3784627  30.7597016
 105.8536232  63.1897693  29.3479620 105.6560632  62.5967054  28.6230686
 105.2982896  62.8849903  30.0655558 113.8332955  63.0820799  31.4674213
 113.8881565  62.1294636  31.3916689 113.0224157  63.2380239  31.9515511
 114.9824149  67.0100922  22.7052496 114.5443579  66.2936781  22.2458133
 115.7234590  67.2377037  22.1437587 111.7725315  61.6997859  29.2264592
 110.9593181  61.9992030  29.6329784 112.2684310  61.3053548  29.9439074
 113.9233893  71.6955616  31.1598856 113.8810072  71.9216462  30.2307388
 114.8396592  71.4618991  31.3084657 117.3699527  62.1639684  38.0579486
 117.7248915  62.3911157  38.9173951 118.0171658  62.4958060  37.4356741
 123.0997264  65.2858120  28.7628815 122.9615163  65.4759715  27.8350004
 122.7433483  66.0477502  29.2196866 111.2639390  59.2716215  34.8425827
 111.9038769  59.1304974  34.1448790 110.4316921  58.9850728  34.4664429
 123.1266644  67.3534647  33.7740086 123.5603150  67.2609936  34.6223140
 123.8398224  67.3292147  33.1360102 112.0399694  68.5718645  30.9560819
 112.8340292  68.0768965  30.7543394 111.3291386  68.0436508  30.5928525
 116.8594538  70.9536741  35.3073187 116.9131561  71.5227677  36.0750903
 115.9909320  71.1238626  34.9427224 108.3482457  62.7161727  27.0320572
 107.4180046  62.6546182  27.2490534 108.4439929  62.1937680  26.2357213
 108.2668007  59.2416540  29.6198813 108.5274824  60.1561873  29.5107974
 109.0885179  58.7740982  29.7695426 109.7392932  60.6554297  36.7897638
 110.4115985  60.4471659  36.1410287 108.9122718  60.4576383  36.3502870
 123.9882193  67.3958347  36.3072971 124.1818083  68.3004158  36.5532246
 123.8882811  66.9365766  37.1411556 115.6418504  57.2816238  38.8063299
 114.9946419  57.9806187  38.7127775 116.4119519  57.7152382  39.1739547
 119.0497302  67.5465090  41.8813852 118.8982808  67.3175642  40.9643936
 119.0401981  68.5035691  41.8945197 115.8182638  65.1197003  36.8660118
 116.7474698  65.2708162  36.6929086 115.3973668  65.2081023  36.0108765
 114.6170970  69.1447667  34.6358656 114.4782056  68.7766451  35.5084594
 113.8285566  69.6595307  34.4642614 115.2119122  74.2456764  25.9784193
 115.3870878  73.7744807  26.7929815 114.5251910  74.8722530  26.2065453
 116.1676185  68.5229270  32.0247494 115.8326018  68.4830040  32.9205144
 115.6680131  67.8573986  31.5517904 110.1420429  63.9296900  37.5500075
 110.0040227  63.1977139  38.1511614 111.0525353  63.8405800  37.2684263
 119.1035377  65.8685304  22.2984554 118.4864547  65.1432132  22.2017606
 118.6351865  66.6294664  21.9551628 112.7702730  63.6416859  37.0383755
 113.4802348  63.0010051  36.9970373 112.7272038  63.8929754  37.9609935
 120.7589508  70.5784212  39.9590334 120.7002055  69.8943433  39.2920917
 121.1609027  71.3203202  39.5070960 111.4831664  60.6282077  38.8579394
 110.9469021  60.1772815  39.5100991 110.8948372  60.7627986  38.1149859
 109.7780207  77.3946126  32.7524053 110.0176805  78.0264650  33.4303071
 108.9349404  77.0434166  33.0389412 110.8933923  60.0870728  21.4205858
 110.0163389  59.9659529  21.0568105 111.3691676  59.2956807  21.1684746
 120.7606916  68.5423796  38.1904314 119.8733694  68.2049718  38.3130712
 121.3305467  67.8106828  38.4273079 114.2908069  73.2025249  35.1565557
 114.2178241  74.0080220  35.6684861 113.8485462  73.4017215  34.3313578
 114.0797849  72.4397019  28.6668378 113.2965371  72.9818699  28.7606603
 114.7790594  72.9570998  29.0662620 117.3894499  58.2491648  31.3102584
 117.8863198  57.4961611  30.9903654 116.6181480  58.2855965  30.7445793
 125.2424256  63.9532014  32.9520875 125.2314132  64.8356729  32.5814808
 124.3741636  63.6003565  32.7575412 116.7506753  73.1012083  37.3123715
 117.4634725  73.7359548  37.2399617 116.2596781  73.1975949  36.4963717
 118.4724280  67.0063335  28.8841007 117.5380558  67.1264798  28.7145711
 118.6500948  66.1035802  28.6201017 113.9729468  60.3909031  31.0374268
 113.6027255  59.8380072  31.7255174 114.4688560  59.7867165  30.4849268
 121.8596831  62.8480655  29.4191041 122.3257283  63.6808646  29.3451344
 122.3104331  62.3825636  30.1236300 111.8018666  70.8506526  38.1329286
 112.5028126  71.4843009  38.2858681 111.3313781  71.1921258  37.3724926
 119.9273062  69.1924476  26.4177193 120.2032906  69.0781071  27.3271067
 119.0577561  68.7941961  26.3789366 119.8313494  55.2161242  33.4581943
 118.9176573  55.4465469  33.6264150 120.2606595  55.2999686  34.3095975
 119.6019952  63.4051134  35.9581837 118.9491402  63.6527041  35.3034289
 119.9800332  62.5915272  35.6244314 116.5627126  73.4410827  30.0610007
 116.7449521  72.6232483  30.5237759 117.3860112  73.6578519  29.6234897
 116.8969292  72.3679012  27.3225055 117.4257058  71.8571467  26.7095218
 117.1597511  72.0521542  28.1870588 115.6507525  64.1470945  42.4447874
 114.9748162  64.0465074  43.1150249 116.4735159  63.9910158  42.9083871
 107.3986384  70.3842881  35.0660389 107.9839821  69.6386569  35.1988293
 107.2011223  70.6946838  35.9497053 110.2525039  73.4194129  30.0822831
 109.5835415  73.9040256  29.5986871 110.1137909  73.6663349  30.9966210
 101.9904039  62.9548482  33.7864832 102.0288138  62.4212072  34.5801950
 101.4844332  62.4283687  33.1675809 114.3930308  75.4537872  36.6805490
 114.9448616  75.6169494  37.4454575 114.7336501  76.0442310  36.0085515
 119.2441182  70.2799130  42.5354144 119.7881086  70.8929088  42.0409099
 118.6628027  70.8378708  43.0521157 105.6212617  61.6812584  26.8618763
 105.9166058  60.7723262  26.8085817 104.7200652  61.6600323  26.5399766
 117.5298695  73.4019848  33.6669172 117.4049835  72.6009588  33.1580117
 118.1877786  73.8966041  33.1783142 109.1506864  59.7568580  32.8446312
 108.4293449  60.3704548  32.7053785 109.9400119  60.2926345  32.7662958
 119.5933604  71.2028868  35.2948722 118.6463939  71.0834219  35.2227049
 119.9416377  70.3151366  35.3774983 111.9533177  57.0923007  39.1186964
 112.4767579  57.3385303  39.8813273 111.7345510  57.9243042  38.6990101
 107.3500458  59.3626681  26.9858089 107.0213164  58.4824060  26.8033195
 107.7039829  59.3074350  27.8734478 116.5980037  70.9981584  31.4953074
 116.4504999  70.0698291  31.6760644 117.4233530  71.0201675  31.0110149
 110.4642281  59.6499651  27.3533566 110.8038354  60.1785572  26.6312175
 110.9114402  59.9880057  28.1292133 120.2014159  71.8210143  32.5817947
 121.1260706  71.6153004  32.4442398 120.0329462  71.5726544  33.4907288
 113.1585722  58.0336702  36.8036634 112.8182542  57.2344515  37.2057314
 112.4524728  58.3338413  36.2313468 113.8102194  55.1186014  35.2563957
 114.6328263  54.6446492  35.1342848 114.0540257  55.8976498  35.7562644
 112.4510428  58.1474273  25.5526859 113.1718791  58.5255525  25.0490576
 111.8275733  58.8663150  25.6561837 116.5941551  58.8519422  26.4885191
 116.8105166  59.7344060  26.1874020 116.1135618  58.4605635  25.7590833
 111.3340773  61.8105135  33.0655936 111.1885353  62.1245438  33.9580218
 110.8565976  62.4290035  32.5126835 113.1937156  58.8007683  33.1136826
 113.1798724  57.9048776  32.7769124 113.9109584  58.8078347  33.7475112
 115.0463286  59.2345023  35.1589953 114.7881064  60.1562094  35.1574283
 114.5148327  58.8375458  35.8490417 119.9909475  72.3395810  27.9380038
 120.1646353  71.7742233  27.1853891 120.4838366  73.1396705  27.7559528
 105.8086435  64.3510479  36.0043597 105.2639903  65.1270287  36.1363872
 106.6865785  64.6981284  35.8462719 112.5974051  57.6822063  28.3824396
 112.7189963  56.7538709  28.5815283 112.3076094  57.6960749  27.4702711
 115.4665242  55.3676974  31.5191116 115.4886939  55.4316307  30.5643095
 115.8833301  54.5281482  31.7131622 125.8448866  65.1032233  29.5570338
 126.2880012  64.3539558  29.1589461 124.9675377  65.0942370  29.1744070
 120.9784648  71.6562575  25.0376937 121.6735552  72.2769267  25.2564251
 121.3207798  70.8057926  25.3129315 122.8776071  69.1062280  26.5664267
 123.4027395  69.4449553  25.8413587 122.7898423  68.1709295  26.3827402
 114.5396119  73.0196354  38.6954144 114.8483246  72.7745501  39.5676844
 115.3371601  73.2242992  38.2073014 114.5616731  75.1734263  30.9259521
 114.1221722  74.6810642  31.6192377 115.3124848  74.6307231  30.6851596
 107.0409070  71.3645804  30.9284149 107.8667090  71.0649576  30.5482792
 106.6903122  70.5953427  31.3773937 112.0090604  70.7172273  32.9981822
 111.3870613  70.0542978  32.6984050 112.6795470  70.7433404  32.3155470
 105.2417675  69.2832131  31.8873082 104.4049584  68.8554305  31.7057084
 105.2141321  69.4764574  32.8243873 112.0815131  59.1954061  42.5914328
 112.1303287  60.0716183  42.2092098 112.6237645  58.6531454  42.0185972
 122.5669977  69.7395184  41.8715465 121.7765520  69.7219323  41.3319965
 122.3303331  70.2783477  42.6264502 122.6867852  66.5887650  39.1848194
 122.7365857  66.4237658  40.1263717 122.5781775  65.7214909  38.7946075
 111.5704110  69.2676196  26.4740283 111.7192231  69.9511660  25.8206956
 112.3770554  69.2481286  26.9889739 119.9771614  62.5718578  40.5007501
 120.8781477  62.4325043  40.2091498 120.0519589  62.7373033  41.4405678
 114.3114419  59.9485433  39.3460687 113.4417729  60.2418999  39.0743276
 114.5473900  60.5325878  40.0667951 124.1886049  69.0084592  39.4290215
 123.8970857  69.3714572  40.2653676 123.5758180  68.2951600  39.2503548
 125.3881731  66.5737471  31.9492786 126.2228622  67.0127276  32.1130346
 125.5240860  66.0976125  31.1301031 122.4373237  64.1317206  37.8970273
 122.9127358  64.3244853  37.0889125 121.5138802  64.1876392  37.6513657
 109.3256743  65.2941373  27.4801352 109.0802785  64.3903703  27.6781562
 109.4952658  65.2958524  26.5380830 117.0153453  56.1665050  36.8626107
 117.5335397  56.9026077  36.5372596 116.6608586  56.4729043  37.6972866
 108.5952391  61.0269731  24.9787513 107.9021636  61.1014086  24.3227549
 108.3504143  60.2630075  25.5009030 117.2666047  52.5865332  32.3827004
 117.5467801  51.9188521  33.0087430 118.0516654  52.7794428  31.8701668
 115.0699516  71.7624326  23.9452030 114.4973483  72.3814513  23.4922502
 115.6432310  72.3123688  24.4791952 121.1374906  61.0082966  36.1298579
 122.0892329  61.1081064  36.1510803 120.9678356  60.2161235  36.6396663
 119.1589285  58.0938550  36.3157980 118.5639217  58.3743562  35.6204469
 118.8738982  58.5832451  37.0874721 118.2896776  72.0461476  25.0760613
 119.2227449  71.9807038  25.2793488 118.2019989  72.8817743  24.6175145
 120.9184792  71.3627347  22.0364560 120.8398424  71.0287210  22.9300318
 121.7394459  71.8549115  22.0356032 123.6162984  64.2289086  35.2440879
 123.5839304  63.2905087  35.4300563 124.2263607  64.3073123  34.5106704
 115.4546314  63.0985139  21.2868083 116.4005419  62.9691347  21.3556501
 115.0760559  62.3599801  21.7637511 123.7657472  61.0200130  35.2899162
 123.2496521  60.2358586  35.1029091 124.6497421  60.6918846  35.4545681
 121.4268199  54.7641145  31.2494975 121.2293020  54.4556233  32.1338307
 122.0367905  55.4902784  31.3792904 129.4339533  65.2905093  34.3846916
 130.1642922  65.0290381  34.9454619 128.8246479  64.5533815  34.4248983
 127.5154831  63.4312956  34.9821367 126.7887994  63.2968920  34.3737858
 127.1002117  63.7389784  35.7878085 115.3385007  67.1502885  42.7468740
 116.2588016  67.3281484  42.9408786 115.3034590  66.2058931  42.5948439
 113.6389232  61.0235115  21.2222968 112.7320687  60.7268228  21.2985682
 113.9165213  60.7264934  20.3557254 104.5567172  62.3441479  31.6722014
 104.2369956  61.4906787  31.3796388 104.0100600  62.5590057  32.4279982
 108.3347080  65.0603920  35.3891521 108.5533089  65.9921028  35.4079555
 108.7472853  64.7011894  36.1746325 115.2551297  55.5672005  27.3767209
 114.4452026  55.2219090  27.7522455 115.9435714  55.2579549  27.9654821
 117.1841846  54.6450052  28.9991506 117.7372884  55.0645505  29.6581529
 117.4211932  53.7185800  29.0414462 112.4088016  57.8822051  21.3634947
 113.2707180  58.2076949  21.6230765 112.5938360  57.0953547  20.8508013
 104.4255432  65.9644390  33.6415136 103.7318903  65.5498343  33.1285090
 105.1728423  66.0064927  33.0448555 120.5620653  56.7550577  28.5070170
 119.9819322  57.4135381  28.1248223 120.2956585  55.9327922  28.0957588
 119.0124219  56.1555635  30.7091491 119.5123997  56.2672169  29.9005809
 119.6559827  55.8516688  31.3492299 113.0706215  64.0634264  43.5959331
 112.5873297  64.8634625  43.8023221 113.1567154  64.0742209  42.6426775
 106.3392175  65.8962644  31.5181151 106.3162863  65.9950331  30.5663034
 106.6492811  66.7427795  31.8398317 108.9979552  67.9538799  35.6327765
 109.9522806  67.9222741  35.5657697 108.7992076  67.4929423  36.4477991
 109.5878935  66.5239915  38.1998563 110.4071824  67.0183994  38.2233400
 109.8615742  65.6071883  38.1716130 119.3445531  58.9150668  27.5626518
 118.4571386  59.2000318  27.3446713 119.7599520  58.7544431  26.7153795
 122.6960067  58.9397188  31.2780858 123.4720457  59.4293641  31.5505475
 121.9708201  59.3655243  31.7352727 125.1332626  59.6524808  32.3354798
 125.7277116  59.4120544  31.6248107 125.2059209  58.9331938  32.9628335
 107.3529781  73.4958419  32.6497963 107.2184249  72.7358820  32.0835961
 106.9361843  74.2199319  32.1826752 118.4888744  68.6795342  21.6574538
 119.1924594  68.8845345  22.2732194 117.7651393  69.2472104  21.9223622
 119.3186554  64.4305203  27.7776809 119.2621756  64.8873755  26.9384441
 119.8714897  63.6695888  27.5999651 123.1291360  60.2194935  28.6026928
 122.8728295  59.8191571  29.4335136 122.5044228  60.9338729  28.4777067
 127.4403698  62.9591009  31.1098220 126.8803256  63.0284198  31.8829782
 126.8347202  62.7831993  30.3897716 110.5098907  74.3927736  32.8616406
 110.3931291  75.3373168  32.7595096 109.6891353  74.0901297  33.2502205
 120.3975442  69.1177871  23.7072998 121.2321046  68.6859070  23.5250473
 120.2359785  68.9459885  24.6349893 120.0521334  65.6209985  25.0729338
 119.9970138  65.4554256  24.1317782 119.4267389  66.3286018  25.2291527
 117.3667241  67.9258897  44.3982901 118.2358401  68.0999549  44.0369535
 116.8873992  68.7453313  44.2758630 113.3617459  55.1218094  24.6514656
 113.3496129  56.0659934  24.8082927 114.2540881  54.9388239  24.3574117
 111.5353421  75.0455998  36.0772334 112.4380668  75.0779608  36.3938829
 111.3090791  74.1156449  36.0918670 113.2907023  73.7986984  32.7382413
 112.3402654  73.7988846  32.6246785 113.5939509  73.0519719  32.2218447
 117.1769579  51.7160870  28.9060593 116.4101975  51.1619357  29.0517275
 117.5880284  51.7882739  29.7674745 129.0259717  79.6347522  33.8028175
 129.6638127  79.5154270  33.0991515 128.9080560  80.5828366  33.8616127
 125.8349423  79.5874951  33.7389700 125.4967935  79.4716015  32.8510235
 126.7039191  79.1866116  33.7190706 121.6936239  81.4410427  29.7286591
 121.1301104  81.3500364  28.9602879 121.5788634  80.6210331  30.2089083
 126.3169206  80.7409802  39.6975905 126.3057847  80.3462601  38.8256409
 126.4789845  80.0075875  40.2909677 119.2400671  82.9361619  32.5670811
 120.0321963  82.5952443  32.1517111 119.4797321  83.0456594  33.4872965
 127.2735797  85.1081395  25.0401056 126.6223777  85.6935475  24.6535070
 128.0680160  85.6387590  25.0996093 121.1991425  82.1970532  25.4388190
 121.9722301  81.6499519  25.3001066 121.5516823  83.0614781  25.6502652
 123.0376467  83.5246914  38.6455089 122.7466333  84.4292545  38.5301756
 123.6733451  83.5663442  39.3599159 123.9632674  80.9023763  35.2356449
 124.5596246  80.6779785  34.5213412 124.0207646  80.1608508  35.8381897
 123.5357702  78.3563198  23.0706640 123.7883223  77.8344719  22.3090103
 122.5982261  78.1929343  23.1733324 128.5800985  77.3598976  30.8781383
 129.3664074  76.9418400  30.5271800 128.8439690  78.2645069  31.0463032
 128.7511063  82.7971827  25.5770040 128.1156896  82.8706453  26.2890945
 128.4208469  83.3865425  24.8989119 133.9809412  77.2974210  31.7814362
 134.7134584  76.7273426  32.0152191 133.2248768  76.9095810  32.2220867
 123.2553991  80.2591304  25.2731015 123.1390249  79.5836207  25.9412099
 123.3656251  79.7723678  24.4563168 125.5985532  79.7201451  28.9777704
 125.2343739  79.1932072  29.6890626 126.4552648  79.3299920  28.8044190
 131.5034833  71.0095784  36.2408970 131.1718157  71.8791195  36.0170185
 130.9080446  70.6932068  36.9203001 125.2391019  74.7491351  23.9739053
 125.4065421  75.6171587  24.3409524 125.0488188  74.9118632  23.0500342
 127.9966352  83.2108330  35.6404883 127.6967075  84.1133368  35.5320690
 127.6517412  82.9440513  36.4926036 121.4478834  79.6622126  31.6741588
 120.5229330  79.5298341  31.8819279 121.6963247  80.4416346  32.1711530
 131.3963496  75.7290870  33.3202320 130.4880373  75.6606278  33.0261081
 131.3451092  76.2062815  34.1484146 125.2180240  77.2049008  24.9585720
 125.0979865  77.6506059  25.7971200 124.5232828  77.5534326  24.3999258
 118.8087645  79.3055400  32.5085377 118.9380026  79.5589879  33.4224788
 118.1285096  79.8983108  32.1890032 122.9787132  89.9752650  28.6075851
 122.9011162  90.9260475  28.6864331 122.3748776  89.6298522  29.2650777
 125.4704362  77.1480515  41.2637218 124.6937696  77.7074436  41.2540082
 126.1094925  77.6337298  41.7852088 133.2625142  73.9307308  35.0980194
 132.6199523  74.2239841  34.4519989 132.7580071  73.8160229  35.9033391
 130.9165306  77.6770481  25.7866054 131.8283162  77.9097868  25.6113751
 130.4074953  78.2607526  25.2241132 123.7250734  79.9565969  40.8255185
 124.4665418  80.4951013  40.5490008 123.0187720  80.5832258  40.9826737
 129.2006074  82.0995109  39.4227346 129.6089430  81.6577520  38.6781979
 128.4783335  81.5247737  39.6761539 125.5537144  77.0367716  36.7960903
 126.3998339  77.4607130  36.9395552 125.4935781  76.3801340  37.4899466
 129.5234888  82.6596300  33.1779635 128.8943751  82.8242014  32.4755703
 129.1360550  83.0737909  33.9490599 133.4024120  83.5950738  30.5323999
 132.7175158  83.9749639  29.9821032 133.4867970  84.2046064  31.2655947
 128.7036589  74.6972084  38.4542077 128.4597521  75.4514145  37.9176352
 128.9796520  75.0757432  39.2889324 130.6575052  81.2410697  37.1319342
 130.8691947  81.8842457  36.4553723 130.6104800  80.4073013  36.6641272
 128.2601281  73.8528517  34.0355915 127.3985760  74.1509771  34.3272652
 128.2863715  74.0698916  33.1036947 125.0762850  82.3970708  30.4429720
 125.5401196  82.6758411  29.6534343 124.8119648  81.4954153  30.2602811
 121.9686931  81.9442189  33.3809483 122.5388288  82.3729458  32.7426968
 122.5595043  81.6624774  34.0793669 124.0131736  78.5193860  27.2519285
 124.7155780  78.9714904  27.7193212 123.6812365  77.8777679  27.8799178
 122.4612098  77.1105617  41.6270495 121.8310758  77.7921898  41.8605892
 122.3548186  76.9988699  40.6823633 117.7557070  76.7777413  32.5536419
 116.9656124  77.0334942  32.0776530 118.2468318  77.5925751  32.6588459
 131.7720880  84.1182652  35.3041700 132.5938324  83.7162839  35.0224381
 131.7683283  84.0150886  36.2557816 119.7071816  77.1421992  29.5119896
 118.9102979  77.2540686  30.0303391 119.4797408  77.4808644  28.6460786
 125.5377483  83.6666695  37.4602410 125.6021916  84.1287103  38.2960582
 124.8288407  83.0364060  37.5884720 116.0394773  77.0307903  34.9851410
 116.2902812  77.9154913  35.2508986 116.5754322  76.8512505  34.2126502
 139.8626873  80.4621401  31.6526671 139.1090581  79.8928799  31.4970676
 139.9974414  80.4284065  32.5997306 125.2525501  85.3334803  27.3281391
 125.1171176  86.1786339  27.7566238 125.7935313  85.5354081  26.5647324
 121.7392841  71.4126383  43.9895746 121.3459786  70.8592581  44.6643390
 122.5558981  71.7236961  44.3802263 118.7054898  82.8510241  27.9009316
 119.2179419  83.6453491  28.0514880 119.3577611  82.1536531  27.8342917
 120.5149783  85.9675997  29.9832069 120.6916411  86.8893962  29.7953053
 121.3106617  85.6534416  30.4126449 124.6560802  72.8284262  41.5816002
 125.3970515  73.4291415  41.5020465 124.8878724  72.0861900  41.0234045
 119.8002140  78.0140629  39.8594232 119.6855655  77.1125886  40.1601331
 118.9446657  78.2604326  39.5079049 126.8793977  85.9558369  41.4581733
 126.4357831  85.1694748  41.1402637 127.5411191  86.1437520  40.7925623
 121.6381098  87.4854171  35.9842411 122.1888524  87.3571234  35.2119405
 120.7992574  87.7849060  35.6337304 128.9775215  86.2361169  39.4863134
 128.9593691  87.0570050  38.9943403 129.8995135  86.1115245  39.7113275
 125.4348270  83.7505299  40.3286642 125.9676606  82.9893587  40.0985950
 124.9062351  83.4578951  41.0710797 128.6017965  68.8565365  35.8580284
 128.2582234  69.7467007  35.7819395 128.9696927  68.6667022  34.9949869
 116.6703815  81.1798895  28.6768886 117.5079037  81.5895904  28.4602594
 116.8482083  80.2398337  28.6469080 128.5668247  78.8473976  24.3652719
 128.0514871  79.6178581  24.6041107 128.2945556  78.1739112  24.9885781
 126.1515358  73.6923677  29.4237957 125.2956955  73.3030527  29.2443596
 126.5642310  73.7715638  28.5637743 127.6814505  71.2270020  33.8229517
 127.1779300  71.1900155  33.0097323 127.9745112  72.1362763  33.8826174
 123.9257391  71.3108750  32.8295699 124.7910388  71.1151558  32.4701588
 123.9934900  71.0819101  33.7565056 133.5402521  81.6006331  26.3005893
 132.7631964  81.2617490  25.8561055 134.2194002  81.6058954  25.6260858
 128.3554550  76.7201068  26.1912500 128.0504686  77.0347217  27.0422643
 129.3084993  76.7982488  26.2339833 126.8000982  82.8791291  27.8405454
 126.2722344  82.1444051  27.5278692 126.2988485  83.6565968  27.5945423
 131.7793828  81.0740312  32.9572501 131.1217503  81.7639573  33.0452629
 132.5834227  81.4636744  33.3006487 121.5319710  73.5410958  30.2012066
 122.1063462  73.3186139  29.4685259 122.1190692  73.6099652  30.9540667
 130.5899287  79.4284685  31.0076442 131.1031169  80.0614676  31.5098152
 131.2400511  78.8285880  30.6419802 121.8589297  75.5715419  24.2207951
 121.0226609  75.9090105  24.5417226 121.7194067  75.4364398  23.2835088
 123.8342378  70.4152207  28.9287135 123.1806790  70.1001224  28.3043750
 123.7922852  69.7927947  29.6546958 124.9453582  80.6971502  20.8440427
 124.0380644  80.4660755  21.0431576 125.4424614  79.9009121  21.0314409
 127.8521661  89.4069009  23.7637113 127.1783360  89.7100706  24.3722071
 128.2387483  90.2098089  23.4142571 127.0680118  76.9034140  33.2534783
 126.1502679  77.1249087  33.0956471 127.4840262  76.9780451  32.3946490
 127.8515166  78.3025556  28.3837463 128.5986985  78.8146953  28.0744585
 128.1206755  77.9809608  29.2441857 126.1241816  80.7984096  25.3664417
 125.2153035  80.5143129  25.4636887 126.1536900  81.2183175  24.5067724
 131.3561083  84.4090686  29.1355585 130.9023410  83.5681596  29.1920775
 130.7255050  85.0452084  29.4730365 130.2994003  75.3382672  30.3656252
 129.5616760  74.8260058  30.6966495 130.5520776  74.8983054  29.5539529
 129.7994023  86.2467183  30.0705403 130.0916997  86.8072240  29.3517769
 130.3092643  86.5395744  30.8258562 130.4005630  68.1158924  30.9598022
 130.7064507  67.2556287  30.6723937 131.1258235  68.7076544  30.7597016
 116.6929986  78.5189611  29.3479620 116.4954386  77.9258971  28.6230686
 116.1376650  78.2141821  30.0655558 124.6726710  78.4112717  31.4674213
 124.7275320  77.4586553  31.3916689 123.8617912  78.5672156  31.9515511
 125.8217904  82.3392840  22.7052496 125.3837334  81.6228699  22.2458133
 126.5628345  82.5668955  22.1437587 122.6119070  77.0289777  29.2264592
 121.7986935  77.3283947  29.6329784 123.1078064  76.6345466  29.9439074
 124.7627648  87.0247534  31.1598856 124.7203827  87.2508380  30.2307388
 125.6790347  86.7910908  31.3084657 128.2093282  77.4931601  38.0579486
 128.5642669  77.7203074  38.9173951 128.8565413  77.8249978  37.4356741
 133.9391018  80.6150037  28.7628815 133.8008917  80.8051633  27.8350004
 133.5827237  81.3769420  29.2196866 122.1033145  74.6008132  34.8425827
 122.7432524  74.4596891  34.1448790 121.2710675  74.3142646  34.4664429
 133.9660398  82.6826564  33.7740086 134.3996905  82.5901853  34.6223140
 134.6791979  82.6584065  33.1360102 122.8793448  83.9010563  30.9560819
 123.6734047  83.4060883  30.7543394 122.1685141  83.3728426  30.5928525
 127.6988293  86.2828658  35.3073187 127.7525315  86.8519595  36.0750903
 126.8303074  86.4530543  34.9427224 119.1876212  78.0453645  27.0320572
 118.2573800  77.9838100  27.2490534 119.2833684  77.5229597  26.2357213
 119.1061761  74.5708457  29.6198813 119.3668578  75.4853791  29.5107974
 119.9278933  74.1032900  29.7695426 120.5786686  75.9846215  36.7897638
 121.2509740  75.7763577  36.1410287 119.7516473  75.7868301  36.3502870
 134.8275948  82.7250265  36.3072971 135.0211838  83.6296075  36.5532246
 134.7276566  82.2657684  37.1411556 126.4812258  72.6108155  38.8063299
 125.8340173  73.3098105  38.7127775 127.2513274  73.0444299  39.1739547
 129.8891056  82.8757008  41.8813852 129.7376563  82.6467559  40.9643936
 129.8795736  83.8327609  41.8945197 126.6576393  80.4488920  36.8660118
 127.5868453  80.6000080  36.6929086 126.2367423  80.5372941  36.0108765
 125.4564724  84.4739585  34.6358656 125.3175810  84.1058369  35.5084594
 124.6679321  84.9887224  34.4642614 126.0512876  89.5748681  25.9784193
 126.2264632  89.1036724  26.7929815 125.3645664  90.2014447  26.2065453
 127.0069940  83.8521187  32.0247494 126.6719772  83.8121957  32.9205144
 126.5073885  83.1865903  31.5517904 120.9814184  79.2588817  37.5500075
 120.8433982  78.5269056  38.1511614 121.8919107  79.1697718  37.2684263
 129.9429131  81.1977222  22.2984554 129.3258302  80.4724050  22.2017606
 129.4745620  81.9586582  21.9551628 123.6096484  78.9708777  37.0383755
 124.3196103  78.3301969  36.9970373 123.5665792  79.2221672  37.9609935
 131.5983263  85.9076130  39.9590334 131.5395809  85.2235350  39.2920917
 132.0002781  86.6495120  39.5070960 122.3225418  75.9573995  38.8579394
 121.7862775  75.5064733  39.5100991 121.7342127  76.0919904  38.1149859
 120.6173962  92.7238044  32.7524053 120.8570560  93.3556568  33.4303071
 119.7743158  92.3726084  33.0389412 121.7327677  75.4162646  21.4205858
 120.8557144  75.2951447  21.0568105 122.2085430  74.6248724  21.1684746
 131.6000670  83.8715714  38.1904314 130.7127449  83.5341636  38.3130712
 132.1699221  83.1398745  38.4273079 113.2529817  80.2039806  31.5147365
 113.9400857  79.8901536  30.9268380 113.0977946  81.1081170  31.2414616
 118.0564539  75.0930002  35.9432389 117.9722728  74.4855672  35.2082799
 117.2347246  75.5839021  35.9441885 125.1301824  88.5317166  35.1565557
 125.0571995  89.3372138  35.6684861 124.6879217  88.7309132  34.3313578
 124.9191603  87.7688936  28.6668378 124.1359125  88.3110617  28.7606603
 125.6184348  88.2862916  29.0662620 128.2288253  73.5783566  31.3102584
 128.7256953  72.8253528  30.9903654 127.4575235  73.6147883  30.7445793
 136.0818011  79.2823931  32.9520875 136.0707887  80.1648647  32.5814808
 135.2135390  78.9295482  32.7575412 127.5900507  88.4304000  37.3123715
 128.3028479  89.0651465  37.2399617 127.0990536  88.5267866  36.4963717
 129.3118034  82.3355253  28.8841007 128.3774313  82.4556716  28.7145711
 129.4894702  81.4327720  28.6201017 124.8123222  75.7200949  31.0374268
 124.4421010  75.1671989  31.7255174 125.3082315  75.1159082  30.4849268
 132.6990585  78.1772572  29.4191041 133.1651038  79.0100564  29.3451344
 133.1498086  77.7117554  30.1236300 122.6412421  86.1798444  38.1329286
 123.3421880  86.8134927  38.2858681 122.1707536  86.5213175  37.3724926
 130.7666816  84.5216394  26.4177193 131.0426660  84.4072988  27.3271067
 129.8971315  84.1233879  26.3789366 130.6707248  70.5453159  33.4581943
 129.7570328  70.7757386  33.6264150 131.1000350  70.6291603  34.3095975
 130.4413707  78.7343051  35.9581837 129.7885157  78.9818959  35.3034289
 130.8194087  77.9207190  35.6244314 127.4020880  88.7702745  30.0610007
 127.5843275  87.9524400  30.5237759 128.2253867  88.9870437  29.6234897
 127.7363046  87.6970930  27.3225055 128.2650812  87.1863384  26.7095218
 127.9991266  87.3813460  28.1870588 126.4901280  79.4762862  42.4447874
 125.8141917  79.3756992  43.1150249 127.3128914  79.3202076  42.9083871
 118.2380139  85.7134799  35.0660389 118.8233576  84.9678487  35.1988293
 118.0404977  86.0238756  35.9497053 121.0918794  88.7486046  30.0822831
 120.4229169  89.2332174  29.5986871 120.9531664  88.9955267  30.9966210
 112.8297793  78.2840399  33.7864832 112.8681893  77.7503990  34.5801950
 112.3238086  77.7575605  33.1675809 125.2324063  90.7829790  36.6805490
 125.7842371  90.9461411  37.4454575 125.5730256  91.3734228  36.0085515
 120.2088556  73.1304940  37.2827374 120.2729882  73.9919771  36.8704772
 120.1455676  72.5178941  36.5499733 119.6840828  75.2028072  40.9300409
 120.3112867  74.8205150  41.5437933 118.8268747  74.9842274  41.2956101
 130.0834937  85.6091047  42.5354144 130.6274841  86.2221006  42.0409099
 129.5021782  86.1670626  43.0521157 116.4606371  77.0104501  26.8618763
 116.7559812  76.1015180  26.8085817 115.5594407  76.9892241  26.5399766
 128.3692450  88.7311765  33.6669172 128.2443589  87.9301505  33.1580117
 129.0271541  89.2257959  33.1783142 119.9900618  75.0860498  32.8446312
 119.2687204  75.6996466  32.7053785 120.7793874  75.6218263  32.7662958
 130.4327358  86.5320785  35.2948722 129.4857694  86.4126137  35.2227049
 130.7810131  85.6443284  35.3774983 122.7926932  72.4214924  39.1186964
 123.3161333  72.6677221  39.8813273 122.5739265  73.2534959  38.6990101
 118.1894213  74.6918599  26.9858089 117.8606919  73.8115978  26.8033195
 118.5433583  74.6366268  27.8734478 127.4373791  86.3273502  31.4953074
 127.2898754  85.3990209  31.6760644 128.2627285  86.3493592  31.0110149
 121.3036036  74.9791569  27.3533566 121.6432108  75.5077490  26.6312175
 121.7508156  75.3171975  28.1292133 131.0407913  87.1502060  32.5817947
 131.9654461  86.9444922  32.4442398 130.8723217  86.9018462  33.4907288
 123.9979477  73.3628620  36.8036634 123.6576297  72.5636433  37.2057314
 123.2918483  73.6630330  36.2313468 124.6495948  70.4477932  35.2563957
 125.4722018  69.9738410  35.1342848 124.8934012  71.2268416  35.7562644
 123.2904183  73.4766190  25.5526859 124.0112545  73.8547443  25.0490576
 122.6669487  74.1955067  25.6561837 127.4335306  74.1811339  26.4885191
 127.6498920  75.0635977  26.1874020 126.9529373  73.7897553  25.7590833
 122.1734527  77.1397053  33.0655936 122.0279108  77.4537356  33.9580218
 121.6959731  77.7581953  32.5126835 124.0330910  74.1299601  33.1136826
 124.0192479  73.2340694  32.7769124 124.7503338  74.1370264  33.7475112
 125.8857041  74.5636941  35.1589953 125.6274819  75.4854011  35.1574283
 125.3542081  74.1667375  35.8490417 130.8303230  87.6687728  27.9380038
 131.0040107  87.1034150  27.1853891 131.3232121  88.4688623  27.7559528
 116.6480189  79.6802397  36.0043597 116.1033657  80.4562205  36.1363872
 117.5259539  80.0273201  35.8462719 123.4367806  73.0113981  28.3824396
 123.5583717  72.0830627  28.5815283 123.1469848  73.0252667  27.4702711
 126.3058996  70.6968891  31.5191116 126.3280693  70.7608224  30.5643095
 126.7227055  69.8573400  31.7131622 136.6842621  80.4324151  29.5570338
 137.1273767  79.6831476  29.1589461 135.8069131  80.4234287  29.1744070
 131.8178402  86.9854492  25.0376937 132.5129307  87.6061185  25.2564251
 132.1601552  86.1349844  25.3129315 117.4346211  78.8072293  38.8973754
 116.6927947  78.9554929  39.4838384 117.1138955  79.0680559  38.0340503
 133.7169825  84.4354198  26.5664267 134.2421149  84.7741471  25.8413587
 133.6292178  83.5001213  26.3827402 125.3789874  88.3488271  38.6954144
 125.6877000  88.1037418  39.5676844 126.1765356  88.5534910  38.2073014
 125.4010486  90.5026181  30.9259521 124.9615476  90.0102560  31.6192377
 126.1518603  89.9599149  30.6851596 117.8802825  86.6937722  30.9284149
 118.7060845  86.3941494  30.5482792 117.5296877  85.9245344  31.3773937
 122.8484358  86.0464190  32.9981822 122.2264367  85.3834895  32.6984050
 123.5189225  86.0725322  32.3155470 116.0811430  84.6124048  31.8873082
 115.2443338  84.1846223  31.7057084 116.0535075  84.8056492  32.8243873
 122.9208886  74.5245978  42.5914328 122.9697041  75.4008101  42.2092098
 123.4631400  73.9823371  42.0185972 133.4063731  85.0687101  41.8715465
 132.6159275  85.0511240  41.3319965 133.1697086  85.6075395  42.6264502
 133.5261606  81.9179568  39.1848194 133.5759611  81.7529575  40.1263717
 133.4175530  81.0506827  38.7946075 122.4097865  84.5968114  26.4740283
 122.5585985  85.2803578  25.8206956 123.2164308  84.5773204  26.9889739
 130.8165369  77.9010496  40.5007501 131.7175231  77.7616961  40.2091498
 130.8913343  78.0664951  41.4405678 125.1508174  75.2777351  39.3460687
 124.2811483  75.5710917  39.0743276 125.3867654  75.8617796  40.0667951
 135.0279803  84.3376509  39.4290215 134.7364611  84.7006490  40.2653676
 134.4151934  83.6243518  39.2503548 136.2275485  81.9029389  31.9492786
 137.0622377  82.3419193  32.1130346 136.3634614  81.4268042  31.1301031
 133.2766991  79.4609124  37.8970273 133.7521113  79.6536770  37.0889125
 132.3532557  79.5168310  37.6513657 120.1650498  80.6233291  27.4801352
 119.9196540  79.7195621  27.6781562 120.3346412  80.6250442  26.5380830
 127.8547208  71.4956968  36.8626107 128.3729152  72.2317994  36.5372596
 127.5002341  71.8020961  37.6972866 119.4346145  76.3561649  24.9787513
 118.7415390  76.4306004  24.3227549 119.1897897  75.5921992  25.5009030
 128.1059802  67.9157250  32.3827004 128.3861556  67.2480439  33.0087430
 128.8910409  68.1086346  31.8701668 125.9093270  87.0916244  23.9452030
 125.3367238  87.7106431  23.4922502 126.4826064  87.6415606  24.4791952
 131.9768660  76.3374884  36.1298579 132.9286083  76.4372982  36.1510803
 131.8072111  75.5453153  36.6396663 129.9983040  73.4230467  36.3157980
 129.4032972  73.7035480  35.6204469 129.7132736  73.9124368  37.0874721
 129.1290530  87.3753394  25.0760613 130.0621203  87.3098956  25.2793488
 129.0413743  88.2109661  24.6175145 131.7578547  86.6919264  22.0364560
 131.6792178  86.3579128  22.9300318 132.5788214  87.1841032  22.0356032
 134.4556738  79.5581004  35.2440879 134.4233058  78.6197004  35.4300563
 135.0657362  79.6365040  34.5106704 126.2940069  78.4277057  21.2868083
 127.2399174  78.2983265  21.3556501 125.9154314  77.6891719  21.7637511
 134.6051227  76.3492047  35.2899162 134.0890275  75.5650504  35.1029091
 135.4891175  76.0210764  35.4545681 132.2661954  70.0933063  31.2494975
 132.0686775  69.7848151  32.1338307 132.8761659  70.8194702  31.3792904
 140.2733288  80.6197011  34.3846916 141.0036676  80.3582299  34.9454619
 139.6640233  79.8825733  34.4248983 138.3548585  78.7604873  34.9821367
 137.6281749  78.6260838  34.3737858 137.9395872  79.0681702  35.7878085
 126.1778762  82.4794803  42.7468740 127.0981771  82.6573402  42.9408786
 126.1428345  81.5350848  42.5948439 124.4782986  76.3527033  21.2222968
 123.5714442  76.0560146  21.2985682 124.7558967  76.0556851  20.3557254
 115.3960927  77.6733397  31.6722014 115.0763711  76.8198705  31.3796388
 114.8494355  77.8881975  32.4279982 119.1740834  80.3895838  35.3891521
 119.3926844  81.3212945  35.4079555 119.5866608  80.0303812  36.1746325
 126.0945052  70.8963923  27.3767209 125.2845780  70.5511008  27.7522455
 126.7829469  70.5871467  27.9654821 128.0235600  69.9741970  28.9991506
 128.5766639  70.3937423  29.6581529 128.2605686  69.0477718  29.0414462
 124.0468699  75.9629043  44.7794270 123.9465426  76.9123400  44.7106361
 123.8290241  75.6347282  43.9070340 123.2481771  73.2113968  21.3634947
 124.1100935  73.5368867  21.6230765 123.4332115  72.4245464  20.8508013
 115.2649187  81.2936308  33.6415136 114.5712658  80.8790261  33.1285090
 116.0122178  81.3356845  33.0448555 131.4014407  72.0842495  28.5070170
 130.8213076  72.7427299  28.1248223 131.1350340  71.2619839  28.0957588
 129.8517974  71.4847553  30.7091491 130.3517752  71.5964087  29.9005809
 130.4953582  71.1808605  31.3492299 123.9099969  79.3926182  43.5959331
 123.4267051  80.1926542  43.8023221 123.9960908  79.4034127  42.6426775
 117.1785929  81.2254562  31.5181151 117.1556617  81.3242249  30.5663034
 117.4886566  82.0719713  31.8398317 119.8373307  83.2830717  35.6327765
 120.7916560  83.2514659  35.5657697 119.6385830  82.8221341  36.4477991
 120.4272689  81.8531833  38.1998563 121.2465578  82.3475912  38.2233400
 120.7009497  80.9363801  38.1716130 130.1839285  74.2442585  27.5626518
 129.2965140  74.5292236  27.3446713 130.5993274  74.0836349  26.7153795
 133.5353821  74.2689106  31.2780858 134.3114211  74.7585559  31.5505475
 132.8101956  74.6947160  31.7352727 135.9726380  74.9816725  32.3354798
 136.5670871  74.7412461  31.6248107 136.0452964  74.2623856  32.9628335
 118.1923536  88.8250336  32.6497963 118.0578004  88.0650737  32.0835961
 117.7755598  89.5491236  32.1826752 129.3282499  84.0087260  21.6574538
 130.0318349  84.2137262  22.2732194 128.6045147  84.5764022  21.9223622
 130.1580309  79.7597121  27.7776809 130.1015510  80.2165673  26.9384441
 130.7108651  78.9987806  27.5999651 133.9685115  75.5486853  28.6026928
 133.7122049  75.1483489  29.4335136 133.3437983  76.2630647  28.4777067
 138.2797453  78.2882926  31.1098220 137.7197011  78.3576116  31.8829782
 137.6740956  78.1123911  30.3897716 121.3492662  89.7219653  32.8616406
 121.2325046  90.6665086  32.7595096 120.5285108  89.4193215  33.2502205
 131.2369196  84.4469789  23.7072998 132.0714800  84.0150988  23.5250473
 131.0753539  84.2751803  24.6349893 130.8915088  80.9501902  25.0729338
 130.8363892  80.7846174  24.1317782 130.2661144  81.6577935  25.2291527
 115.6807603  76.1869967  38.8990760 116.3266467  75.6768921  39.3877985
 115.4724754  76.9238648  39.4734185 128.2060995  83.2550814  44.3982901
 129.0752155  83.4291467  44.0369535 127.7267747  84.0745231  44.2758630
 124.2011214  70.4510011  24.6514656 124.1889884  71.3951851  24.8082927
 125.0934636  70.2680157  24.3574117 122.3747176  90.3747915  36.0772334
 123.2774422  90.4071526  36.3938829 122.1484546  89.4448366  36.0918670
 124.1300778  89.1278902  32.7382413 123.1796409  89.1280763  32.6246785
 124.4333264  88.3811636  32.2218447 128.0163333  67.0452788  28.9060593
 127.2495729  66.4911275  29.0517275 128.4274038  67.1174657  29.7674745
 120.0205094  73.3337584  42.9965774 120.8836556  72.9774389  43.2069099
 119.4470505  72.9951479  43.6841178 139.8653471  94.9639440  33.8028175
 140.5031881  94.8446188  33.0991515 139.7474314  95.9120284  33.8616127
 136.6743177  94.9166868  33.7389700 136.3361689  94.8007933  32.8510235
 137.5432946  94.5158033  33.7190706 132.5329993  96.7702345  29.7286591
 131.9694858  96.6792282  28.9602879 132.4182388  95.9502249  30.2089083
 137.1562960  96.0701720  39.6975905 137.1451601  95.6754518  38.8256409
 137.3183600  95.3367793  40.2909677 130.0794425  98.2653536  32.5670811
 130.8715717  97.9244361  32.1517111 130.3191075  98.3748511  33.4872965
 132.0385179  97.5262450  25.4388190 132.8116055  96.9791437  25.3001066
 132.3910578  98.3906699  25.6502652 133.8770222  98.8538832  38.6455089
 133.5860088  99.7584463  38.5301756 134.5127206  98.8955359  39.3599159
 134.8026428  96.2315680  35.2356449 135.3990001  96.0071703  34.5213412
 134.8601400  95.4900426  35.8381897 139.4194740  92.6890894  30.8781383
 140.2057829  92.2710317  30.5271800 139.6833444  93.5936986  31.0463032
 134.0947746  95.5883222  25.2731015 133.9784004  94.9128125  25.9412099
 134.2050006  95.1015596  24.4563168 136.4379287  95.0493369  28.9777704
 136.0737494  94.5223990  29.6890626 137.2946402  94.6591838  28.8044190
 142.3428587  86.3387701  36.2408970 142.0111912  87.2083112  36.0170185
 141.7474201  86.0223985  36.9203001 136.0784774  90.0783268  23.9739053
 136.2459176  90.9463505  24.3409524 135.8881943  90.2410550  23.0500342
 138.8360107  98.5400247  35.6404883 138.5360830  99.4425286  35.5320690
 138.4911166  98.2732431  36.4926036 132.2872588  94.9914044  31.6741588
 131.3623085  94.8590258  31.8819279 132.5357001  95.7708263  32.1711530
 142.2357251  91.0582788  33.3202320 141.3274128  90.9898196  33.0261081
 142.1844846  91.5354732  34.1484146 136.0573994  92.5340926  24.9585720
 135.9373620  92.9797977  25.7971200 135.3626583  92.8826244  24.3999258
 129.6481399  94.6347318  32.5085377 129.7773780  94.8881797  33.4224788
 128.9678851  95.2275026  32.1890032 136.3098116  92.4772433  41.2637218
 135.5331450  93.0366353  41.2540082 136.9488679  92.9629216  41.7852088
 134.5644489  95.2857886  40.8255185 135.3059173  95.8242930  40.5490008
 133.8581474  95.9124175  40.9826737 140.0399828  97.4287027  39.4227346
 140.4483184  96.9869437  38.6781979 139.3177090  96.8539654  39.6761539
 136.3930898  92.3659634  36.7960903 137.2392093  92.7899047  36.9395552
 136.3329536  91.7093258  37.4899466 140.3628643  97.9888218  33.1779635
 139.7337505  98.1533932  32.4755703 139.9754305  98.4029827  33.9490599
 139.5430344  90.0264002  38.4542077 139.2991275  90.7806063  37.9176352
 139.8190274  90.4049350  39.2889324 141.4968806  96.5702614  37.1319342
 141.7085702  97.2134374  36.4553723 141.4498555  95.7364931  36.6641272
 139.0995035  89.1820435  34.0355915 138.2379514  89.4801689  34.3272652
 139.1257470  89.3990834  33.1036947 135.9156605  97.7262626  30.4429720
 136.3794950  98.0050329  29.6534343 135.6513403  96.8246070  30.2602811
 132.8080686  97.2734107  33.3809483 133.3782043  97.7021376  32.7426968
 133.3988798  96.9916692  34.0793669 134.8525491  93.8485778  27.2519285
 135.5549534  94.3006822  27.7193212 134.5206119  93.2069597  27.8799178
 133.3005852  92.4397535  41.6270495 132.6704513  93.1213815  41.8605892
 133.1941940  92.3280616  40.6823633 128.5950825  92.1069331  32.5536419
 127.8049879  92.3626859  32.0776530 129.0862072  92.9217669  32.6588459
 142.6114634  99.4474570  35.3041700 143.4332078  99.0454757  35.0224381
 142.6077037  99.3442804  36.2557816 130.5465570  92.4713910  29.5119896
 129.7496733  92.5832604  30.0303391 130.3191162  92.8100562  28.6460786
 136.3771238  98.9958613  37.4602410 136.4415670  99.4579020  38.2960582
 135.6682162  98.3655978  37.5884720 126.8788528  92.3599821  34.9851410
 127.1296566  93.2446831  35.2508986 127.4148076  92.1804423  34.2126502
 132.5786595  86.7418300  43.9895746 132.1853541  86.1884499  44.6643390
 133.3952735  87.0528879  44.3802263 129.5448653  98.1802159  27.9009316
 130.0573173  98.9745409  28.0514880 130.1971366  97.4828449  27.8342917
 131.3543538 101.2967915  29.9832069 131.5310166 102.2185880  29.7953053
 132.1500371 100.9826334  30.4126449 135.4954556  88.1576180  41.5816002
 136.2364269  88.7583333  41.5020465 135.7272479  87.4153817  41.0234045
 130.6395894  93.3432547  39.8594232 130.5249409  92.4417804  40.1601331
 129.7840412  93.5896244  39.5079049 137.7187732 101.2850287  41.4581733
 137.2751586 100.4986666  41.1402637 138.3804945 101.4729438  40.7925623
 132.4774853 102.8146089  35.9842411 133.0282278 102.6863152  35.2119405
 131.6386329 103.1140978  35.6337304 139.8168970 101.5653087  39.4863134
 139.7987445 102.3861968  38.9943403 140.7388890 101.4407162  39.7113275
 136.2742024  99.0797217  40.3286642 136.8070361  98.3185505  40.0985950
 135.7456105  98.7870868  41.0710797 139.4411719  84.1857283  35.8580284
 139.0975988  85.0758924  35.7819395 139.8090682  83.9958940  34.9949869
 127.5097570  96.5090813  28.6768886 128.3472792  96.9187821  28.4602594
 127.6875837  95.5690255  28.6469080 136.9909113  89.0215594  29.4237957
 136.1350709  88.6322445  29.2443596 137.4036065  89.1007555  28.5637743
 138.5208259  86.5561938  33.8229517 138.0173055  86.5192073  33.0097323
 138.8138866  87.4654680  33.8826174 134.7651145  86.6400667  32.8295699
 135.6304142  86.4443476  32.4701588 134.8328654  86.4111019  33.7565056
 139.1948305  92.0492986  26.1912500 138.8898440  92.3639135  27.0422643
 140.1478747  92.1274406  26.2339833 137.6394737  98.2083209  27.8405454
 137.1116098  97.4735969  27.5278692 137.1382239  98.9857885  27.5945423
 142.6187583  96.4032230  32.9572501 141.9611257  97.0931491  33.0452629
 143.4227982  96.7928661  33.3006487 132.3713464  88.8702875  30.2012066
 132.9457216  88.6478057  29.4685259 132.9584447  88.9391570  30.9540667
 141.4293042  94.7576602  31.0076442 141.9424923  95.3906594  31.5098152
 142.0794265  94.1577798  30.6419802 132.6983051  90.9007336  24.2207951
 131.8620364  91.2382023  24.5417226 132.5587821  90.7656316  23.2835088
 134.6736132  85.7444124  28.9287135 134.0200544  85.4293141  28.3043750
 134.6316606  85.1219865  29.6546958 137.9073872  92.2326058  33.2534783
 136.9896434  92.4541005  33.0956471 138.3234016  92.3072368  32.3946490
 138.6908920  93.6317473  28.3837463 139.4380739  94.1438871  28.0744585
 138.9600510  93.3101526  29.2441857 141.1387757  90.6674590  30.3656252
 140.4010514  90.1551976  30.6966495 141.3914531  90.2274971  29.5539529
 141.2399385  83.4450842  30.9598022 141.5458261  82.5848205  30.6723937
 141.9651989  84.0368462  30.7597016 127.5323741  93.8481528  29.3479620
 127.3348141  93.2550889  28.6230686 126.9770405  93.5433738  30.0655558
 135.5120464  93.7404635  31.4674213 135.5669074  92.7878471  31.3916689
 134.7011666  93.8964074  31.9515511 133.4512824  92.3581695  29.2264592
 132.6380690  92.6575865  29.6329784 133.9471818  91.9637383  29.9439074
 135.6021402 102.3539451  31.1598856 135.5597581 102.5800298  30.2307388
 136.5184101 102.1202826  31.3084657 139.0487036  92.8223519  38.0579486
 139.4036424  93.0494992  38.9173951 139.6959167  93.1541896  37.4356741
 132.9426899  89.9300050  34.8425827 133.5826278  89.7888809  34.1448790
 132.1104430  89.6434563  34.4664429 133.7187203  99.2302480  30.9560819
 134.5127801  98.7352801  30.7543394 133.0078895  98.7020344  30.5928525
 138.5382047 101.6120576  35.3073187 138.5919070 102.1811512  36.0750903
 137.6696829 101.7822461  34.9427224 130.0269966  93.3745562  27.0320572
 129.0967555  93.3130018  27.2490534 130.1227438  92.8521515  26.2357213
 129.9455515  89.9000375  29.6198813 130.2062333  90.8145708  29.5107974
 130.7672688  89.4324818  29.7695426 131.4180441  91.3138132  36.7897638
 132.0903494  91.1055494  36.1410287 130.5910227  91.1160218  36.3502870
 137.3206013  87.9400073  38.8063299 136.6733928  88.6390023  38.7127775
 138.0907028  88.3736217  39.1739547 140.7284811  98.2048925  41.8813852
 140.5770317  97.9759477  40.9643936 140.7189490  99.1619527  41.8945197
 137.4970147  95.7780838  36.8660118 138.4262207  95.9291998  36.6929086
 137.0761177  95.8664859  36.0108765 136.2958479  99.8031502  34.6358656
 136.1569565  99.4350287  35.5084594 135.5073075 100.3179142  34.4642614
 137.8463694  99.1813105  32.0247494 137.5113527  99.1413875  32.9205144
 137.3467640  98.5157821  31.5517904 131.8207938  94.5880735  37.5500075
 131.6827736  93.8560974  38.1511614 132.7312862  94.4989635  37.2684263
 134.4490239  94.3000694  37.0383755 135.1589857  93.6593887  36.9970373
 134.4059547  94.5513589  37.9609935 142.4377017 101.2368048  39.9590334
 142.3789564 100.5527268  39.2920917 142.8396536 101.9787038  39.5070960
 133.1619173  91.2865912  38.8579394 132.6256530  90.8356651  39.5100991
 132.5735881  91.4211821  38.1149859 131.4567716 108.0529962  32.7524053
 131.6964314 108.6848486  33.4303071 130.6136913 107.7018002  33.0389412
 132.5721432  90.7454564  21.4205858 131.6950898  90.6243365  21.0568105
 133.0479185  89.9540642  21.1684746 142.4394425  99.2007632  38.1904314
 141.5521203  98.8633554  38.3130712 143.0092976  98.4690663  38.4273079
 124.0923572  95.5331724  31.5147365 124.7794612  95.2193454  30.9268380
 123.9371700  96.4373088  31.2414616 128.8958294  90.4221920  35.9432389
 128.8116483  89.8147590  35.2082799 128.0741000  90.9130938  35.9441885
 135.9695578 103.8609084  35.1565557 135.8965750 104.6664056  35.6684861
 135.5272971 104.0601050  34.3313578 139.0682008  88.9075484  31.3102584
 139.5650707  88.1545446  30.9903654 138.2968989  88.9439800  30.7445793
 138.4294262 103.7595918  37.3123715 139.1422234 104.3943383  37.2399617
 137.9384290 103.8559784  36.4963717 140.1511789  97.6647171  28.8841007
 139.2168067  97.7848633  28.7145711 140.3288457  96.7619638  28.6201017
 135.6516977  91.0492867  31.0374268 135.2814764  90.4963907  31.7255174
 136.1476069  90.4451000  30.4849268 133.4806175 101.5090362  38.1329286
 134.1815635 102.1426845  38.2858681 133.0101290 101.8505093  37.3724926
 141.5101003  85.8745077  33.4581943 140.5964082  86.1049304  33.6264150
 141.9394104  85.9583521  34.3095975 141.2807461  94.0634969  35.9581837
 140.6278911  94.3110877  35.3034289 141.6587841  93.2499107  35.6244314
 137.3295034  94.8054780  42.4447874 136.6535671  94.7048909  43.1150249
 138.1522668  94.6493994  42.9083871 129.0773893 101.0426717  35.0660389
 129.6627330 100.2970405  35.1988293 128.8798732 101.3530673  35.9497053
 131.9312548 104.0777964  30.0822831 131.2622924 104.5624092  29.5986871
 131.7925418 104.3247184  30.9966210 123.6691548  93.6132317  33.7864832
 123.7075647  93.0795908  34.5801950 123.1631841  93.0867522  33.1675809
 136.0717817 106.1121708  36.6805490 136.6236125 106.2753329  37.4454575
 136.4124010 106.7026145  36.0085515 131.0482310  88.4596857  37.2827374
 131.1123637  89.3211688  36.8704772 130.9849430  87.8470859  36.5499733
 130.5234583  90.5319990  40.9300409 131.1506622  90.1497067  41.5437933
 129.6662502  90.3134192  41.2956101 140.9228691 100.9382965  42.5354144
 141.4668595 101.5512923  42.0409099 140.3415536 101.4962543  43.0521157
 127.3000126  92.3396419  26.8618763 127.5953567  91.4307097  26.8085817
 126.3988161  92.3184158  26.5399766 139.2086204 104.0603683  33.6669172
 139.0837344 103.2593423  33.1580117 139.8665295 104.5549876  33.1783142
 130.8294373  90.4152416  32.8446312 130.1080958  91.0288383  32.7053785
 131.6187628  90.9510180  32.7662958 141.2721113 101.8612703  35.2948722
 140.3251448 101.7418054  35.2227049 141.6203886 100.9735201  35.3774983
 133.6320686  87.7506842  39.1186964 134.1555088  87.9969139  39.8813273
 133.4133019  88.5826877  38.6990101 129.0287967  90.0210517  26.9858089
 128.7000673  89.1407896  26.8033195 129.3827338  89.9658185  27.8734478
 138.2767546 101.6565419  31.4953074 138.1292508 100.7282127  31.6760644
 139.1021039 101.6785510  31.0110149 132.1429790  90.3083486  27.3533566
 132.4825863  90.8369408  26.6312175 132.5901911  90.6463893  28.1292133
 141.8801668 102.4793978  32.5817947 142.8048215 102.2736839  32.4442398
 141.7116971 102.2310379  33.4907288 134.8373231  88.6920537  36.8036634
 134.4970051  87.8928350  37.2057314 134.1312237  88.9922248  36.2313468
 135.4889703  85.7769850  35.2563957 136.3115772  85.3030328  35.1342848
 135.7327766  86.5560333  35.7562644 134.1297937  88.8058108  25.5526859
 134.8506300  89.1839361  25.0490576 133.5063242  89.5246985  25.6561837
 138.2729060  89.5103257  26.4885191 138.4892675  90.3927895  26.1874020
 137.7923127  89.1189470  25.7590833 133.0128282  92.4688970  33.0655936
 132.8672862  92.7829273  33.9580218 132.5353485  93.0873871  32.5126835
 134.8724665  89.4591518  33.1136826 134.8586233  88.5632612  32.7769124
 135.5897093  89.4662182  33.7475112 136.7250795  89.8928858  35.1589953
 136.4668573  90.8145929  35.1574283 136.1935836  89.4959293  35.8490417
 127.4873944  95.0094315  36.0043597 126.9427412  95.7854123  36.1363872
 128.3653294  95.3565119  35.8462719 134.2761560  88.3405899  28.3824396
 134.3977472  87.4122545  28.5815283 133.9863603  88.3544584  27.4702711
 137.1452751  86.0260809  31.5191116 137.1674448  86.0900142  30.5643095
 137.5620810  85.1865318  31.7131622 128.2739966  94.1364211  38.8973754
 127.5321702  94.2846846  39.4838384 127.9532710  94.3972477  38.0340503
 136.2183628 103.6780189  38.6954144 136.5270755 103.4329336  39.5676844
 137.0159110 103.8826828  38.2073014 136.2404240 105.8318099  30.9259521
 135.8009231 105.3394477  31.6192377 136.9912357 105.2891066  30.6851596
 128.7196579 102.0229640  30.9284149 129.5454599 101.7233412  30.5482792
 128.3690631 101.2537262  31.3773937 133.6878113 101.3756108  32.9981822
 133.0658122 100.7126813  32.6984050 134.3582979 101.4017240  32.3155470
 126.9205184  99.9415966  31.8873082 126.0837093  99.5138140  31.7057084
 126.8928830 100.1348409  32.8243873 133.7602640  89.8537896  42.5914328
 133.8090795  90.7300019  42.2092098 134.3025154  89.3115289  42.0185972
 141.6559123  93.2302414  40.5007501 142.5568986  93.0908878  40.2091498
 141.7307098  93.3956868  41.4405678 135.9901928  90.6069268  39.3460687
 135.1205238  90.9002834  39.0743276 136.2261409  91.1909713  40.0667951
 131.0044252  95.9525209  27.4801352 130.7590294  95.0487539  27.6781562
 131.1740167  95.9542359  26.5380830 138.6940962  86.8248885  36.8626107
 139.2122906  87.5609912  36.5372596 138.3396095  87.1312879  37.6972866
 130.2739900  91.6853566  24.9787513 129.5809145  91.7597921  24.3227549
 130.0291652  90.9213910  25.5009030 138.9453556  83.2449168  32.3827004
 139.2255310  82.5772357  33.0087430 139.7304163  83.4378263  31.8701668
 140.8376794  88.7522385  36.3157980 140.2426726  89.0327398  35.6204469
 140.5526491  89.2416286  37.0874721 137.0172516  97.8086721  42.7468740
 137.9375525  97.9865320  42.9408786 136.9822099  96.8642766  42.5948439
 126.2354681  93.0025314  31.6722014 125.9157465  92.1490622  31.3796388
 125.6888109  93.2173892  32.4279982 130.0134589  95.7187755  35.3891521
 130.2320598  96.6504863  35.4079555 130.4260362  95.3595730  36.1746325
 136.9338806  86.2255841  27.3767209 136.1239535  85.8802925  27.7522455
 137.6223223  85.9163384  27.9654821 138.8629355  85.3033887  28.9991506
 139.4160393  85.7229341  29.6581529 139.0999441  84.3769635  29.0414462
 134.8862454  91.2920961  44.7794270 134.7859181  92.2415318  44.7106361
 134.6683996  90.9639200  43.9070340 134.0875525  88.5405886  21.3634947
 134.9494689  88.8660784  21.6230765 134.2725869  87.7537382  20.8508013
 126.1042941  96.6228226  33.6415136 125.4106412  96.2082178  33.1285090
 126.8515932  96.6648762  33.0448555 142.2408162  87.4134412  28.5070170
 141.6606831  88.0719217  28.1248223 141.9744094  86.5911757  28.0957588
 140.6911728  86.8139470  30.7091491 141.1911506  86.9256005  29.9005809
 141.3347336  86.5100523  31.3492299 134.7493724  94.7218100  43.5959331
 134.2660806  95.5218460  43.8023221 134.8354663  94.7326045  42.6426775
 128.0179684  96.5546479  31.5181151 127.9950372  96.6534167  30.5663034
 128.3280320  97.4011630  31.8398317 130.6767061  98.6122635  35.6327765
 131.6310315  98.5806577  35.5657697 130.4779585  98.1513258  36.4477991
 131.2666444  97.1823751  38.1998563 132.0859333  97.6767829  38.2233400
 131.5403251  96.2655719  38.1716130 141.0233040  89.5734503  27.5626518
 140.1358895  89.8584153  27.3446713 141.4387029  89.4128266  26.7153795
 129.0317290 104.1542254  32.6497963 128.8971758 103.3942655  32.0835961
 128.6149352 104.8783154  32.1826752 140.9974063  95.0889039  27.7776809
 140.9409265  95.5457590  26.9384441 141.5502406  94.3279723  27.5999651
 132.1886416 105.0511571  32.8616406 132.0718800 105.9957004  32.7595096
 131.3678862 104.7485133  33.2502205 126.5201358  91.5161884  38.8990760
 127.1660221  91.0060838  39.3877985 126.3118509  92.2530566  39.4734185
 139.0454750  98.5842732  44.3982901 139.9145910  98.7583384  44.0369535
 138.5661501  99.4037149  44.2758630 135.0404968  85.7801929  24.6514656
 135.0283638  86.7243769  24.8082927 135.9328390  85.5972074  24.3574117
 133.2140930 105.7039833  36.0772334 134.1168177 105.7363443  36.3938829
 132.9878300 104.7740284  36.0918670 134.9694532 104.4570819  32.7382413
 134.0190163 104.4572681  32.6246785 135.2727018 103.7103554  32.2218447
 138.8557088  82.3744706  28.9060593 138.0889484  81.8203192  29.0517275
 139.2667793  82.4466574  29.7674745 130.8598849  88.6629501  42.9965774
 131.7230310  88.3066306  43.2069099 130.2864259  88.3243396  43.6841178
 137.7182282 107.6891739  34.9851410 137.9690321 108.5738749  35.2508986
 138.2541831 107.5096340  34.2126502 141.4789649 108.6724465  39.8594232
 141.3643164 107.7709722  40.1601331 140.6234166 108.9188161  39.5079049
 142.2574195 106.6430050  36.7897638 142.9297249 106.4347412  36.1410287
 141.4303982 106.4452136  36.3502870 139.7352048 105.7513838  35.9432389
 139.6510237 105.1439507  35.2082799 138.9134755 106.2422856  35.9441885
 134.5085302 108.9424235  33.7864832 134.5469402 108.4087825  34.5801950
 134.0025595 108.4159440  33.1675809 141.8876065 103.7888775  37.2827374
 141.9517391 104.6503606  36.8704772 141.8243185 103.1762777  36.5499733
 141.3628337 105.8611908  40.9300409 141.9900376 105.4788985  41.5437933
 140.5056256 105.6426110  41.2956101 138.3267698 110.3386232  36.0043597
 137.7821166 111.1146040  36.1363872 139.2047048 110.6857037  35.8462719
 139.1133720 109.4656129  38.8973754 138.3715456 109.6138764  39.4838384
 138.7926464 109.7264394  38.0340503 142.1060198 112.5115668  38.1998563
 142.9253087 113.0059747  38.2233400 142.3797006 111.5947636  38.1716130
 137.3595112 106.8453802  38.8990760 138.0053976 106.3352756  39.3877985
 137.1512263 107.5822484  39.4734185 141.6992603 103.9921419  42.9965774
 142.5624065 103.6358224  43.2069099 141.1258014 103.6535314  43.6841178
  79.6801450  -0.7858634  25.3700396  79.3891316   0.1186997  25.2547062
  80.3158435  -0.7442106  26.0844466  83.5218961   1.6452821  28.1827039
  83.0782815   0.8589200  27.8647944  84.1836174   1.8331972  27.5170930
  78.2806082   3.1748623  22.7087718  78.8313507   3.0465686  21.9364712
  77.4417558   3.4743512  22.3582611  85.6200199   1.9255621  26.2108441
  85.6018674   2.7464502  25.7188710  86.5420119   1.8009696  26.4358582
  84.3413276   1.9723110  22.0318493  84.3950299   2.5414047  22.7996209
  83.4728058   2.1424995  21.6672530  77.2598945   8.4132496  19.4769359
  77.4995543   9.0451020  20.1548378  76.4168142   8.0620536  19.7634719
  81.7726807   4.2211618  21.8810863  81.6996978   5.0266590  22.3930168
  81.3304200   4.4203584  21.0558885  84.2325490   4.1198452  24.0369022
  84.9453463   4.7545917  23.9644924  83.7415519   4.2162318  23.2209024
  79.2837404   1.8692896  24.8574593  79.9846863   2.5029379  25.0103987
  78.8132519   2.2107627  24.0970232  81.8749046   6.4724242  23.4050796
  82.4267354   6.6355863  24.1699882  82.2155239   7.0628680  22.7330821
  85.0117433   4.4206217  20.3914479  84.8868573   3.6195957  19.8825424
  85.6696524   4.9152411  19.9028448  87.6832897   2.8396512  19.3063254
  88.6079444   2.6339374  19.1687705  87.5148200   2.5912913  20.2152595
  82.0214857   4.0382723  25.4199451  82.3301984   3.7931870  26.2922150
  82.8190339   4.2429362  24.9318321  79.0172159   6.0642367  22.8017641
  79.9199406   6.0965977  23.1184136  78.7909529   5.1342818  22.8163977
  96.5078455  10.6533892  20.5273482  97.1456864  10.5340639  19.8236822
  96.3899297  11.6014736  20.5861434  93.3168161  10.6061320  20.4635007
  92.9786672  10.4902385  19.5755541  94.1857929  10.2052485  20.4436013
  89.1754976  12.4596797  16.4531898  88.6119842  12.3686734  15.6848185
  89.0607372  11.6396701  16.9334390  93.7987944  11.7596172  26.4221212
  93.7876585  11.3648970  25.5501716  93.9608583  11.0262245  27.0154984
  86.7219408  13.9547988  19.2916118  87.5140700  13.6138813  18.8762417
  86.9616059  14.0642963  20.2118271  94.7554535  16.1267764  11.7646362
  94.1042515  16.7121845  11.3780376  95.5498898  16.6573959  11.8241400
  88.6810162  13.2156901  12.1633497  89.4541038  12.6685889  12.0246373
  89.0335561  14.0801151  12.3747958  90.5195205  14.5433284  25.3700396
  90.2285071  15.4478915  25.2547062  91.1552189  14.5849811  26.0844466
  91.4451412  11.9210132  21.9601756  92.0414984  11.6966155  21.2458719
  91.5026383  11.1794878  22.5627204  96.0619723   8.3785346  17.6026690
  96.8482812   7.9604769  17.2517107  96.3258427   9.2831438  17.7708338
  96.2329800  13.8158196  12.3015347  95.5975633  13.8892823  13.0136251
  95.9027207  14.4051795  11.6234426 101.4628150   8.3160579  18.5059668
 102.1953322   7.7459796  18.7397498 100.7067506   7.9282180  18.9466174
  93.0804270  10.7387821  15.7023011  92.7162477  10.2118442  16.4135932
  93.9371386  10.3486290  15.5289496  95.4785090  14.2294699  22.3650190
  95.1785813  15.1319738  22.2565997  95.1336150  13.9626882  23.2171343
  88.9297571  10.6808496  18.3986894  88.0048068  10.5484710  18.6064586
  89.1781985  11.4602715  18.8956837  98.8782234   6.7477239  20.0447627
  97.9699111   6.6792648  19.7506388  98.8269830   7.2249184  20.8729453
  86.2906383  10.3241770  19.2330683  86.4198764  10.5776249  20.1470095
  85.6103834  10.9169478  18.9135338  90.4605870  20.9939020  15.3321157
  90.3829899  21.9446845  15.4109638  89.8567513  20.6484892  15.9896084
  92.9523100   8.1666885  27.9882524  92.1756434   8.7260805  27.9785389
  93.5913663   8.6523668  28.5097394  91.2069472  10.9752338  27.5500491
  91.9484156  11.5137382  27.2735315  90.5006457  11.6018627  27.7072043
  96.6824812  13.1181479  26.1472653  97.0908168  12.6763889  25.4027285
  95.9602073  12.5434106  26.4006846  93.0355882   8.0554086  23.5206210
  93.8817077   8.4793499  23.6640859  92.9754519   7.3987710  24.2144773
  97.0053626  13.6782669  19.9024942  96.3762489  13.8428384  19.2001010
  96.6179288  14.0924279  20.6735906 100.8842858  14.6137107  17.2569305
 100.1993896  14.9936009  16.7066339 100.9686707  15.2232434  17.9901253
  96.1855327   5.7158454  25.1787383  95.9416259   6.4700514  24.6421659
  96.4615257   6.0943802  26.0134630  98.1393790  12.2597066  23.8564649
  98.3510685  12.9028826  23.1799030  98.0923538  11.4259383  23.3886579
  95.7420019   4.8714887  20.7601221  94.8804498   5.1696141  21.0517959
  95.7682453   5.0885286  19.8282254  92.5581588  13.4157078  17.1675027
  93.0219934  13.6944781  16.3779649  92.2938386  12.5140522  16.9848118
  89.4505669  12.9628559  20.1054790  90.0207026  13.3915827  19.4672275
  90.0413781  12.6811144  20.8038976  91.4950474   9.5380230  13.9764592
  92.1974517   9.9901274  14.4438518  91.1631103   8.8964049  14.6044485
  89.9430836   8.1291987  28.3515801  89.3129496   8.8108267  28.5851198
  89.8366924   8.0175068  27.4068940  85.2375808   7.7963783  19.2781726
  84.4474862   8.0521311  18.8021836  85.7287055   8.6112120  19.3833766
  99.2539618  15.1369022  22.0287006 100.0757061  14.7349209  21.7469688
  99.2502020  15.0337256  22.9803122  87.1890553   8.1608362  16.2365202
  86.3921717   8.2727056  16.7548698  86.9616146   8.4995014  15.3706093
  93.0196221  14.6853065  24.1847717  93.0840654  15.1473472  25.0205889
  92.3107145  14.0550430  24.3130027  83.5213511   8.0494273  21.7096716
  83.7721549   8.9341283  21.9754292  84.0573059   7.8698875  20.9371808
  92.7344239  16.3521173  14.0526697  92.5989913  17.1972708  14.4811545
  93.2754051  16.5540450  13.2892631  86.1873636  13.8696611  14.6254622
  86.6998157  14.6639861  14.7760187  86.8396349  13.1722901  14.5588224
  87.9968521  16.9862367  16.7077375  88.1735149  17.9080332  16.5198359
  88.7925354  16.6720786  17.1371755  87.2820877   9.0326999  26.5839539
  87.1674392   8.1312256  26.8846638  86.4265395   9.2790695  26.2324355
  94.3612715  16.9744739  28.1827039  93.9176569  16.1881118  27.8647944
  95.0229929  17.1623890  27.5170930  89.1199836  18.5040541  22.7087718
  89.6707261  18.3757604  21.9364712  88.2811312  18.8035430  22.3582611
  96.4593953  17.2547539  26.2108441  96.4412429  18.0756420  25.7188710
  97.3813873  17.1301614  26.4358582  92.9167007  14.7691668  27.0531949
  93.4495344  14.0079957  26.8231257  92.3881088  14.4765320  27.7956103
  84.1522553  12.1985265  15.4014193  84.9897775  12.6082273  15.1847901
  84.3300821  11.2584707  15.3714387  96.0486985   9.8660346  11.0898026
  95.5333608  10.6364950  11.3286413  95.7764293   9.1925482  11.7131087
  93.6334096   4.7110046  16.1483264  92.7775692   4.3216897  15.9688903
  94.0461048   4.7902007  15.2883050  95.8373288   7.7387438  12.9157807
  95.5323424   8.0533587  13.7667950  96.7903730   7.8168857  12.9585140
  94.2819720  13.8977661  14.5650761  93.7541082  13.1630420  14.2523998
  93.7807223  14.6752337  14.3190729  99.2612566  12.0926681  19.6817807
  98.6036240  12.7825943  19.7697936 100.0652965  12.4823113  20.0251794
  98.0718025  10.4471054  17.7321749  98.5849907  11.0801046  18.2343459
  98.7219249   9.8472250  17.3665109  95.3340399  20.4255378  10.4882420
  94.6602098  20.7287075  11.0967378  95.7206221  21.2284459  10.1387877
  94.5498856   7.9220510  19.9780089  93.6321417   8.1435457  19.8201778
  94.9658999   7.9966820  19.1191797  95.3333903   9.3211925  15.1082770
  96.0805722   9.8333323  14.7989892  95.6025493   8.9995978  15.9687163
  93.6060554  11.8170466  12.0909724  92.6971773  11.5329499  12.1882194
  93.6355637  12.2369545  11.2313031  98.8379821  15.4277056  15.8600892
  98.3842148  14.5867965  15.9166082  98.2073788  16.0638454  16.1975672
  97.7812741   6.3569042  17.0901559  97.0435497   5.8446428  17.4211802
  98.0339514   5.9169423  16.2784836  97.2812760  17.2653552  16.7950710
  97.5735735  17.8258609  16.0763075  97.7911381  17.5582113  17.5503869
  92.1545448   9.4299087  18.1919519  92.2094057   8.4772923  18.1161996
  91.3436650   9.5858526  18.6760818  90.0937808   8.0476146  15.9509898
  89.2805673   8.3470317  16.3575090  90.5896802   7.6531835  16.6684381
  92.2446385  18.0433903  17.8844163  92.2022564  18.2694750  16.9552695
  93.1609084  17.8097278  18.0329964  95.6912019   8.5117971  24.7824792
  96.0461407   8.7389444  25.6419258  96.3384151   8.8436348  24.1602047
 101.4209756  11.6336407  15.4874121 101.2827655  11.8238003  14.5595310
 101.0645975  12.3955790  15.9442172  89.5851882   5.6194502  21.5671133
  90.2251262   5.4783261  20.8694097  88.7529413   5.3329015  21.1909735
 101.4479136  13.7012934  20.4985393 101.8815642  13.6088223  21.3468447
 102.1610717  13.6770434  19.8605409  90.3612186  14.9196932  17.6806126
  91.1552785  14.4247252  17.4788701  89.6503879  14.3914795  17.3173831
  95.1807031  17.3015028  22.0318493  95.2344053  17.8705964  22.7996209
  94.3121812  17.4716913  21.6672530  88.0605424   7.0032584  23.5142945
  88.7328478   6.7949946  22.8655593  87.2335211   6.8054670  23.0748177
 102.3094685  13.7436634  23.0318278 102.5030575  14.6482445  23.2777553
 102.2095304  13.2844053  23.8656863  97.3709794  13.8943377  28.6059159
  97.2195300  13.6653929  27.6889242  97.3614474  14.8513979  28.6190504
  94.1395130  11.4675290  23.5905425  95.0687190  11.6186450  23.4174392
  93.7186160  11.5559311  22.7354072  92.9383462  15.4925954  21.3603963
  92.7994548  15.1244739  22.2329901  92.1498058  16.0073594  21.1887921
  93.5331614  20.5935051  12.7029499  93.7083370  20.1223094  13.5175122
  92.8464402  21.2200817  12.9310760  94.4888677  14.8707557  18.7492801
  94.1538510  14.8308327  19.6450450  93.9892623  14.2052273  18.2763211
  88.4632921  10.2775187  24.2745382  88.3252719   9.5455426  24.8756921
  89.3737845  10.1884087  23.9929569  91.0915222   9.9895146  23.7629061
  91.8014841   9.3488339  23.7215680  91.0484530  10.2408041  24.6855242
  99.0802001  16.9262500  26.6835641  99.0214547  16.2421720  26.0166224
  99.4821519  17.6681490  26.2316267  89.8044156   6.9760364  25.5824701
  89.2681513   6.5251103  26.2346297  89.2160864   7.1106273  24.8395165
  88.0992700  23.7424414  19.4769359  88.3389298  24.3742938  20.1548378
  87.2561896  23.3912454  19.7634719  99.0819408  14.8902084  24.9149620
  98.1946187  14.5528005  25.0376019  99.6517959  14.1585115  25.1518386
  80.7348555  11.2226175  18.2392672  81.4219595  10.9087905  17.6513687
  80.5796684  12.1267540  17.9659923  85.5383277   6.1116372  22.6677695
  85.4541466   5.5042042  21.9328105  84.7165984   6.6025390  22.6687192
  92.6120561  19.5503536  21.8810863  92.5390733  20.3558508  22.3930168
  92.1697954  19.7495502  21.0558885  92.4010341  18.7875306  15.3913685
  91.6177863  19.3296986  15.4851910  93.1003086  19.3049286  15.7907926
 103.5636749  10.3010301  19.6766182 103.5526625  11.1835016  19.3060115
 102.6954128   9.9481852  19.4820719  95.0719245  19.4490370  24.0369022
  95.7847217  20.0837835  23.9644924  94.5809274  19.5454236  23.2209024
  96.7936772  13.3541623  15.6086314  95.8593051  13.4743085  15.4391018
  96.9713440  12.4514089  15.3446324  92.2941960   6.7387318  17.7619575
  91.9239747   6.1858359  18.4500481  92.7901052   6.1345452  17.2094575
 100.1809323   9.1958942  16.1436348 100.6469775  10.0286934  16.0696651
 100.6316824   8.7303924  16.8481606  90.1231158  17.1984814  24.8574593
  90.8240618  17.8321296  25.0103987  89.6526273  17.5399545  24.0970232
  98.2485554  15.5402763  13.1422500  98.5245398  15.4259358  14.0516374
  97.3790053  15.1420248  13.1034673  97.9232444   9.7529421  22.6827143
  97.2703895  10.0005328  22.0279596  98.3012824   8.9393559  22.3489621
  94.8839618  19.7889114  16.7855314  95.0662013  18.9710770  17.2483066
  95.7072604  20.0056806  16.3480204  95.2181784  18.7157299  14.0470362
  95.7469550  18.2049754  13.4340524  95.4810003  18.3999829  14.9115895
  93.9720017  10.4949232  29.1693180  93.2960654  10.3943361  29.8395556
  94.7947651  10.3388446  29.6329178  85.7198876  16.7321169  21.7905696
  86.3052313  15.9864856  21.9233600  85.5223715  17.0425125  22.6742360
  88.5737532  19.7672416  16.8068138  87.9047907  20.2518544  16.3232178
  88.4350401  20.0141636  17.7211517  80.3116531   9.3026769  20.5110139
  80.3500631   8.7690359  21.3047257  79.8056824   8.7761974  19.8921116
  92.7142800  21.8016159  23.4050796  93.2661108  21.9647781  24.1699882
  93.0548994  22.3920597  22.7330821  87.6907294   4.1491309  24.0072681
  87.7548620   5.0106140  23.5950079  87.6274414   3.5365311  23.2745040
  87.1659566   6.2214442  27.6545715  87.7931605   5.8391519  28.2683240
  86.3087485   6.0028644  28.0201408  97.5653675  16.6277417  29.2599451
  98.1093579  17.2407375  28.7654406  96.9840519  17.1856995  29.7766464
  95.8511188  19.7498135  20.3914479  95.7262327  18.9487875  19.8825424
  96.5090279  20.2444328  19.9028448  87.4719356   6.1046867  19.5691619
  86.7505942   6.7182835  19.4299092  88.2612612   6.6404632  19.4908265
  97.9146096  17.5507155  22.0194029  96.9676431  17.4312506  21.9472355
  98.2628869  16.6629653  22.1020290  90.2745669   3.4401294  25.8432271
  90.7980071   3.6863591  26.6058580  90.0558003   4.2721329  25.4235408
  94.9192529  17.3459871  18.2198381  94.7717492  16.4176579  18.4005951
  95.7446023  17.3679962  17.7355456  98.5226651  18.1688430  19.3063254
  99.4473199  17.9631291  19.1687705  98.3541954  17.9204831  20.2152595
  91.4798214   4.3814989  23.5281941  91.1395035   3.5822802  23.9302621
  90.7737221   4.6816700  22.9558774  89.6553265   8.1583422  19.7901243
  89.5097846   8.4723725  20.6825524  89.1778469   8.7768322  19.2372141
  91.5149648   5.1485970  19.8382132  91.5011217   4.2527063  19.5014430
  92.2322076   5.1556634  20.4720418  93.3675779   5.5823310  21.8835260
  93.1093556   6.5040381  21.8819590  92.8360819   5.1853745  22.5735724
  98.3121967  18.6874097  14.6625345  98.4858845  18.1220520  13.9099197
  98.8050859  19.4874992  14.4804835  84.1298927  10.6988767  22.7288904
  83.5852395  11.4748575  22.8609178  85.0078277  11.0459571  22.5708025
  99.2997140  18.0040862  11.7622243  99.9948044  18.6247555  11.9809558
  99.6420290  17.1536213  12.0374621  84.9164949   9.8258663  25.6219061
  84.1746685   9.9741298  26.2083691  84.5957693  10.0866928  24.7585810
 101.1988563  15.4540567  13.2909574 101.7239887  15.7927840  12.5658894
 101.1110915  14.5187583  13.1072709  92.8608612  19.3674641  25.4199451
  93.1695738  19.1223788  26.2922150  93.6584094  19.5721280  24.9318321
  92.8829224  21.5212551  17.6504827  92.4434214  21.0288929  18.3437684
  93.6337341  20.9785518  17.4096903  85.3621563  17.7124092  17.6529455
  86.1879583  17.4127863  17.2728099  85.0115615  16.9431714  18.1019244
  90.3303096  17.0650560  19.7227129  89.7083105  16.4021265  19.4229357
  91.0007963  17.0911692  19.0400777  83.5630168  15.6310418  18.6118389
  82.7262076  15.2032592  18.4302390  83.5353813  15.8242861  19.5489180
  90.4027623   5.5432348  29.3159635  90.4515779   6.4194471  28.9337405
  90.9450138   5.0009741  28.7431278 100.8882469  16.0873471  28.5960772
 100.0978013  16.0697610  28.0565271 100.6515824  16.6261765  29.3509809
 101.0080344  12.9365937  25.9093501 101.0578349  12.7715945  26.8509023
 100.8994267  12.0693196  25.5191381  89.8916603  15.6154483  13.1985589
  90.0404723  16.2989947  12.5452262  90.6983046  15.5959573  13.7135045
  98.2984106   8.9196865  27.2252807  99.1993969   8.7803330  26.9336805
  98.3732081   9.0851320  28.1650985  92.6326912   6.2963720  26.0705994
  91.7630221   6.5897286  25.7988582  92.8686392   6.8804165  26.7913257
 102.5098541  15.3562879  26.1535522 102.2183349  15.7192859  26.9898983
 101.8970672  14.6429887  25.9748854 103.7094223  12.9215759  18.6738092
 104.5441115  13.3605563  18.8375653 103.8453352  12.4454412  17.8546338
 100.7585729  10.4795494  24.6215580 101.2339851  10.6723140  23.8134431
  99.8351294  10.5354679  24.3758964  87.6469236  11.6419661  14.2046658
  87.4015278  10.7381991  14.4026869  87.8165150  11.6436811  13.2626136
  93.3912008  18.1102614  10.6697337  92.8185975  18.7292801  10.2167809
  93.9644802  18.6601975  11.2037259  99.4587398   7.3561254  22.8543886
 100.4104821   7.4559351  22.8756110  99.2890849   6.5639522  23.3641970
  96.6109268  18.3939764  11.8005919  97.5439941  18.3285325  12.0038795
  96.5232481  19.2296031  11.3420452 101.9375476  10.5767373  21.9686185
 101.9051796   9.6383374  22.1545869 102.5476100  10.6551410  21.2352010
 107.7552026  11.6383380  21.1092222 108.4855414  11.3768668  21.6699925
 107.1458971  10.9012102  21.1494290 105.8367323   9.7791243  21.7066673
 105.1100486   9.6447208  21.0983165 105.4214610  10.0868071  22.5123391
  93.6597499  13.4981172  29.4714046  94.5800509  13.6759771  29.6654093
  93.6247082  12.5537218  29.3193746  82.8779664   8.6919766  18.3967321
  82.5582449   7.8385074  18.1041695  82.3313092   8.9068344  19.1525288
  86.6559572  11.4082207  22.1136828  86.8745582  12.3399315  22.1324861
  87.0685346  11.0490181  22.8991631  91.5287437   6.9815413  31.5039576
  91.4284164   7.9309770  31.4351668  91.3108979   6.6533652  30.6315647
  82.7467924  12.3122678  20.3660443  82.0531396  11.8976630  19.8530397
  83.4940915  12.3543214  19.7693862  91.3918707  10.4112552  30.3204638
  90.9085789  11.2112912  30.5268527  91.4779646  10.4220497  29.3672082
  84.6604667  12.2440931  18.2426457  84.6375355  12.3428619  17.2908341
  84.9705303  13.0906082  18.5643624  87.3192045  14.3017086  22.3573072
  88.2735298  14.2701029  22.2903003  87.1204568  13.8407710  23.1723298
  87.9091427  12.8718202  24.9243870  88.7284316  13.3662281  24.9478707
  88.1828235  11.9550171  24.8961437  85.6742273  19.8436706  19.3743270
  85.5396741  19.0837107  18.8081268  85.2574336  20.5677606  18.9072059
  97.6399047  10.7783491  14.5022115  97.5834248  11.2352042  13.6629748
  98.1927389  10.0174175  14.3244958  88.8311399  20.7406023  19.5861712
  88.7143784  21.6851455  19.4840403  88.0103846  20.4379584  19.9747512
  83.1626341   7.2056336  25.6236067  83.8085205   6.6955290  26.1123292
  82.9543492   7.9425018  26.1979492  95.6879733  14.2737184  31.1228207
  96.5570893  14.4477836  30.7614842  95.2086485  15.0931601  31.0003937
  89.8565913  21.3934285  22.8017641  90.7593160  21.4257895  23.1184136
  89.6303284  20.4634736  22.8163977  91.6119516  20.1465271  19.4627719
  90.6615147  20.1467133  19.3492092  91.9152002  19.3998006  18.9463754
  87.5023832   4.3523953  29.7211081  88.3655294   3.9960758  29.9314405
  86.9289243   4.0137848  30.4086485 107.3472209  25.9825810  20.5273482
 107.9850619  25.8632557  19.8236822 107.2293052  26.9306654  20.5861434
 104.1561915  25.9353238  20.4635007 103.8180427  25.8194303  19.5755541
 105.0251683  25.5344403  20.4436013 100.0148731  27.7888714  16.4531898
  99.4513596  27.6978651  15.6848185  99.9001126  26.9688619  16.9334390
 104.6381698  27.0888090  26.4221212 104.6270339  26.6940888  25.5501716
 104.8002338  26.3554162  27.0154984  97.5613163  29.2839906  19.2916118
  98.3534455  28.9430730  18.8762417  97.8009813  29.3934881  20.2118271
 105.5948290  31.4559682  11.7646362 104.9436269  32.0413762  11.3780376
 106.3892652  31.9865877  11.8241400  99.5203917  28.5448819  12.1633497
 100.2934793  27.9977806  12.0246373  99.8729316  29.4093068  12.3747958
 101.3588959  29.8725201  25.3700396 101.0678825  30.7770832  25.2547062
 101.9945944  29.9141729  26.0844466 102.2845166  27.2502050  21.9601756
 102.8808739  27.0258072  21.2458719 102.3420138  26.5086795  22.5627204
 101.8570195  24.7041485   9.7951947 102.1095715  24.1823006   9.0335410
 100.9194754  24.5407631   9.8978630 106.9013477  23.7077264  17.6026690
 107.6876567  23.2896687  17.2517107 107.1652182  24.6123356  17.7708338
 107.0723555  29.1450114  12.3015347 106.4369388  29.2184740  13.0136251
 106.7420961  29.7343713  11.6234426 112.3021905  23.6452497  18.5059668
 113.0347077  23.0751714  18.7397498 111.5461260  23.2574097  18.9466174
 101.5766483  26.6069591  11.9976322 101.4602741  25.9314495  12.6657406
 101.6868743  26.1201965  11.1808475 103.9198024  26.0679738  15.7023011
 103.5556232  25.5410359  16.4135932 104.7765140  25.6778207  15.5289496
 109.8247325  17.3574071  22.9654277 109.4930650  18.2269482  22.7415492
 109.2292938  17.0410355  23.6448307 106.3178844  29.5586617  22.3650190
 106.0179568  30.4611656  22.2565997 105.9729904  29.2918800  23.2171343
  99.7691326  26.0100414  18.3986894  98.8441822  25.8776628  18.6064586
 100.0175739  26.7894633  18.8956837 109.7175988  22.0769157  20.0447627
 108.8092866  22.0084566  19.7506388 109.6663584  22.5541102  20.8729453
 103.5392732  23.5527295  11.6831026 103.4192357  23.9984346  12.5216506
 102.8445321  23.9012613  11.1244564  97.1300137  25.6533687  19.2330683
  97.2592518  25.9068166  20.1470095  96.4497588  26.2461395  18.9135338
 101.2999624  36.3230937  15.3321157 101.2223654  37.2738762  15.4109638
 100.6961268  35.9776810  15.9896084 103.7916854  23.4958803  27.9882524
 103.0150188  24.0552723  27.9785389 104.4307417  23.9815586  28.5097394
 111.5837635  20.2785595  21.8225501 110.9412015  20.5718129  21.1765296
 111.0792563  20.1638516  22.6278698 102.0463226  26.3044256  27.5500491
 102.7877911  26.8429300  27.2735315 101.3400212  26.9310545  27.7072043
 107.5218566  28.4473396  26.1472653 107.9301922  28.0055807  25.4027285
 106.7995828  27.8726024  26.4006846 103.8749636  23.3846003  23.5206210
 104.7210831  23.8085417  23.6640859 103.8148274  22.7279628  24.2144773
 107.8447381  29.0074587  19.9024942 107.2156243  29.1720301  19.2001010
 107.4573043  29.4216197  20.6735906 111.7236613  29.9429025  17.2569305
 111.0387651  30.3227926  16.7066339 111.8080462  30.5524352  17.9901253
 107.0249081  21.0450372  25.1787383 106.7810013  21.7992432  24.6421659
 107.3009012  21.4235719  26.0134630 108.9787544  27.5888984  23.8564649
 109.1904439  28.2320744  23.1799030 108.9317292  26.7551301  23.3886579
 106.5813773  20.2006805  20.7601221 105.7198252  20.4988058  21.0517959
 106.6076208  20.4177204  19.8282254 103.3975343  28.7448995  17.1675027
 103.8613688  29.0236698  16.3779649 103.1332141  27.8432440  16.9848118
 100.2899424  28.2920477  20.1054790 100.8600781  28.7207745  19.4672275
 100.8807535  28.0103061  20.8038976 102.3344229  24.8672148  13.9764592
 103.0368272  25.3193191  14.4438518 102.0024857  24.2255966  14.6044485
 100.7824590  23.4583904  28.3515801 100.1523251  24.1400185  28.5851198
 100.6760678  23.3466986  27.4068940  96.0769563  23.1255700  19.2781726
  95.2868617  23.3813229  18.8021836  96.5680810  23.9404038  19.3833766
 110.0933372  30.4660939  22.0287006 110.9150816  30.0641127  21.7469688
 110.0895775  30.3629174  22.9803122  98.0284308  23.4900279  16.2365202
  97.2315471  23.6018974  16.7548698  97.8009900  23.8286932  15.3706093
 103.8589976  30.0144983  24.1847717 103.9234408  30.4765390  25.0205889
 103.1500899  29.3842348  24.3130027  94.3607266  23.3786191  21.7096716
  94.6115304  24.2633201  21.9754292  94.8966814  23.1990792  20.9371808
 103.5737993  31.6813090  14.0526697 103.4383668  32.5264626  14.4811545
 104.1147806  31.8832368  13.2892631 100.0605333  17.7604670  30.7141052
  99.6672278  17.2070869  31.3888697 100.8771473  18.0715249  31.1047570
  97.0267391  29.1988528  14.6254622  97.5391911  29.9931778  14.7760187
  97.6790103  28.5014819  14.5588224  98.8362275  32.3154285  16.7077375
  99.0128904  33.2372249  16.5198359  99.6319109  32.0012704  17.1371755
 102.9773294  19.1762549  28.3061309 103.7183007  19.7769702  28.2265771
 103.2091217  18.4340187  27.7479352  98.1214632  24.3618916  26.5839539
  98.0068147  23.4604174  26.8846638  97.2659150  24.6082613  26.2324355
 105.2006470  32.3036657  28.1827039 104.7570324  31.5173035  27.8647944
 105.8623683  32.4915807  27.5170930  99.9593591  33.8332458  22.7087718
 100.5101016  33.7049522  21.9364712  99.1205067  34.1327347  22.3582611
 107.2987708  32.5839457  26.2108441 107.2806183  33.4048338  25.7188710
 108.2207628  32.4593532  26.4358582 103.7560762  30.0983586  27.0531949
 104.2889099  29.3371874  26.8231257 103.2274843  29.8057238  27.7956103
 106.9230457  15.2043652  22.5825591 106.5794726  16.0945294  22.5064701
 107.2909419  15.0145310  21.7195176  94.9916307  27.5277183  15.4014193
  95.8291529  27.9374191  15.1847901  95.1694575  26.5876625  15.3714387
 106.8880739  25.1952263  11.0898026 106.3727363  25.9656868  11.3286413
 106.6158048  24.5217399  11.7131087 104.4727851  20.0401964  16.1483264
 103.6169447  19.6508814  15.9688903 104.8854802  20.1193925  15.2883050
 106.0026997  17.5748307  20.5474824 105.4991793  17.5378442  19.7342629
 106.2957604  18.4841050  20.6071481 102.2469883  17.6587037  19.5541006
 103.1122880  17.4629846  19.1946895 102.3147392  17.4297389  20.4810362
 106.6767043  23.0679355  12.9157807 106.3717178  23.3825504  13.7667950
 107.6297485  23.1460775  12.9585140 105.1213475  29.2269579  14.5650761
 104.5934836  28.4922338  14.2523998 104.6200977  30.0044255  14.3190729
 110.1006321  27.4218599  19.6817807 109.4429995  28.1117860  19.7697936
 110.9046720  27.8115031  20.0251794  99.8532202  19.8889245  16.9257372
 100.4275954  19.6664426  16.1930565 100.4403185  19.9577939  17.6785974
 108.9111779  25.7762972  17.7321749 109.4243661  26.4092964  18.2343459
 109.5613003  25.1764167  17.3665109 100.1801789  21.9193706  10.9453258
  99.3439101  22.2568392  11.2662532 100.0406559  21.7842686  10.0080395
 102.1554870  16.7630494  15.6532442 101.5019282  16.4479511  15.0289057
 102.1135344  16.1406234  16.3792265 106.1734154  35.7547296  10.4882420
 105.4995852  36.0578993  11.0967378 106.5599976  36.5576376  10.1387877
 105.3892610  23.2512427  19.9780089 104.4715172  23.4727374  19.8201778
 105.8052754  23.3258738  19.1191797 106.1727658  24.6503843  15.1082770
 106.9199477  25.1625240  14.7989892 106.4419248  24.3287896  15.9687163
 104.4454308  27.1462384  12.0909724 103.5365527  26.8621417  12.1882194
 104.4749392  27.5661462  11.2313031 109.6773576  30.7568973  15.8600892
 109.2235903  29.9159883  15.9166082 109.0467542  31.3930372  16.1975672
 108.6206495  21.6860959  17.0901559 107.8829252  21.1738345  17.4211802
 108.8733269  21.2461341  16.2784836 108.1206515  32.5945470  16.7950710
 108.4129489  33.1550527  16.0763075 108.6305135  32.8874031  17.5503869
  95.0142479  24.8667898  16.0724926  94.8166878  24.2737259  15.3475993
  94.4589143  24.5620108  16.7900865 102.9939202  24.7591004  18.1919519
 103.0487812  23.8064841  18.1161996 102.1830404  24.9150443  18.6760818
 104.1430396  28.6871127   9.4297803 103.7049826  27.9706986   8.9703440
 104.8840837  28.9147242   8.8682894 100.9331562  23.3768064  15.9509898
 100.1199428  23.6762235  16.3575090 101.4290556  22.9823753  16.6684381
 103.0840140  33.3725821  17.8844163 103.0416319  33.5986667  16.9552695
 104.0002839  33.1389196  18.0329964 106.5305774  23.8409889  24.7824792
 106.8855161  24.0681362  25.6419258 107.1777905  24.1728265  24.1602047
 112.2603511  26.9628324  15.4874121 112.1221409  27.1529920  14.5595310
 111.9039730  27.7247707  15.9442172 100.4245637  20.9486420  21.5671133
 101.0645016  20.8075179  20.8694097  99.5923167  20.6620933  21.1909735
 112.2872890  29.0304851  20.4985393 112.7209397  28.9380141  21.3468447
 113.0004471  29.0062352  19.8605409 101.2005941  30.2488850  17.6806126
 101.9946539  29.7539170  17.4788701 100.4897633  29.7206713  17.3173831
 106.0200785  32.6306946  22.0318493 106.0737808  33.1997882  22.7996209
 105.1515567  32.8008831  21.6672530  97.5088704  24.3931932  13.7565878
  96.5786292  24.3316387  13.9735840  97.6046176  23.8707885  12.9602520
  97.4274253  20.9186745  16.3444120  97.6881071  21.8332078  16.2353280
  98.2491426  20.4511187  16.4940733  98.8999179  22.3324502  23.5142945
  99.5722232  22.1241864  22.8655593  98.0728965  22.1346588  23.0748177
 113.1488440  29.0728552  23.0318278 113.3424330  29.9774363  23.2777553
 113.0489058  28.6135971  23.8656863 104.8024751  18.9586443  25.5308605
 104.1552666  19.6576392  25.4373082 105.5725766  19.3922587  25.8984854
 108.2103549  29.2235295  28.6059159 108.0589055  28.9945847  27.6889242
 108.2008228  30.1805896  28.6190504 104.9788885  26.7967208  23.5905425
 105.9080945  26.9478367  23.4174392 104.5579915  26.8851228  22.7354072
 103.7777217  30.8217872  21.3603963 103.6388302  30.4536656  22.2329901
 102.9891813  31.3365511  21.1887921 104.3725369  35.9226968  12.7029499
 104.5477124  35.4515012  13.5175122 103.6858157  36.5492735  12.9310760
 105.3282432  30.1999475  18.7492801 104.9932265  30.1600245  19.6450450
 104.8286378  29.5344191  18.2763211  99.3026676  25.6067105  24.2745382
  99.1646474  24.8747344  24.8756921 100.2131599  25.5176005  23.9929569
 101.9308977  25.3187064  23.7629061 102.6408595  24.6780256  23.7215680
 101.8878285  25.5699959  24.6855242 109.9195755  32.2554417  26.6835641
 109.8608301  31.5713638  26.0166224 110.3215274  32.9973407  26.2316267
 100.6437911  22.3052282  25.5824701 100.1075268  21.8543020  26.2346297
 100.0554619  22.4398191  24.8395165  98.9386454  39.0716331  19.4769359
  99.1783052  39.7034855  20.1548378  98.0955650  38.7204371  19.7634719
 109.9213162  30.2194001  24.9149620 109.0339941  29.8819923  25.0376019
 110.4911714  29.4877033  25.1518386  91.5742310  26.5518093  18.2392672
  92.2613349  26.2379823  17.6513687  91.4190438  27.4559458  17.9659923
  96.3777032  21.4408290  22.6677695  96.2935220  20.8333959  21.9328105
  95.5559738  21.9317308  22.6687192 103.4514316  34.8795454  21.8810863
 103.3784487  35.6850425  22.3930168 103.0091709  35.0787419  21.0558885
 103.2404095  34.1167224  15.3913685 102.4571617  34.6588904  15.4851910
 103.9396841  34.6341203  15.7907926 106.5500746  19.9261853  18.0347890
 107.0469445  19.1731815  17.7148961 105.7787727  19.9626170  17.4691100
 114.4030503  25.6302219  19.6766182 114.3920379  26.5126934  19.3060115
 113.5347882  25.2773770  19.4820719 105.9112999  34.7782288  24.0369022
 106.6240972  35.4129753  23.9644924 105.4203028  34.8746154  23.2209024
 107.6330526  28.6833540  15.6086314 106.6986805  28.8035003  15.4391018
 107.8107195  27.7806007  15.3446324 103.1335714  22.0679236  17.7619575
 102.7633502  21.5150277  18.4500481 103.6294807  21.4637370  17.2094575
 111.0203078  24.5250860  16.1436348 111.4863530  25.3578851  16.0696651
 111.4710578  24.0595841  16.8481606 100.9624913  32.5276731  24.8574593
 101.6634372  33.1613214  25.0103987 100.4920028  32.8691463  24.0970232
 109.0879309  30.8694681  13.1422500 109.3639153  30.7551276  14.0516374
 108.2183807  30.4712166  13.1034673 108.9919740  16.8931447  20.1827249
 108.0782820  17.1235674  20.3509456 109.4212842  16.9769891  21.0341282
 108.7626199  25.0821339  22.6827143 108.1097649  25.3297246  22.0279596
 109.1406579  24.2685477  22.3489621 105.7233373  35.1181032  16.7855314
 105.9055767  34.3002688  17.2483066 106.5466359  35.3348724  16.3480204
 106.0575538  34.0449217  14.0470362 106.5863305  33.5341672  13.4340524
 106.3203758  33.7291747  14.9115895 104.8113772  25.8241150  29.1693180
 104.1354409  25.7235279  29.8395556 105.6341406  25.6680363  29.6329178
  96.5592631  32.0613086  21.7905696  97.1446068  31.3156774  21.9233600
  96.3617469  32.3717043  22.6742360  99.4131286  35.0964334  16.8068138
  98.7441661  35.5810461  16.3232178  99.2744156  35.3433554  17.7211517
  91.1510286  24.6318686  20.5110139  91.1894385  24.0982277  21.3047257
  90.6450579  24.1053892  19.8921116 103.5536555  37.1308077  23.4050796
 104.1054863  37.2939699  24.1699882 103.8942748  37.7212515  22.7330821
  98.5301048  19.4783227  24.0072681  98.5942375  20.3398058  23.5950079
  98.4668168  18.8657229  23.2745040  98.0053321  21.5506359  27.6545715
  98.6325359  21.1683437  28.2683240  97.1481239  21.3320561  28.0201408
 108.4047429  31.9569335  29.2599451 108.9487333  32.5699293  28.7654406
 107.8234274  32.5148913  29.7766464  94.7818863  23.3582789  13.5864070
  95.0772304  22.4493467  13.5331124  93.8806899  23.3370528  13.2645072
 106.6904942  35.0790053  20.3914479 106.5656082  34.2779793  19.8825424
 107.3484033  35.5736246  19.9028448  98.3113110  21.4338785  19.5691619
  97.5899696  22.0474753  19.4299092  99.1006366  21.9696550  19.4908265
 108.7539850  32.8799073  22.0194029 107.8070186  32.7604424  21.9472355
 109.1022624  31.9921571  22.1020290 101.1139424  18.7693212  25.8432271
 101.6373826  19.0155508  26.6058580 100.8951757  19.6013246  25.4235408
  96.5106705  21.0396886  13.7103395  96.1819411  20.1594265  13.5278501
  96.8646076  20.9844555  14.5979785 105.7586284  32.6751789  18.2198381
 105.6111246  31.7468496  18.4005951 106.5839777  32.6971880  17.7355456
  99.6248528  21.3269856  14.0778873  99.9644601  21.8555777  13.3557481
 100.0720649  21.6650262  14.8537440 109.3620406  33.4980348  19.3063254
 110.2866953  33.2923209  19.1687705 109.1935709  33.2496749  20.2152595
 102.3191969  19.7106907  23.5281941 101.9788789  18.9114720  23.9302621
 101.6130975  20.0108618  22.9558774 102.9708441  16.7956219  21.9809264
 103.7934510  16.3216697  21.8588154 103.2146504  17.5746703  22.4807950
 101.6116675  19.8244478  12.2772166 102.3325038  20.2025730  11.7735883
 100.9881979  20.5433354  12.3807144 100.4947019  23.4875340  19.7901243
 100.3491600  23.8015643  20.6825524 100.0172223  24.1060240  19.2372141
 102.3543402  20.4777888  19.8382132 102.3404971  19.5818981  19.5014430
 103.0715830  20.4848552  20.4720418 104.2069533  20.9115228  21.8835260
 103.9487311  21.8332299  21.8819590 103.6754573  20.5145663  22.5735724
 109.1515722  34.0166015  14.6625345 109.3252599  33.4512438  13.9099197
 109.6444613  34.8166910  14.4804835  94.9692682  26.0280684  22.7288904
  94.4246150  26.8040492  22.8609178  95.8472031  26.3751489  22.5708025
 101.7580298  19.3592268  15.1069702 101.8796209  18.4308914  15.3060590
 101.4682341  19.3730954  14.1948018 104.6271489  17.0447179  18.2436422
 104.6493185  17.1086512  17.2888402 105.0439548  16.2051687  18.4376928
 110.1390894  33.3332780  11.7622243 110.8341799  33.9539472  11.9809558
 110.4814044  32.4828131  12.0374621  95.7558703  25.1550580  25.6219061
  95.0140440  25.3033216  26.2083691  95.4351448  25.4158846  24.7585810
 112.0382317  30.7832485  13.2909574 112.5633642  31.1219758  12.5658894
 111.9504670  29.8479500  13.1072709 103.7002366  34.6966559  25.4199451
 104.0089493  34.4515705  26.2922150 104.4977848  34.9013197  24.9318321
 103.7222978  36.8504468  17.6504827 103.2827968  36.3580847  18.3437684
 104.4731095  36.3077436  17.4096903  96.2015317  33.0416009  17.6529455
  97.0273337  32.7419781  17.2728099  95.8509369  32.2723632  18.1019244
 101.1696850  32.3942477  19.7227129 100.5476860  31.7313182  19.4229357
 101.8401717  32.4203609  19.0400777  94.4023922  30.9602336  18.6118389
  93.5655831  30.5324510  18.4302390  94.3747568  31.1534779  19.5489180
 101.2421378  20.8724265  29.3159635 101.2909533  21.7486388  28.9337405
 101.7843892  20.3301659  28.7431278 111.7276223  31.4165389  28.5960772
 110.9371767  31.3989528  28.0565271 111.4909578  31.9553682  29.3509809
 111.8474099  28.2657855  25.9093501 111.8972103  28.1007863  26.8509023
 111.7388022  27.3985114  25.5191381 100.7310357  30.9446401  13.1985589
 100.8798478  31.6281865  12.5452262 101.5376801  30.9251491  13.7135045
 109.1377861  24.2488783  27.2252807 110.0387724  24.1095248  26.9336805
 109.2125835  24.4143238  28.1650985 103.4720666  21.6255638  26.0705994
 102.6023976  21.9189204  25.7988582 103.7080147  22.2096083  26.7913257
 113.3492295  30.6854797  26.1535522 113.0577104  31.0484777  26.9898983
 112.7364427  29.9721805  25.9748854 114.5487978  28.2507676  18.6738092
 115.3834869  28.6897480  18.8375653 114.6847106  27.7746330  17.8546338
 111.5979484  25.8087411  24.6215580 112.0733605  26.0015058  23.8134431
 110.6745049  25.8646597  24.3758964  98.4862990  26.9711578  14.2046658
  98.2409032  26.0673908  14.4026869  98.6558905  26.9728729  13.2626136
 106.1759700  17.8435255  23.5871414 106.6941644  18.5796282  23.2617903
 105.8214833  18.1499248  24.4218173  97.7558638  22.7039936  11.7032820
  97.0627883  22.7784291  11.0472856  97.5110390  21.9400280  12.2254337
 106.4272294  14.2635537  19.1072311 106.7074048  13.5958726  19.7332737
 107.2122901  14.4564633  18.5946974 104.2305763  33.4394531  10.6697337
 103.6579730  34.0584718  10.2167809 104.8038556  33.9893893  11.2037259
 110.2981153  22.6853171  22.8543886 111.2498575  22.7851269  22.8756110
 110.1284603  21.8931440  23.3641970 108.3195532  19.7708755  23.0403287
 107.7245464  20.0513767  22.3449775 108.0345229  20.2602655  23.8120028
 107.4503023  33.7231681  11.8005919 108.3833696  33.6577243  12.0038795
 107.3626235  34.5587948  11.3420452 112.7769230  25.9059291  21.9686185
 112.7445550  24.9675292  22.1545869 113.3869854  25.9843328  21.2352010
 112.9263719  22.6970334  22.0144469 112.4102768  21.9128791  21.8274397
 113.8103667  22.3689051  22.1790988 118.5945780  26.9675298  21.1092222
 119.3249169  26.7060586  21.6699925 117.9852726  26.2304020  21.1494290
 116.6761077  25.1083160  21.7066673 115.9494241  24.9739125  21.0983165
 116.2608364  25.4159989  22.5123391 104.4991254  28.8273090  29.4714046
 105.4194263  29.0051689  29.6654093 104.4640837  27.8829135  29.3193746
  93.7173419  24.0211684  18.3967321  93.3976203  23.1676992  18.1041695
  93.1706847  24.2360262  19.1525288  97.4953326  26.7374125  22.1136828
  97.7139336  27.6691233  22.1324861  97.9079100  26.3782099  22.8991631
 104.4157544  17.2442210  14.1012516 103.6058272  16.8989295  14.4767762
 105.1041961  16.9349754  14.6900127 102.3681192  22.3107331  31.5039576
 102.2677919  23.2601687  31.4351668 102.1502734  21.9825569  30.6315647
  93.5861679  27.6414595  20.3660443  92.8925150  27.2268548  19.8530397
  94.3334670  27.6835132  19.7693862 102.2312462  25.7404469  30.3204638
 101.7479543  26.5404829  30.5268527 102.3173401  25.7512414  29.3672082
  95.4998421  27.5732849  18.2426457  95.4769109  27.6720536  17.2908341
  95.8099058  28.4198000  18.5643624  98.1585799  29.6309004  22.3573072
  99.1129053  29.5992946  22.2903003  97.9598323  29.1699628  23.1723298
  98.7485181  28.2010120  24.9243870  99.5678070  28.6954199  24.9478707
  99.0221989  27.2842088  24.8961437 111.8566314  20.6167393  18.0026164
 112.6326704  21.1063846  18.2750781 111.1314448  21.0425448  18.4598034
  96.5136028  35.1728624  19.3743270  96.3790496  34.4129024  18.8081268
  96.0968090  35.8969523  18.9072059 108.4792801  26.1075408  14.5022115
 108.4228003  26.5643960  13.6629748 109.0321144  25.3466093  14.3244958
  99.6705154  36.0697941  19.5861712  99.5537538  37.0143373  19.4840403
  98.8497600  35.7671502  19.9747512  94.0020096  22.5348254  25.6236067
  94.6478959  22.0247208  26.1123292  93.7937247  23.2716936  26.1979492
 106.5273488  29.6029101  31.1228207 107.3964647  29.7769754  30.7614842
 106.0480239  30.4223518  31.0003937 100.6959668  36.7226202  22.8017641
 101.5986915  36.7549813  23.1184136 100.4697038  35.7926653  22.8163977
 102.4513270  35.4757189  19.4627719 101.5008901  35.4759051  19.3492092
 102.7545756  34.7289924  18.9463754  98.3417587  19.6815871  29.7211081
  99.2049048  19.3252676  29.9314405  97.7682997  19.3429766  30.4086485
 118.1865963  41.3117727  20.5273482 118.8244373  41.1924475  19.8236822
 118.0686806  42.2598571  20.5861434 114.9955670  41.2645156  20.4635007
 114.6574181  41.1486220  19.5755541 115.8645438  40.8636321  20.4436013
 110.8542485  43.1180632  16.4531898 110.2907351  43.0270569  15.6848185
 110.7394881  42.2980536  16.9334390 115.4775453  42.4180007  26.4221212
 115.4664094  42.0232806  25.5501716 115.6396092  41.6846080  27.0154984
 108.4006917  44.6131824  19.2916118 109.1928209  44.2722648  18.8762417
 108.6403568  44.7226799  20.2118271 116.4342044  46.7851600  11.7646362
 115.7830024  47.3705680  11.3780376 117.2286407  47.3157795  11.8241400
 110.3597671  43.8740737  12.1633497 111.1328547  43.3269724  12.0246373
 110.7123070  44.7384986  12.3747958 112.1982714  45.2017119  25.3700396
 111.9072580  46.1062750  25.2547062 112.8339698  45.2433647  26.0844466
 113.1238921  42.5793968  21.9601756 113.7202493  42.3549990  21.2458719
 113.1813892  41.8378713  22.5627204 112.6963949  40.0333403   9.7951947
 112.9489470  39.5114924   9.0335410 111.7588508  39.8699548   9.8978630
 117.7407232  39.0369181  17.6026690 118.5270321  38.6188604  17.2517107
 118.0045936  39.9415273  17.7708338 117.9117309  44.4742032  12.3015347
 117.2763142  44.5476658  13.0136251 117.5814716  45.0635630  11.6234426
 123.1415659  38.9744414  18.5059668 123.8740831  38.4043631  18.7397498
 122.3855015  38.5866015  18.9466174 112.4160238  41.9361509  11.9976322
 112.2996496  41.2606412  12.6657406 112.5262498  41.4493883  11.1808475
 114.7591779  41.3971656  15.7023011 114.3949986  40.8702277  16.4135932
 115.6158895  41.0070125  15.5289496 120.6641079  32.6865989  22.9654277
 120.3324404  33.5561400  22.7415492 120.0686693  32.3702273  23.6448307
 117.1572599  44.8878535  22.3650190 116.8573322  45.7903573  22.2565997
 116.8123658  44.6210718  23.2171343 110.6085080  41.3392331  18.3986894
 109.6835577  41.2068546  18.6064586 110.8569494  42.1186551  18.8956837
 120.5569743  37.4061075  20.0447627 119.6486620  37.3376483  19.7506388
 120.5057339  37.8833020  20.8729453 114.3786487  38.8819213  11.6831026
 114.2586112  39.3276264  12.5216506 113.6839075  39.2304531  11.1244564
 107.9693891  40.9825605  19.2330683 108.0986273  41.2360084  20.1470095
 107.2891343  41.5753313  18.9135338 112.1393379  51.6522855  15.3321157
 112.0617408  52.6030680  15.4109638 111.5355022  51.3068727  15.9896084
 114.6310609  38.8250720  27.9882524 113.8543943  39.3844640  27.9785389
 115.2701172  39.3107503  28.5097394 122.4231389  35.6077513  21.8225501
 121.7805769  35.9010046  21.1765296 121.9186318  35.4930433  22.6278698
 112.8856981  41.6336174  27.5500491 113.6271665  42.1721218  27.2735315
 112.1793966  42.2602462  27.7072043 118.3612320  43.7765314  26.1472653
 118.7695677  43.3347725  25.4027285 117.6389582  43.2017942  26.4006846
 114.7143391  38.7137921  23.5206210 115.5604586  39.1377334  23.6640859
 114.6542028  38.0571545  24.2144773 118.6841135  44.3366505  19.9024942
 118.0549998  44.5012219  19.2001010 118.2966797  44.7508114  20.6735906
 122.5630367  45.2720943  17.2569305 121.8781405  45.6519844  16.7066339
 122.6474216  45.8816269  17.9901253 117.8642836  36.3742289  25.1787383
 117.6203768  37.1284350  24.6421659 118.1402766  36.7527637  26.0134630
 119.8181299  42.9180902  23.8564649 120.0298194  43.5612662  23.1799030
 119.7711047  42.0843218  23.3886579 117.4207528  35.5298722  20.7601221
 116.5592007  35.8279976  21.0517959 117.4469962  35.7469121  19.8282254
 114.2369097  44.0740913  17.1675027 114.7007443  44.3528616  16.3779649
 113.9725895  43.1724357  16.9848118 111.1293178  43.6212394  20.1054790
 111.6994535  44.0499663  19.4672275 111.7201290  43.3394979  20.8038976
 113.1737983  40.1964065  13.9764592 113.8762026  40.6485109  14.4438518
 112.8418612  39.5547884  14.6044485 111.6218345  38.7875822  28.3515801
 110.9917005  39.4692103  28.5851198 111.5154432  38.6758903  27.4068940
 106.9163317  38.4547618  19.2781726 106.1262371  38.7105146  18.8021836
 107.4074564  39.2695956  19.3833766 120.9327127  45.7952857  22.0287006
 121.7544570  45.3933044  21.7469688 120.9289529  45.6921091  22.9803122
 108.8678062  38.8192197  16.2365202 108.0709226  38.9310891  16.7548698
 108.6403655  39.1578849  15.3706093 114.6983730  45.3436900  24.1847717
 114.7628163  45.8057308  25.0205889 113.9894654  44.7134265  24.3130027
 105.2001020  38.7078108  21.7096716 105.4509058  39.5925118  21.9754292
 105.7360568  38.5282710  20.9371808 114.4131748  47.0105008  14.0526697
 114.2777422  47.8556544  14.4811545 114.9541560  47.2124286  13.2892631
 110.8999087  33.0896588  30.7141052 110.5066033  32.5362786  31.3888697
 111.7165228  33.4007166  31.1047570 107.8661145  44.5280446  14.6254622
 108.3785666  45.3223696  14.7760187 108.5183858  43.8306736  14.5588224
 109.6756030  47.6446202  16.7077375 109.8522658  48.5664167  16.5198359
 110.4712863  47.3304621  17.1371755 113.8167048  34.5054467  28.3061309
 114.5576762  35.1061620  28.2265771 114.0484971  33.7632105  27.7479352
 108.9608386  39.6910834  26.5839539 108.8461901  38.7896091  26.8846638
 108.1052904  39.9374531  26.2324355 116.0400224  47.6328574  28.1827039
 115.5964078  46.8464953  27.8647944 116.7017438  47.8207725  27.5170930
 110.7987345  49.1624376  22.7087718 111.3494770  49.0341439  21.9364712
 109.9598821  49.4619265  22.3582611 118.1381462  47.9131374  26.2108441
 118.1199937  48.7340255  25.7188710 119.0601382  47.7885450  26.4358582
 114.5954516  45.4275504  27.0531949 115.1282853  44.6663792  26.8231257
 114.0668597  45.1349156  27.7956103 117.7624211  30.5335570  22.5825591
 117.4188481  31.4237211  22.5064701 118.1303174  30.3437227  21.7195176
 105.8310062  42.8569100  15.4014193 106.6685284  43.2666109  15.1847901
 106.0088330  41.9168542  15.3714387 117.7274494  40.5244181  11.0898026
 117.2121117  41.2948785  11.3286413 117.4551802  39.8509317  11.7131087
 115.3121605  35.3693882  16.1483264 114.4563201  34.9800732  15.9688903
 115.7248557  35.4485842  15.2883050 116.8420752  32.9040225  20.5474824
 116.3385547  32.8670360  19.7342629 117.1351359  33.8132968  20.6071481
 113.0863638  32.9878955  19.5541006 113.9516634  32.7921763  19.1946895
 113.1541146  32.7589306  20.4810362 117.5160797  38.3971273  12.9157807
 117.2110933  38.7117422  13.7667950 118.4691239  38.4752693  12.9585140
 115.9607229  44.5561496  14.5650761 115.4328591  43.8214256  14.2523998
 115.4594732  45.3336173  14.3190729 120.9400075  42.7510517  19.6817807
 120.2823749  43.4409778  19.7697936 121.7440474  43.1406949  20.0251794
 110.6925957  35.2181163  16.9257372 111.2669709  34.9956344  16.1930565
 111.2796939  35.2869857  17.6785974 119.7505534  41.1054889  17.7321749
 120.2637416  41.7384881  18.2343459 120.4006758  40.5056085  17.3665109
 111.0195544  37.2485624  10.9453258 110.1832856  37.5860310  11.2662532
 110.8800313  37.1134603  10.0080395 112.9948624  32.0922411  15.6532442
 112.3413037  31.7771429  15.0289057 112.9529098  31.4698152  16.3792265
 117.0127908  51.0839214  10.4882420 116.3389607  51.3870910  11.0967378
 117.3993730  51.8868294  10.1387877 116.2286365  38.5804345  19.9780089
 115.3108926  38.8019292  19.8201778 116.6446508  38.6550655  19.1191797
 117.0121412  39.9795761  15.1082770 117.7593231  40.4917158  14.7989892
 117.2813002  39.6579813  15.9687163 115.2848063  42.4754301  12.0909724
 114.3759282  42.1913334  12.1882194 115.3143146  42.8953380  11.2313031
 120.5167330  46.0860891  15.8600892 120.0629657  45.2451801  15.9166082
 119.8861297  46.7222289  16.1975672 119.4600250  37.0152877  17.0901559
 118.7223006  36.5030263  17.4211802 119.7127023  36.5753259  16.2784836
 118.9600269  47.9237388  16.7950710 119.2523244  48.4842445  16.0763075
 119.4698890  48.2165949  17.5503869 105.8536233  40.1959816  16.0724926
 105.6560633  39.6029176  15.3475993 105.2982897  39.8912026  16.7900865
 113.8332957  40.0882922  18.1919519 113.8881566  39.1356758  18.1161996
 113.0224159  40.2442361  18.6760818 114.9824150  44.0163045   9.4297803
 114.5443580  43.2998904   8.9703440 115.7234591  44.2439160   8.8682894
 111.7725317  38.7059982  15.9509898 110.9593182  39.0054152  16.3575090
 112.2684311  38.3115671  16.6684381 113.9233894  48.7017739  17.8844163
 113.8810073  48.9278585  16.9552695 114.8396593  48.4681113  18.0329964
 117.3699528  39.1701806  24.7824792 117.7248916  39.3973279  25.6419258
 118.0171659  39.5020183  24.1602047 123.0997265  42.2920242  15.4874121
 122.9615164  42.4821838  14.5595310 122.7433484  43.0539625  15.9442172
 111.2639391  36.2778337  21.5671133 111.9038771  36.1367096  20.8694097
 110.4316922  35.9912851  21.1909735 123.1266645  44.3596769  20.4985393
 123.5603151  44.2672058  21.3468447 123.8398226  44.3354270  19.8605409
 112.0399695  45.5780768  17.6806126 112.8340294  45.0831088  17.4788701
 111.3291388  45.0498631  17.3173831 116.8594540  47.9598863  22.0318493
 116.9131562  48.5289800  22.7996209 115.9909321  48.1300748  21.6672530
 108.3482459  39.7223849  13.7565878 107.4180047  39.6608305  13.9735840
 108.4439931  39.1999802  12.9602520 108.2668008  36.2478662  16.3444120
 108.5274825  37.1623996  16.2353280 109.0885180  35.7803105  16.4940733
 109.7392933  37.6616419  23.5142945 110.4115987  37.4533782  22.8655593
 108.9122720  37.4638505  23.0748177 123.9882194  44.4020470  23.0318278
 124.1818084  45.3066280  23.2777553 123.8882813  43.9427889  23.8656863
 115.6418505  34.2878360  25.5308605 114.9946420  34.9868310  25.4373082
 116.4119521  34.7214504  25.8984854 119.0497303  44.5527213  28.6059159
 118.8982809  44.3237764  27.6889242 119.0401983  45.5097814  28.6190504
 115.8182639  42.1259125  23.5905425 116.7474699  42.2770285  23.4174392
 115.3973669  42.2143146  22.7354072 114.6170971  46.1509790  21.3603963
 114.4782057  45.7828574  22.2329901 113.8285567  46.6657429  21.1887921
 115.2119123  51.2518886  12.7029499 115.3870879  50.7806929  13.5175122
 114.5251911  51.8784652  12.9310760 116.1676186  45.5291392  18.7492801
 115.8326019  45.4892162  19.6450450 115.6680132  44.8636108  18.2763211
 110.1420430  40.9359022  24.2745382 110.0040228  40.2039261  24.8756921
 111.0525354  40.8467923  23.9929569 112.7702731  40.6478982  23.7629061
 113.4802350  40.0072174  23.7215680 112.7272039  40.8991877  24.6855242
 120.7589510  47.5846335  26.6835641 120.7002056  46.9005555  26.0166224
 121.1609028  48.3265325  26.2316267 111.4831665  37.6344200  25.5824701
 110.9469022  37.1834938  26.2346297 110.8948373  37.7690108  24.8395165
 109.7780208  54.4008249  19.4769359 110.0176807  55.0326773  20.1548378
 108.9349405  54.0496289  19.7634719 120.7606917  45.5485919  24.9149620
 119.8733696  45.2111841  25.0376019 121.3305468  44.8168950  25.1518386
 102.4136064  41.8810011  18.2392672 103.1007104  41.5671741  17.6513687
 102.2584193  42.7851375  17.9659923 107.2170786  36.7700207  22.6677695
 107.1328975  36.1625877  21.9328105 106.3953493  37.2609226  22.6687192
 114.2908070  50.2087371  21.8810863 114.2178242  51.0142343  22.3930168
 113.8485463  50.4079337  21.0558885 114.0797850  49.4459141  15.3913685
 113.2965372  49.9880822  15.4851910 114.7790595  49.9633121  15.7907926
 117.3894500  35.2553771  18.0347890 117.8863200  34.5023733  17.7148961
 116.6181482  35.2918087  17.4691100 125.2424258  40.9594136  19.6766182
 125.2314134  41.8418852  19.3060115 124.3741637  40.6065687  19.4820719
 116.7506754  50.1074205  24.0369022 117.4634726  50.7421670  23.9644924
 116.2596783  50.2038071  23.2209024 118.4724281  44.0125458  15.6086314
 117.5380560  44.1326921  15.4391018 118.6500949  43.1097925  15.3446324
 113.9729469  37.3971154  17.7619575 113.6027256  36.8442194  18.4500481
 114.4688561  36.7929287  17.2094575 121.8596832  39.8542777  16.1436348
 122.3257284  40.6870769  16.0696651 122.3104333  39.3887759  16.8481606
 111.8018667  47.8568649  24.8574593 112.5028127  48.4905132  25.0103987
 111.3313782  48.1983380  24.0970232 119.9273063  46.1986599  13.1422500
 120.2032907  46.0843193  14.0516374 119.0577562  45.8004083  13.1034673
 119.8313495  32.2223364  20.1827249 118.9176575  32.4527591  20.3509456
 120.2606596  32.3061808  21.0341282 119.6019953  40.4113256  22.6827143
 118.9491404  40.6589164  22.0279596 119.9800333  39.5977394  22.3489621
 116.5627127  50.4472949  16.7855314 116.7449522  49.6294605  17.2483066
 117.3860113  50.6640642  16.3480204 116.8969293  49.3741135  14.0470362
 117.4257059  48.8633589  13.4340524 117.1597512  49.0583665  14.9115895
 115.6507526  41.1533067  29.1693180 114.9748163  41.0527197  29.8395556
 116.4735160  40.9972281  29.6329178 107.3986385  47.3905004  21.7905696
 107.9839822  46.6448692  21.9233600 107.2011224  47.7008961  22.6742360
 110.2525041  50.4256251  16.8068138 109.5835416  50.9102379  16.3232178
 110.1137910  50.6725472  17.7211517 101.9904040  39.9610604  20.5110139
 102.0288140  39.4274195  21.3047257 101.4844333  39.4345810  19.8921116
 114.3930309  52.4599995  23.4050796 114.9448617  52.6231616  24.1699882
 114.7336503  53.0504433  22.7330821 109.3694803  34.8075145  24.0072681
 109.4336129  35.6689976  23.5950079 109.3061923  34.1949146  23.2745040
 108.8447075  36.8798277  27.6545715 109.4719114  36.4975354  28.2683240
 107.9874994  36.6612479  28.0201408 119.2441184  47.2861252  29.2599451
 119.7881088  47.8991211  28.7654406 118.6628028  47.8440831  29.7766464
 105.6212618  38.6874706  13.5864070 105.9166059  37.7785385  13.5331124
 104.7200654  38.6662446  13.2645072 117.5298697  50.4081970  20.3914479
 117.4049836  49.6071710  19.8825424 118.1877788  50.9028164  19.9028448
 109.1506865  36.7630703  19.5691619 108.4293451  37.3766671  19.4299092
 109.9400121  37.2988468  19.4908265 119.5933605  48.2090990  22.0194029
 118.6463940  48.0896342  21.9472355 119.9416378  47.3213488  22.1020290
 111.9533178  34.0985129  25.8432271 112.4767580  34.3447426  26.6058580
 111.7345512  34.9305164  25.4235408 107.3500459  36.3688804  13.7103395
 107.0213166  35.4886183  13.5278501 107.7039830  36.3136473  14.5979785
 116.5980038  48.0043707  18.2198381 116.4505001  47.0760414  18.4005951
 117.4233532  48.0263797  17.7355456 110.4642283  36.6561774  14.0778873
 110.8038355  37.1847695  13.3557481 110.9114403  36.9942180  14.8537440
 120.2014160  48.8272265  19.3063254 121.1260708  48.6215127  19.1687705
 120.0329463  48.5788667  20.2152595 113.1585723  35.0398824  23.5281941
 112.8182544  34.2406638  23.9302621 112.4524730  35.3400535  22.9558774
 113.8102195  32.1248137  21.9809264 114.6328265  31.6508615  21.8588154
 114.0540259  32.9038621  22.4807950 112.4510430  35.1536395  12.2772166
 113.1718792  35.5317648  11.7735883 111.8275734  35.8725272  12.3807144
 111.3340774  38.8167258  19.7901243 111.1885355  39.1307561  20.6825524
 110.8565978  39.4352158  19.2372141 113.1937157  35.8069805  19.8382132
 113.1798726  34.9110899  19.5014430 113.9109585  35.8140469  20.4720418
 115.0463288  36.2407146  21.8835260 114.7881065  37.1624216  21.8819590
 114.5148328  35.8437580  22.5735724 119.9909476  49.3457933  14.6625345
 120.1646354  48.7804355  13.9099197 120.4838368  50.1458828  14.4804835
 105.8086436  41.3572602  22.7288904 105.2639904  42.1332410  22.8609178
 106.6865786  41.7043406  22.5708025 112.5974053  34.6884186  15.1069702
 112.7189964  33.7600832  15.3060590 112.3076095  34.7022872  14.1948018
 115.4665243  32.3739096  18.2436422 115.4886940  32.4378429  17.2888402
 115.8833302  31.5343605  18.4376928 120.9784649  48.6624697  11.7622243
 121.6735553  49.2831390  11.9809558 121.3207799  47.8120048  12.0374621
 106.5952458  40.4842498  25.6219061 105.8534194  40.6325134  26.2083691
 106.2745202  40.7450764  24.7585810 122.8776072  46.1124403  13.2909574
 123.4027396  46.4511676  12.5658894 122.7898424  45.1771418  13.1072709
 114.5396121  50.0258476  25.4199451 114.8483247  49.7807623  26.2922150
 115.3371603  50.2305115  24.9318321 114.5616733  52.1796386  17.6504827
 114.1221723  51.6872765  18.3437684 115.3124850  51.6369354  17.4096903
 107.0409072  48.3707927  17.6529455 107.8667092  48.0711699  17.2728099
 106.6903124  47.6015549  18.1019244 112.0090605  47.7234395  19.7227129
 111.3870614  47.0605100  19.4229357 112.6795472  47.7495527  19.0400777
 105.2417677  46.2894253  18.6118389 104.4049585  45.8616428  18.4302390
 105.2141322  46.4826697  19.5489180 112.0815132  36.2016183  29.3159635
 112.1303288  37.0778306  28.9337405 112.6237647  35.6593576  28.7431278
 122.5669978  46.7457306  28.5960772 121.7765522  46.7281445  28.0565271
 122.3303333  47.2845600  29.3509809 122.6867853  43.5949773  25.9093501
 122.7365858  43.4299780  26.8509023 122.5781776  42.7277032  25.5191381
 111.5704112  46.2738318  13.1985589 111.7192232  46.9573783  12.5452262
 112.3770555  46.2543409  13.7135045 119.9771615  39.5780701  27.2252807
 120.8781478  39.4387166  26.9336805 120.0519590  39.7435156  28.1650985
 114.3114421  36.9547556  26.0705994 113.4417730  37.2481122  25.7988582
 114.5473901  37.5388001  26.7913257 124.1886050  46.0146714  26.1535522
 123.8970858  46.3776695  26.9898983 123.5758181  45.3013723  25.9748854
 125.3881732  43.5799594  18.6738092 126.2228624  44.0189398  18.8375653
 125.5240861  43.1038247  17.8546338 122.4373238  41.1379329  24.6215580
 122.9127360  41.3306975  23.8134431 121.5138803  41.1938515  24.3758964
 109.3256745  42.3003496  14.2046658 109.0802787  41.3965826  14.4026869
 109.4952659  42.3020647  13.2626136 117.0153455  33.1727172  23.5871414
 117.5335398  33.9088199  23.2617903 116.6608587  33.4791166  24.4218173
 108.5952392  38.0331854  11.7032820 107.9021637  38.1076209  11.0472856
 108.3504144  37.2692197  12.2254337 117.2666049  29.5927455  19.1072311
 117.5467803  28.9250644  19.7332737 118.0516656  29.7856551  18.5946974
 115.0699517  48.7686449  10.6697337 114.4973484  49.3876636  10.2167809
 115.6432311  49.3185811  11.2037259 121.1374907  38.0145089  22.8543886
 122.0892330  38.1143187  22.8756110 120.9678358  37.2223358  23.3641970
 119.1589287  35.1000672  23.0403287 118.5639219  35.3805685  22.3449775
 118.8738983  35.5894573  23.8120028 118.2896777  49.0523599  11.8005919
 119.2227450  48.9869161  12.0038795 118.2019990  49.8879866  11.3420452
 123.6162985  41.2351209  21.9686185 123.5839305  40.2967209  22.1545869
 124.2263609  41.3135245  21.2352010 123.7657473  38.0262252  22.0144469
 123.2496522  37.2420709  21.8274397 124.6497422  37.6980969  22.1790988
 129.4339535  42.2967216  21.1092222 130.1642923  42.0352504  21.6699925
 128.8246480  41.5595937  21.1494290 127.5154832  40.4375078  21.7066673
 126.7887995  40.3031043  21.0983165 127.1002119  40.7451907  22.5123391
 115.3385008  44.1565008  29.4714046 116.2588018  44.3343607  29.6654093
 115.3034591  43.2121053  29.3193746 104.5567173  39.3503601  18.3967321
 104.2369958  38.4968910  18.1041695 104.0100601  39.5652180  19.1525288
 108.3347081  42.0666042  22.1136828 108.5533091  42.9983150  22.1324861
 108.7472855  41.7074017  22.8991631 115.2551299  32.5734128  14.1012516
 114.4452027  32.2281213  14.4767762 115.9435716  32.2641671  14.6900127
 113.2074946  37.6399248  31.5039576 113.1071673  38.5893605  31.4351668
 112.9896488  37.3117487  30.6315647 104.4255433  42.9706513  20.3660443
 103.7318905  42.5560466  19.8530397 105.1728424  43.0127049  19.7693862
 113.0706216  41.0696387  30.3204638 112.5873298  41.8696747  30.5268527
 113.1567155  41.0804332  29.3672082 106.3392176  42.9024767  18.2426457
 106.3162864  43.0012454  17.2908341 106.6492812  43.7489918  18.5643624
 108.9979554  44.9600922  22.3573072 109.9522807  44.9284864  22.2903003
 108.7992077  44.4991545  23.1723298 109.5878936  43.5302038  24.9243870
 110.4071825  44.0246116  24.9478707 109.8615744  42.6134006  24.8961437
 122.6960068  35.9459311  18.0026164 123.4720458  36.4355764  18.2750781
 121.9708202  36.3717365  18.4598034 107.3529782  50.5020541  19.3743270
 107.2184250  49.7420942  18.8081268 106.9361845  51.2261441  18.9072059
 119.3186556  41.4367326  14.5022115 119.2621757  41.8935877  13.6629748
 119.8714898  40.6758011  14.3244958 110.5098908  51.3989858  19.5861712
 110.3931292  52.3435291  19.4840403 109.6891355  51.0963420  19.9747512
 104.8413850  37.8640172  25.6236067 105.4872714  37.3539126  26.1123292
 104.6331001  38.6008853  26.1979492 117.3667242  44.9321019  31.1228207
 118.2358402  45.1061671  30.7614842 116.8873994  45.7515436  31.0003937
 111.5353422  52.0518120  22.8017641 112.4380669  52.0841730  23.1184136
 111.3090793  51.1218571  22.8163977 113.2907024  50.8049107  19.4627719
 112.3402655  50.8050968  19.3492092 113.5939511  50.0581841  18.9463754
 109.1811341  35.0107789  29.7211081 110.0442803  34.6544594  29.9314405
 108.6076752  34.6721684  30.4086485 129.0259718  56.6409645  20.5273482
 129.6638128  56.5216392  19.8236822 128.9080561  57.5890489  20.5861434
 125.8349424  56.5937073  20.4635007 125.4967936  56.4778138  19.5755541
 126.7039192  56.1928238  20.4436013 121.6936240  58.4472550  16.4531898
 121.1301105  58.3562487  15.6848185 121.5788635  57.6272454  16.9334390
 126.3169207  57.7471925  26.4221212 126.3057848  57.3524723  25.5501716
 126.4789847  57.0137998  27.0154984 119.2400672  59.9423741  19.2916118
 120.0321964  59.6014566  18.8762417 119.4797322  60.0518716  20.2118271
 127.2735799  62.1143517  11.7646362 126.6223778  62.6997598  11.3780376
 128.0680161  62.6449712  11.8241400 121.1991426  59.2032654  12.1633497
 121.9722302  58.6561642  12.0246373 121.5516825  60.0676904  12.3747958
 123.0376468  60.5309037  25.3700396 122.7466334  61.4354668  25.2547062
 123.6733453  60.5725564  26.0844466 123.9632675  57.9085885  21.9601756
 124.5596247  57.6841908  21.2458719 124.0207647  57.1670631  22.5627204
 123.5357704  55.3625321   9.7951947 123.7883224  54.8406842   9.0335410
 122.5982263  55.1991466   9.8978630 128.5800986  54.3661099  17.6026690
 129.3664076  53.9480522  17.2517107 128.8439691  55.2707191  17.7708338
 128.7511064  59.8033949  12.3015347 128.1156897  59.8768576  13.0136251
 128.4208470  60.3927548  11.6234426 133.9809414  54.3036332  18.5059668
 134.7134586  53.7335549  18.7397498 133.2248769  53.9157933  18.9466174
 123.2553992  57.2653427  11.9976322 123.1390250  56.5898330  12.6657406
 123.3656252  56.7785800  11.1808475 125.5985533  56.7263574  15.7023011
 125.2343741  56.1994195  16.4135932 126.4552649  56.3362043  15.5289496
 131.5034834  48.0157906  22.9654277 131.1718159  48.8853317  22.7415492
 130.9080447  47.6994190  23.6448307 127.9966353  60.2170452  22.3650190
 127.6967077  61.1195491  22.2565997 127.6517413  59.9502635  23.2171343
 121.4478835  56.6684249  18.3986894 120.5229331  56.5360463  18.6064586
 121.6963248  57.4478468  18.8956837 131.3963497  52.7352992  20.0447627
 130.4880375  52.6668401  19.7506388 131.3451093  53.2124937  20.8729453
 125.2180241  54.2111131  11.6831026 125.0979866  54.6568182  12.5216506
 124.5232830  54.5596449  11.1244564 118.8087646  56.3117523  19.2330683
 118.9380027  56.5652002  20.1470095 118.1285097  56.9045231  18.9135338
 122.9787133  66.9814773  15.3321157 122.9011163  67.9322598  15.4109638
 122.3748777  66.6360645  15.9896084 125.4704363  54.1542638  27.9882524
 124.6937697  54.7136558  27.9785389 126.1094926  54.6399421  28.5097394
 133.2625144  50.9369431  21.8225501 132.6199524  51.2301964  21.1765296
 132.7580072  50.8222351  22.6278698 123.7250735  56.9628091  27.5500491
 124.4665420  57.5013135  27.2735315 123.0187721  57.5894380  27.7072043
 129.2006075  59.1057232  26.1472653 129.6089431  58.6639642  25.4027285
 128.4783336  58.5309859  26.4006846 125.5537145  54.0429839  23.5206210
 126.3998340  54.4669252  23.6640859 125.4935783  53.3863463  24.2144773
 129.5234890  59.6658422  19.9024942 128.8943752  59.8304137  19.2001010
 129.1360552  60.0800032  20.6735906 133.4024122  60.6012860  17.2569305
 132.7175160  60.9811762  16.7066339 133.4867971  61.2108187  17.9901253
 128.7036590  51.7034207  25.1787383 128.4597522  52.4576267  24.6421659
 128.9796521  52.0819555  26.0134630 130.6575053  58.2472819  23.8564649
 130.8691948  58.8904579  23.1799030 130.6104801  57.4135136  23.3886579
 128.2601282  50.8590640  20.7601221 127.3985761  51.1571894  21.0517959
 128.2863717  51.0761039  19.8282254 125.0762852  59.4032831  17.1675027
 125.5401197  59.6820534  16.3779649 124.8119650  58.5016275  16.9848118
 121.9686933  58.9504312  20.1054790 122.5388290  59.3791580  19.4672275
 122.5595044  58.6686897  20.8038976 124.0131738  55.5255983  13.9764592
 124.7155781  55.9777027  14.4438518 123.6812366  54.8839802  14.6044485
 122.4612099  54.1167740  28.3515801 121.8310760  54.7984020  28.5851198
 122.3548187  54.0050821  27.4068940 117.7557072  53.7839536  19.2781726
 116.9656126  54.0397064  18.8021836 118.2468319  54.5987873  19.3833766
 131.7720881  61.1244775  22.0287006 132.5938325  60.7224962  21.7469688
 131.7683284  61.0213009  22.9803122 119.7071817  54.1484115  16.2365202
 118.9102980  54.2602809  16.7548698 119.4797409  54.4870767  15.3706093
 125.5377485  60.6728818  24.1847717 125.6021917  61.1349225  25.0205889
 124.8288408  60.0426183  24.3130027 116.0394775  54.0370026  21.7096716
 116.2902813  54.9217036  21.9754292 116.5754323  53.8574628  20.9371808
 125.2525502  62.3396926  14.0526697 125.1171177  63.1848461  14.4811545
 125.7935315  62.5416203  13.2892631 121.7392842  48.4188505  30.7141052
 121.3459787  47.8654704  31.3888697 122.5558982  48.7299084  31.1047570
 118.7054900  59.8572364  14.6254622 119.2179420  60.6515614  14.7760187
 119.3577612  59.1598654  14.5588224 120.5149784  62.9738120  16.7077375
 120.6916413  63.8956085  16.5198359 121.3106618  62.6596539  17.1371755
 124.6560803  49.8346384  28.3061309 125.3970516  50.4353538  28.2265771
 124.8878726  49.0924022  27.7479352 119.8002141  55.0202752  26.5839539
 119.6855656  54.1188009  26.8846638 118.9446659  55.2666449  26.2324355
 126.8793979  62.9620492  28.1827039 126.4357833  62.1756871  27.8647944
 127.5411192  63.1499643  27.5170930 121.6381100  64.4916294  22.7087718
 122.1888525  64.3633357  21.9364712 120.7992576  64.7911183  22.3582611
 128.9775217  63.2423292  26.2108441 128.9593692  64.0632173  25.7188710
 129.8995137  63.1177367  26.4358582 125.4348271  60.7567421  27.0531949
 125.9676608  59.9955710  26.8231257 124.9062352  60.4641073  27.7956103
 128.6017966  45.8627487  22.5825591 128.2582235  46.7529129  22.5064701
 128.9696928  45.6729145  21.7195176 116.6703816  58.1861018  15.4014193
 117.5079038  58.5958026  15.1847901 116.8482084  57.2460460  15.3714387
 128.5668248  55.8536099  11.0898026 128.0514872  56.6240703  11.3286413
 128.2945557  55.1801235  11.7131087 126.1515360  50.6985799  16.1483264
 125.2956956  50.3092650  15.9688903 126.5642311  50.7777760  15.2883050
 127.6814506  48.2332143  20.5474824 127.1779302  48.1962278  19.7342629
 127.9745113  49.1424885  20.6071481 123.9257392  48.3170872  19.5541006
 124.7910389  48.1213681  19.1946895 123.9934901  48.0881224  20.4810362
 128.3554552  53.7263191  12.9157807 128.0504687  54.0409340  13.7667950
 129.3084994  53.8044611  12.9585140 126.8000983  59.8853414  14.5650761
 126.2722345  59.1506174  14.2523998 126.2988486  60.6628090  14.3190729
 131.7793830  58.0802434  19.6817807 131.1217504  58.7701696  19.7697936
 132.5834229  58.4698866  20.0251794 121.5319711  50.5473080  16.9257372
 122.1063463  50.3248262  16.1930565 122.1190694  50.6161775  17.6785974
 130.5899288  56.4346807  17.7321749 131.1031170  57.0676799  18.2343459
 131.2400512  55.8348003  17.3665109 121.8589298  52.5777541  10.9453258
 121.0226610  52.9152228  11.2662532 121.7194068  52.4426521  10.0080395
 123.8342379  47.4214329  15.6532442 123.1806791  47.1063346  15.0289057
 123.7922853  46.7990070  16.3792265 127.8521663  66.4131131  10.4882420
 127.1783361  66.7162828  11.0967378 128.2387485  67.2160212  10.1387877
 127.0680119  53.9096263  19.9780089 126.1502681  54.1311210  19.8201778
 127.4840263  53.9842573  19.1191797 127.8515167  55.3087678  15.1082770
 128.5986986  55.8209076  14.7989892 128.1206756  54.9871731  15.9687163
 126.1241817  57.8046219  12.0909724 125.2153036  57.5205252  12.1882194
 126.1536901  58.2245298  11.2313031 131.3561085  61.4152809  15.8600892
 130.9023412  60.5743718  15.9166082 130.7255051  62.0514207  16.1975672
 130.2994004  52.3444795  17.0901559 129.5616761  51.8322181  17.4211802
 130.5520778  51.9045176  16.2784836 129.7994024  63.2529305  16.7950710
 130.0916998  63.8134362  16.0763075 130.3092644  63.5457866  17.5503869
 116.6929987  55.5251733  16.0724926 116.4954387  54.9321094  15.3475993
 116.1376651  55.2203943  16.7900865 124.6726711  55.4174840  18.1919519
 124.7275321  54.4648676  18.1161996 123.8617913  55.5734279  18.6760818
 125.8217905  59.3454963   9.4297803 125.3837335  58.6290822   8.9703440
 126.5628346  59.5731078   8.8682894 122.6119071  54.0351899  15.9509898
 121.7986937  54.3346070  16.3575090 123.1078065  53.6407588  16.6684381
 124.7627649  64.0309656  17.8844163 124.7203828  64.2570503  16.9552695
 125.6790348  63.7973031  18.0329964 128.2093283  54.4993724  24.7824792
 128.5642670  54.7265197  25.6419258 128.8565414  54.8312101  24.1602047
 133.9391020  57.6212160  15.4874121 133.8008918  57.8113756  14.5595310
 133.5827239  58.3831543  15.9442172 122.1033146  51.6070255  21.5671133
 122.7432525  51.4659014  20.8694097 121.2710676  51.3204768  21.1909735
 133.9660399  59.6888687  20.4985393 134.3996906  59.5963976  21.3468447
 134.6791980  59.6646187  19.8605409 122.8793450  60.9072685  17.6806126
 123.6734048  60.4123006  17.4788701 122.1685142  60.3790549  17.3173831
 127.6988294  63.2890781  22.0318493 127.7525316  63.8581717  22.7996209
 126.8303076  63.4592666  21.6672530 119.1876213  55.0515767  13.7565878
 118.2573801  54.9900223  13.9735840 119.2833685  54.5291720  12.9602520
 119.1061762  51.5770580  16.3444120 119.3668580  52.4915913  16.2353280
 119.9278935  51.1095023  16.4940733 120.5786688  52.9908337  23.5142945
 121.2509741  52.7825699  22.8655593 119.7516474  52.7930423  23.0748177
 134.8275949  59.7312387  23.0318278 135.0211839  60.6358198  23.2777553
 134.7276567  59.2719807  23.8656863 126.4812260  49.6170278  25.5308605
 125.8340175  50.3160228  25.4373082 127.2513275  50.0506422  25.8984854
 129.8891058  59.8819130  28.6059159 129.7376564  59.6529682  27.6889242
 129.8795737  60.8389732  28.6190504 126.6576394  57.4551043  23.5905425
 127.5868454  57.6062203  23.4174392 126.2367424  57.5435064  22.7354072
 125.4564726  61.4801707  21.3603963 125.3175811  61.1120492  22.2329901
 124.6679322  61.9949347  21.1887921 126.0512878  66.5810804  12.7029499
 126.2264633  66.1098847  13.5175122 125.3645666  67.2076570  12.9310760
 127.0069941  60.8583310  18.7492801 126.6719773  60.8184080  19.6450450
 126.5073887  60.1928026  18.2763211 120.9814185  56.2650940  24.2745382
 120.8433983  55.5331179  24.8756921 121.8919108  56.1759840  23.9929569
 123.6096486  55.9770899  23.7629061 124.3196104  55.3364092  23.7215680
 123.5665794  56.2283794  24.6855242 131.5983264  62.9138253  26.6835641
 131.5395810  62.2297473  26.0166224 132.0002783  63.6557243  26.2316267
 122.3225419  52.9636117  25.5824701 121.7862777  52.5126856  26.2346297
 121.7342128  53.0982026  24.8395165 120.6173963  69.7300167  19.4769359
 120.8570561  70.3618691  20.1548378 119.7743159  69.3788207  19.7634719
 131.6000671  60.8777837  24.9149620 130.7127450  60.5403758  25.0376019
 132.1699223  60.1460868  25.1518386 113.2529819  57.2101928  18.2392672
 113.9400858  56.8963658  17.6513687 113.0977947  58.1143293  17.9659923
 118.0564541  52.0992125  22.6677695 117.9722729  51.4917795  21.9328105
 117.2347247  52.5901143  22.6687192 125.1301825  65.5379289  21.8810863
 125.0571996  66.3434261  22.3930168 124.6879218  65.7371255  21.0558885
 124.9191604  64.7751059  15.3913685 124.1359126  65.3172739  15.4851910
 125.6184350  65.2925039  15.7907926 128.2288255  50.5845689  18.0347890
 128.7256954  49.8315651  17.7148961 127.4575236  50.6210005  17.4691100
 136.0818012  56.2886054  19.6766182 136.0707888  57.1710769  19.3060115
 135.2135391  55.9357605  19.4820719 127.5900508  65.4366123  24.0369022
 128.3028481  66.0713588  23.9644924 127.0990537  65.5329989  23.2209024
 129.3118035  59.3417376  15.6086314 128.3774314  59.4618838  15.4391018
 129.4894704  58.4389843  15.3446324 124.8123223  52.7263072  17.7619575
 124.4421011  52.1734112  18.4500481 125.3082316  52.1221205  17.2094575
 132.6990587  55.1834695  16.1436348 133.1651039  56.0162687  16.0696651
 133.1498087  54.7179677  16.8481606 122.6412422  63.1860567  24.8574593
 123.3421881  63.8197049  25.0103987 122.1707537  63.5275298  24.0970232
 130.7666818  61.5278516  13.1422500 131.0426662  61.4135111  14.0516374
 129.8971316  61.1296001  13.1034673 130.6707249  47.5515282  20.1827249
 129.7570329  47.7819509  20.3509456 131.1000351  47.6353726  21.0341282
 130.4413708  55.7405174  22.6827143 129.7885158  55.9881081  22.0279596
 130.8194088  54.9269312  22.3489621 127.4020882  65.7764867  16.7855314
 127.5843276  64.9586523  17.2483066 128.2253868  65.9932559  16.3480204
 127.7363047  64.7033052  14.0470362 128.2650814  64.1925507  13.4340524
 127.9991267  64.3875582  14.9115895 126.4901281  56.4824985  29.1693180
 125.8141918  56.3819114  29.8395556 127.3128915  56.3264199  29.6329178
 118.2380140  62.7196922  21.7905696 118.8233577  61.9740609  21.9233600
 118.0404978  63.0300878  22.6742360 121.0918795  65.7548169  16.8068138
 120.4229170  66.2394297  16.3232178 120.9531665  66.0017389  17.7211517
 112.8297795  55.2902522  20.5110139 112.8681894  54.7566112  21.3047257
 112.3238088  54.7637727  19.8921116 125.2324064  67.7891912  23.4050796
 125.7842372  67.9523534  24.1699882 125.5730257  68.3796350  22.7330821
 120.2088557  50.1367062  24.0072681 120.2729883  50.9981893  23.5950079
 120.1455677  49.5241064  23.2745040 119.6840830  52.2090195  27.6545715
 120.3112868  51.8267272  28.2683240 118.8268748  51.9904397  28.0201408
 130.0834938  62.6153170  29.2599451 130.6274842  63.2283128  28.7654406
 129.5021783  63.1732748  29.7766464 116.4606372  54.0166624  13.5864070
 116.7559813  53.1077302  13.5331124 115.5594408  53.9954363  13.2645072
 128.3692451  65.7373888  20.3914479 128.2443591  64.9363628  19.8825424
 129.0271542  66.2320081  19.9028448 119.9900619  52.0922621  19.5691619
 119.2687205  52.7058588  19.4299092 120.7793875  52.6280385  19.4908265
 130.4327359  63.5382908  22.0194029 129.4857695  63.4188259  21.9472355
 130.7810133  62.6505406  22.1020290 122.7926933  49.4277047  25.8432271
 123.3161335  49.6739344  26.6058580 122.5739266  50.2597082  25.4235408
 118.1894214  51.6980722  13.7103395 117.8606920  50.8178101  13.5278501
 118.5433585  51.6428390  14.5979785 127.4373793  63.3335624  18.2198381
 127.2898755  62.4052332  18.4005951 128.2627286  63.3555715  17.7355456
 121.3036037  51.9853691  14.0778873 121.6432110  52.5139613  13.3557481
 121.7508157  52.3234098  14.8537440 131.0407915  64.1564183  19.3063254
 131.9654462  63.9507044  19.1687705 130.8723218  63.9080584  20.2152595
 123.9979478  50.3690742  23.5281941 123.6576298  49.5698555  23.9302621
 123.2918484  50.6692453  22.9558774 124.6495950  47.4540055  21.9809264
 125.4722019  46.9800533  21.8588154 124.8934013  48.2330538  22.4807950
 123.2904184  50.4828313  12.2772166 124.0112547  50.8609566  11.7735883
 122.6669488  51.2017190  12.3807144 122.1734528  54.1459175  19.7901243
 122.0279109  54.4599478  20.6825524 121.6959732  54.7644076  19.2372141
 124.0330911  51.1361723  19.8382132 124.0192480  50.2402816  19.5014430
 124.7503339  51.1432387  20.4720418 125.8857042  51.5699063  21.8835260
 125.6274820  52.4916134  21.8819590 125.3542082  51.1729498  22.5735724
 130.8303231  64.6749850  14.6625345 131.0040108  64.1096273  13.9099197
 131.3232122  65.4750745  14.4804835 116.6480191  56.6864520  22.7288904
 116.1033659  57.4624328  22.8609178 117.5259540  57.0335324  22.5708025
 123.4367807  50.0176103  15.1069702 123.5583718  49.0892750  15.3060590
 123.1469850  50.0314789  14.1948018 126.3058998  47.7031014  18.2436422
 126.3280694  47.7670347  17.2888402 126.7227057  46.8635523  18.4376928
 131.8178403  63.9916615  11.7622243 132.5129308  64.6123308  11.9809558
 132.1601553  63.1411966  12.0374621 117.4346212  55.8134416  25.6219061
 116.6927948  55.9617051  26.2083691 117.1138957  56.0742681  24.7585810
 133.7169826  61.4416320  13.2909574 134.2421150  61.7803593  12.5658894
 133.6292179  60.5063336  13.1072709 125.3789875  65.3550394  25.4199451
 125.6877002  65.1099541  26.2922150 126.1765357  65.5597033  24.9318321
 125.4010487  67.5088304  17.6504827 124.9615477  67.0164682  18.3437684
 126.1518604  66.9661271  17.4096903 117.8802826  63.6999845  17.6529455
 118.7060846  63.4003616  17.2728099 117.5296878  62.9307467  18.1019244
 122.8484359  63.0526313  19.7227129 122.2264369  62.3897018  19.4229357
 123.5189226  63.0787445  19.0400777 116.0811431  61.6186171  18.6118389
 115.2443339  61.1908345  18.4302390 116.0535077  61.8118614  19.5489180
 122.9208887  51.5308101  29.3159635 122.9697042  52.4070224  28.9337405
 123.4631401  50.9885494  28.7431278 133.4063732  62.0749224  28.5960772
 132.6159276  62.0573363  28.0565271 133.1697087  62.6137518  29.3509809
 133.5261608  58.9241690  25.9093501 133.5759612  58.7591698  26.8509023
 133.4175531  58.0568949  25.5191381 122.4097866  61.6030236  13.1985589
 122.5585987  62.2865701  12.5452262 123.2164310  61.5835326  13.7135045
 130.8165370  54.9072618  27.2252807 131.7175233  54.7679083  26.9336805
 130.8913344  55.0727073  28.1650985 125.1508175  52.2839473  26.0705994
 124.2811485  52.5773039  25.7988582 125.3867656  52.8679918  26.7913257
 135.0279804  61.3438632  26.1535522 134.7364613  61.7068613  26.9898983
 134.4151936  60.6305640  25.9748854 136.2275487  58.9091512  18.6738092
 137.0622378  59.3481316  18.8375653 136.3634615  58.4330165  17.8546338
 133.2766993  56.4671247  24.6215580 133.7521114  56.6598893  23.8134431
 132.3532558  56.5230432  24.3758964 120.1650499  57.6295414  14.2046658
 119.9196541  56.7257744  14.4026869 120.3346414  57.6312564  13.2626136
 127.8547209  48.5019090  23.5871414 128.3729153  49.2380117  23.2617903
 127.5002342  48.8083083  24.4218173 119.4346147  53.3623771  11.7032820
 118.7415392  53.4368126  11.0472856 119.1897899  52.5984115  12.2254337
 128.1059803  44.9219373  19.1072311 128.3861557  44.2542562  19.7332737
 128.8910410  45.1148468  18.5946974 125.9093272  64.0978367  10.6697337
 125.3367239  64.7168554  10.2167809 126.4826065  64.6477728  11.2037259
 131.9768662  53.3437007  22.8543886 132.9286084  53.4435104  22.8756110
 131.8072112  52.5515275  23.3641970 129.9983041  50.4292590  23.0403287
 129.4032973  50.7097603  22.3449775 129.7132738  50.9186491  23.8120028
 129.1290532  64.3815517  11.8005919 130.0621205  64.3161078  12.0038795
 129.0413744  65.2171784  11.3420452 134.4556739  56.5643126  21.9686185
 134.4233059  55.6259127  22.1545869 135.0657363  56.6427163  21.2352010
 134.6051228  53.3554170  22.0144469 134.0890276  52.5712626  21.8274397
 135.4891176  53.0272886  22.1790988 140.2733289  57.6259133  21.1092222
 141.0036678  57.3644421  21.6699925 139.6640235  56.8887855  21.1494290
 138.3548586  55.7666996  21.7066673 137.6281750  55.6322961  21.0983165
 137.9395873  56.0743824  22.5123391 126.1778763  59.4856925  29.4714046
 127.0981772  59.6635524  29.6654093 126.1428346  58.5412971  29.3193746
 115.3960928  54.6795519  18.3967321 115.0763712  53.8260827  18.1041695
 114.8494356  54.8944097  19.1525288 119.1740835  57.3957960  22.1136828
 119.3926845  58.3275068  22.1324861 119.5866609  57.0365935  22.8991631
 126.0945053  47.9026045  14.1012516 125.2845781  47.5573130  14.4767762
 126.7829470  47.5933589  14.6900127 124.0468701  52.9691166  31.5039576
 123.9465428  53.9185523  31.4351668 123.8290243  52.6409405  30.6315647
 115.2649188  58.2998431  20.3660443 114.5712659  57.8852383  19.8530397
 116.0122179  58.3418967  19.7693862 123.9099971  56.3988305  30.3204638
 123.4267052  57.1988665  30.5268527 123.9960910  56.4096250  29.3672082
 117.1785930  58.2316684  18.2426457 117.1556618  58.3304372  17.2908341
 117.4886567  59.0781835  18.5643624 119.8373308  60.2892839  22.3573072
 120.7916562  60.2576782  22.2903003 119.6385832  59.8283463  23.1723298
 120.4272690  58.8593955  24.9243870 121.2465579  59.3538034  24.9478707
 120.7009498  57.9425924  24.8961437 133.5353823  51.2751229  18.0026164
 134.3114213  51.7647681  18.2750781 132.8101957  51.7009283  18.4598034
 118.1923537  65.8312459  19.3743270 118.0578005  65.0712860  18.8081268
 117.7755599  66.5553359  18.9072059 130.1580310  56.7659244  14.5022115
 130.1015512  57.2227795  13.6629748 130.7108653  56.0049928  14.3244958
 121.3492663  66.7281776  19.5861712 121.2325047  67.6727208  19.4840403
 120.5285109  66.4255337  19.9747512 115.6807605  53.1932089  25.6236067
 116.3266468  52.6831043  26.1123292 115.4724756  53.9300771  26.1979492
 128.2060997  60.2612937  31.1228207 129.0752156  60.4353589  30.7614842
 127.7267748  61.0807354  31.0003937 122.3747177  67.3810038  22.8017641
 123.2774424  67.4133648  23.1184136 122.1484547  66.4510489  22.8163977
 124.1300779  66.1341024  19.4627719 123.1796410  66.1342886  19.3492092
 124.4333265  65.3873759  18.9463754 120.0205096  50.3399706  29.7211081
 120.8836557  49.9836511  29.9314405 119.4470506  50.0013601  30.4086485
 139.8653472  71.9701563  20.5273482 140.5031882  71.8508310  19.8236822
 139.7474315  72.9182407  20.5861434 136.6743179  71.9228991  20.4635007
 136.3361690  71.8070056  19.5755541 137.5432947  71.5220156  20.4436013
 132.5329994  73.7764467  16.4531898 131.9694860  73.6854404  15.6848185
 132.4182389  72.9564372  16.9334390 137.1562962  73.0763843  26.4221212
 137.1451603  72.6816641  25.5501716 137.3183601  72.3429915  27.0154984
 130.0794426  75.2715659  19.2916118 130.8715718  74.9306484  18.8762417
 130.3191077  75.3810634  20.2118271 132.0385180  74.5324572  12.1633497
 132.8116056  73.9853559  12.0246373 132.3910579  75.3968821  12.3747958
 133.8770223  75.8600954  25.3700396 133.5860089  76.7646585  25.2547062
 134.5127207  75.9017482  26.0844466 134.8026430  73.2377803  21.9601756
 135.3990002  73.0133825  21.2458719 134.8601401  72.4962548  22.5627204
 139.4194741  69.6953017  17.6026690 140.2057830  69.2772440  17.2517107
 139.6833445  70.5999109  17.7708338 134.0947747  72.5945344  11.9976322
 133.9784005  71.9190248  12.6657406 134.2050007  72.1077718  11.1808475
 136.4379288  72.0555491  15.7023011 136.0737495  71.5286112  16.4135932
 137.2946404  71.6653960  15.5289496 142.3428588  63.3449824  22.9654277
 142.0111913  64.2145235  22.7415492 141.7474202  63.0286108  23.6448307
 138.8360108  75.5462370  22.3650190 138.5360831  76.4487409  22.2565997
 138.4911167  75.2794553  23.2171343 132.2872589  71.9976167  18.3986894
 131.3623086  71.8652381  18.6064586 132.5357003  72.7770386  18.8956837
 142.2357252  68.0644910  20.0447627 141.3274129  67.9960319  19.7506388
 142.1844848  68.5416855  20.8729453 136.0573996  69.5403049  11.6831026
 135.9373621  69.9860099  12.5216506 135.3626584  69.8888366  11.1244564
 129.6481400  71.6409440  19.2330683 129.7773782  71.8943919  20.1470095
 128.9678852  72.2337148  18.9135338 136.3098118  69.4834556  27.9882524
 135.5331452  70.0428476  27.9785389 136.9488681  69.9691339  28.5097394
 134.5644490  72.2920009  27.5500491 135.3059174  72.8305053  27.2735315
 133.8581475  72.9186298  27.7072043 140.0399829  74.4349150  26.1472653
 140.4483186  73.9931560  25.4027285 139.3177091  73.8601777  26.4006846
 136.3930900  69.3721756  23.5206210 137.2392095  69.7961170  23.6640859
 136.3329537  68.7155381  24.2144773 140.3628644  74.9950340  19.9024942
 139.7337507  75.1596054  19.2001010 139.9754306  75.4091950  20.6735906
 139.5430345  67.0326125  25.1787383 139.2991277  67.7868185  24.6421659
 139.8190275  67.4111472  26.0134630 141.4968808  73.5764737  23.8564649
 141.7085703  74.2196497  23.1799030 141.4498556  72.7427054  23.3886579
 139.0995037  66.1882558  20.7601221 138.2379516  66.4863811  21.0517959
 139.1257471  66.4052957  19.8282254 135.9156606  74.7324748  17.1675027
 136.3794952  75.0112451  16.3779649 135.6513404  73.8308193  16.9848118
 132.8080687  74.2796230  20.1054790 133.3782044  74.7083498  19.4672275
 133.3988799  73.9978814  20.8038976 134.8525492  70.8547901  13.9764592
 135.5549535  71.3068944  14.4438518 134.5206121  70.2131719  14.6044485
 133.3005854  69.4459657  28.3515801 132.6704514  70.1275938  28.5851198
 133.1941941  69.3342739  27.4068940 128.5950826  69.1131453  19.2781726
 127.8049880  69.3688982  18.8021836 129.0862073  69.9279791  19.3833766
 142.6114636  76.4536692  22.0287006 143.4332079  76.0516880  21.7469688
 142.6077038  76.3504927  22.9803122 130.5465571  69.4776033  16.2365202
 129.7496735  69.5894727  16.7548698 130.3191164  69.8162685  15.3706093
 136.3771239  76.0020736  24.1847717 136.4415672  76.4641143  25.0205889
 135.6682163  75.3718101  24.3130027 126.8788529  69.3661944  21.7096716
 127.1296567  70.2508954  21.9754292 127.4148077  69.1866545  20.9371808
 132.5786596  63.7480423  30.7141052 132.1853542  63.1946622  31.3888697
 133.3952737  64.0591002  31.1047570 129.5448654  75.1864281  14.6254622
 130.0573175  75.9807532  14.7760187 130.1971367  74.4890572  14.5588224
 131.3543539  78.3030038  16.7077375 131.5310167  79.2248002  16.5198359
 132.1500372  77.9888457  17.1371755 135.4954557  65.1638302  28.3061309
 136.2364271  65.7645455  28.2265771 135.7272480  64.4215940  27.7479352
 130.6395895  70.3494669  26.5839539 130.5249410  69.4479927  26.8846638
 129.7840413  70.5958366  26.2324355 137.7187733  78.2912410  28.1827039
 137.2751587  77.5048788  27.8647944 138.3804947  78.4791560  27.5170930
 132.4774854  79.8208211  22.7087718 133.0282279  79.6925275  21.9364712
 131.6386330  80.1203100  22.3582611 139.8168971  78.5715210  26.2108441
 139.7987446  79.3924091  25.7188710 140.7388891  78.4469285  26.4358582
 136.2742025  76.0859339  27.0531949 136.8070362  75.3247627  26.8231257
 135.7456106  75.7932991  27.7956103 139.4411720  61.1919405  22.5825591
 139.0975990  62.0821047  22.5064701 139.8090683  61.0021063  21.7195176
 127.5097571  73.5152936  15.4014193 128.3472793  73.9249944  15.1847901
 127.6875839  72.5752378  15.3714387 136.9909114  66.0277717  16.1483264
 136.1350710  65.6384567  15.9688903 137.4036066  66.1069678  15.2883050
 138.5208261  63.5624060  20.5474824 138.0173056  63.5254195  19.7342629
 138.8138868  64.4716803  20.6071481 134.7651147  63.6462790  19.5541006
 135.6304143  63.4505599  19.1946895 134.8328655  63.4173142  20.4810362
 139.1948306  69.0555108  12.9157807 138.8898442  69.3701257  13.7667950
 140.1478748  69.1336528  12.9585140 137.6394738  75.2145332  14.5650761
 137.1116100  74.4798091  14.2523998 137.1382241  75.9920008  14.3190729
 142.6187584  73.4094352  19.6817807 141.9611258  74.0993614  19.7697936
 143.4227983  73.7990784  20.0251794 132.3713466  65.8764998  16.9257372
 132.9457217  65.6540179  16.1930565 132.9584448  65.9453692  17.6785974
 141.4293043  71.7638725  17.7321749 141.9424925  72.3968717  18.2343459
 142.0794267  71.1639920  17.3665109 132.6983053  67.9069459  10.9453258
 131.8620365  68.2444145  11.2662532 132.5587822  67.7718439  10.0080395
 134.6736133  62.7506247  15.6532442 134.0200546  62.4355264  15.0289057
 134.6316607  62.1281987  16.3792265 137.9073874  69.2388180  19.9780089
 136.9896435  69.4603127  19.8201778 138.3234017  69.3134491  19.1191797
 138.6908921  70.6379596  15.1082770 139.4380740  71.1500993  14.7989892
 138.9600511  70.3163649  15.9687163 141.1387759  67.6736712  17.0901559
 140.4010515  67.1614098  17.4211802 141.3914532  67.2337094  16.2784836
 127.5323742  70.8543651  16.0724926 127.3348142  70.2613012  15.3475993
 126.9770406  70.5495861  16.7900865 135.5120466  70.7466757  18.1919519
 135.5669075  69.7940594  18.1161996 134.7011668  70.9026196  18.6760818
 133.4512826  69.3643817  15.9509898 132.6380691  69.6637988  16.3575090
 133.9471820  68.9699506  16.6684381 135.6021403  79.3601574  17.8844163
 135.5597582  79.5862420  16.9552695 136.5184102  79.1264949  18.0329964
 139.0487037  69.8285642  24.7824792 139.4036425  70.0557115  25.6419258
 139.6959168  70.1604018  24.1602047 132.9426900  66.9362173  21.5671133
 133.5826280  66.7950932  20.8694097 132.1104431  66.6496686  21.1909735
 133.7187204  76.2364603  17.6806126 134.5127803  75.7414923  17.4788701
 133.0078897  75.7082466  17.3173831 138.5382049  78.6182699  22.0318493
 138.5919071  79.1873635  22.7996209 137.6696830  78.7884584  21.6672530
 130.0269968  70.3807685  13.7565878 129.0967556  70.3192140  13.9735840
 130.1227440  69.8583638  12.9602520 129.9455517  66.9062498  16.3444120
 130.2062334  67.8207831  16.2353280 130.7672689  66.4386940  16.4940733
 131.4180442  68.3200255  23.5142945 132.0903495  68.1117617  22.8655593
 130.5910229  68.1222341  23.0748177 137.3206014  64.9462196  25.5308605
 136.6733929  65.6452145  25.4373082 138.0907029  65.3798340  25.8984854
 140.7284812  75.2111048  28.6059159 140.5770318  74.9821600  27.6889242
 140.7189492  76.1681649  28.6190504 137.4970148  72.7842961  23.5905425
 138.4262208  72.9354120  23.4174392 137.0761178  72.8726981  22.7354072
 136.2958480  76.8093625  21.3603963 136.1569566  76.4412409  22.2329901
 135.5073076  77.3241264  21.1887921 137.8463695  76.1875228  18.7492801
 137.5113528  76.1475998  19.6450450 137.3467641  75.5219944  18.2763211
 131.8207939  71.5942858  24.2745382 131.6827737  70.8623097  24.8756921
 132.7312863  71.5051758  23.9929569 134.4490240  71.3062817  23.7629061
 135.1589859  70.6656009  23.7215680 134.4059548  71.5575712  24.6855242
 142.4377019  78.2430170  26.6835641 142.3789565  77.5589391  26.0166224
 142.8396537  78.9849160  26.2316267 133.1619174  68.2928035  25.5824701
 132.6256531  67.8418773  26.2346297 132.5735882  68.4273944  24.8395165
 131.4567717  85.0592084  19.4769359 131.6964316  85.6910608  20.1548378
 130.6136914  84.7080124  19.7634719 142.4394426  76.2069754  24.9149620
 141.5521205  75.8695676  25.0376019 143.0092977  75.4752786  25.1518386
 124.0923573  72.5393846  18.2392672 124.7794613  72.2255576  17.6513687
 123.9371702  73.4435211  17.9659923 128.8958295  67.4284043  22.6677695
 128.8116484  66.8209712  21.9328105 128.0741002  67.9193061  22.6687192
 135.9695579  80.8671207  21.8810863 135.8965751  81.6726178  22.3930168
 135.5272972  81.0663173  21.0558885 139.0682009  65.9137606  18.0347890
 139.5650709  65.1607569  17.7148961 138.2968991  65.9501923  17.4691100
 138.4294263  80.7658041  24.0369022 139.1422235  81.4005506  23.9644924
 137.9384292  80.8621907  23.2209024 140.1511790  74.6709293  15.6086314
 139.2168069  74.7910756  15.4391018 140.3288458  73.7681760  15.3446324
 135.6516978  68.0554989  17.7619575 135.2814765  67.5026030  18.4500481
 136.1476070  67.4513123  17.2094575 133.4806176  78.5152484  24.8574593
 134.1815636  79.1488967  25.0103987 133.0101291  78.8567216  24.0970232
 141.5101004  62.8807200  20.1827249 140.5964084  63.1111427  20.3509456
 141.9394105  62.9645644  21.0341282 141.2807462  71.0697092  22.6827143
 140.6278913  71.3172999  22.0279596 141.6587842  70.2561230  22.3489621
 137.3295035  71.8116903  29.1693180 136.6535672  71.7111032  29.8395556
 138.1522669  71.6556116  29.6329178 129.0773894  78.0488839  21.7905696
 129.6627331  77.3032527  21.9233600 128.8798733  78.3592796  22.6742360
 131.9312550  81.0840087  16.8068138 131.2622925  81.5686214  16.3232178
 131.7925419  81.3309307  17.7211517 123.6691549  70.6194439  20.5110139
 123.7075649  70.0858030  21.3047257 123.1631842  70.0929645  19.8921116
 136.0717818  83.1183830  23.4050796 136.6236126  83.2815452  24.1699882
 136.4124012  83.7088268  22.7330821 131.0482311  65.4658980  24.0072681
 131.1123638  66.3273811  23.5950079 130.9849432  64.8532982  23.2745040
 130.5234584  67.5382113  27.6545715 131.1506623  67.1559190  28.2683240
 129.6662503  67.3196314  28.0201408 140.9228693  77.9445088  29.2599451
 141.4668597  78.5575046  28.7654406 140.3415537  78.5024666  29.7766464
 127.3000127  69.3458542  13.5864070 127.5953568  68.4369220  13.5331124
 126.3988163  69.3246281  13.2645072 139.2086206  81.0665806  20.3914479
 139.0837345  80.2655546  19.8825424 139.8665297  81.5611999  19.9028448
 130.8294374  67.4214538  19.5691619 130.1080960  68.0350506  19.4299092
 131.6187630  67.9572303  19.4908265 141.2721114  78.8674826  22.0194029
 140.3251449  78.7480177  21.9472355 141.6203887  77.9797324  22.1020290
 133.6320687  64.7568965  25.8432271 134.1555089  65.0031261  26.6058580
 133.4133021  65.5888999  25.4235408 129.0287968  67.0272639  13.7103395
 128.7000675  66.1470018  13.5278501 129.3827339  66.9720308  14.5979785
 138.2767547  78.6627542  18.2198381 138.1292510  77.7344249  18.4005951
 139.1021041  78.6847633  17.7355456 132.1429792  67.3145609  14.0778873
 132.4825864  67.8431530  13.3557481 132.5901912  67.6526015  14.8537440
 141.8801669  79.4856101  19.3063254 142.8048217  79.2798962  19.1687705
 141.7116972  79.2372502  20.2152595 134.8373232  65.6982660  23.5281941
 134.4970053  64.8990473  23.9302621 134.1312239  65.9984371  22.9558774
 135.4889704  62.7831972  21.9809264 136.3115773  62.3092450  21.8588154
 135.7327768  63.5622456  22.4807950 134.1297939  65.8120231  12.2772166
 134.8506301  66.1901483  11.7735883 133.5063243  66.5309107  12.3807144
 133.0128283  69.4751093  19.7901243 132.8672864  69.7891396  20.6825524
 132.5353487  70.0935993  19.2372141 134.8724666  66.4653641  19.8382132
 134.8586235  65.5694734  19.5014430 135.5897094  66.4724305  20.4720418
 136.7250797  66.8990981  21.8835260 136.4668574  67.8208052  21.8819590
 136.1935837  66.5021416  22.5735724 127.4873945  72.0156437  22.7288904
 126.9427413  72.7916245  22.8609178 128.3653295  72.3627242  22.5708025
 134.2761562  65.3468021  15.1069702 134.3977473  64.4184667  15.3060590
 133.9863604  65.3606707  14.1948018 137.1452752  63.0322932  18.2436422
 137.1674449  63.0962265  17.2888402 137.5620811  62.1927440  18.4376928
 128.2739967  71.1426334  25.6219061 127.5321703  71.2908969  26.2083691
 127.9532711  71.4034599  24.7585810 136.2183630  80.6842312  25.4199451
 136.5270756  80.4391459  26.2922150 137.0159112  80.8888950  24.9318321
 136.2404242  82.8380221  17.6504827 135.8009232  82.3456600  18.3437684
 136.9912359  82.2953189  17.4096903 128.7196581  79.0291762  17.6529455
 129.5454601  78.7295534  17.2728099 128.3690633  78.2599385  18.1019244
 133.6878114  78.3818230  19.7227129 133.0658123  77.7188935  19.4229357
 134.3582981  78.4079362  19.0400777 126.9205186  76.9478089  18.6118389
 126.0837094  76.5200263  18.4302390 126.8928831  77.1410532  19.5489180
 133.7602641  66.8600018  29.3159635 133.8090797  67.7362141  28.9337405
 134.3025155  66.3177412  28.7431278 141.6559124  70.2364536  27.2252807
 142.5568987  70.0971001  26.9336805 141.7307099  70.4018991  28.1650985
 135.9901930  67.6131391  26.0705994 135.1205239  67.9064957  25.7988582
 136.2261410  68.1971836  26.7913257 131.0044254  72.9587331  14.2046658
 130.7590296  72.0549661  14.4026869 131.1740168  72.9604482  13.2626136
 138.6940964  63.8311008  23.5871414 139.2122907  64.5672035  23.2617903
 138.3396096  64.1375001  24.4218173 130.2739901  68.6915689  11.7032820
 129.5809146  68.7660044  11.0472856 130.0291653  67.9276033  12.2254337
 138.9453558  60.2511290  19.1072311 139.2255311  59.5834479  19.7332737
 139.7304165  60.4440386  18.5946974 140.8376796  65.7584508  23.0403287
 140.2426728  66.0389520  22.3449775 140.5526492  66.2478408  23.8120028
 137.0172517  74.8148843  29.4714046 137.9375527  74.9927442  29.6654093
 136.9822100  73.8704888  29.3193746 126.2354682  70.0087437  18.3967321
 125.9157467  69.1552745  18.1041695 125.6888110  70.2236015  19.1525288
 130.0134590  72.7249878  22.1136828 130.2320600  73.6566986  22.1324861
 130.4260364  72.3657852  22.8991631 136.9338808  63.2317963  14.1012516
 136.1239536  62.8865048  14.4767762 137.6223225  62.9225507  14.6900127
 134.8862455  68.2983084  31.5039576 134.7859182  69.2477441  31.4351668
 134.6683997  67.9701322  30.6315647 126.1042942  73.6290348  20.3660443
 125.4106414  73.2144301  19.8530397 126.8515933  73.6710885  19.7693862
 134.7493725  71.7280222  30.3204638 134.2660807  72.5280583  30.5268527
 134.8354664  71.7388167  29.3672082 128.0179685  73.5608602  18.2426457
 127.9950373  73.6596289  17.2908341 128.3280321  74.4073753  18.5643624
 130.6767063  75.6184757  22.3573072 131.6310316  75.5868699  22.2903003
 130.4779586  75.1575381  23.1723298 131.2666445  74.1885873  24.9243870
 132.0859334  74.6829952  24.9478707 131.5403252  73.2717841  24.8961437
 129.0317291  81.1604377  19.3743270 128.8971759  80.4004777  18.8081268
 128.6149354  81.8845276  18.9072059 140.9974065  72.0951161  14.5022115
 140.9409266  72.5519713  13.6629748 141.5502407  71.3341846  14.3244958
 132.1886417  82.0573694  19.5861712 132.0718801  83.0019126  19.4840403
 131.3678864  81.7547255  19.9747512 126.5201359  68.5224007  25.6236067
 127.1660223  68.0122961  26.1123292 126.3118510  69.2592689  26.1979492
 139.0454751  75.5904854  31.1228207 139.9145911  75.7645507  30.7614842
 138.5661503  76.4099271  31.0003937 133.2140931  82.7101956  22.8017641
 134.1168178  82.7425566  23.1184136 132.9878302  81.7802406  22.8163977
 134.9694533  81.4632942  19.4627719 134.0190164  81.4634804  19.3492092
 135.2727020  80.7165677  18.9463754 130.8598850  65.6691624  29.7211081
 131.7230312  65.3128429  29.9314405 130.2864261  65.3305519  30.4086485
 137.7182283  84.6953861  21.7096716 137.9690322  85.5800871  21.9754292
 138.2541832  84.5158463  20.9371808 141.4789650  85.6786587  26.5839539
 141.3643165  84.7771844  26.8846638 140.6234168  85.9250284  26.2324355
 142.2574197  83.6492172  23.5142945 142.9297250  83.4409535  22.8655593
 141.4303983  83.4514258  23.0748177 139.7352050  82.7575960  22.6677695
 139.6510238  82.1501630  21.9328105 138.9134756  83.2484979  22.6687192
 134.5085304  85.9486357  20.5110139 134.5469403  85.4149948  21.3047257
 134.0025597  85.4221563  19.8921116 141.8876066  80.7950898  24.0072681
 141.9517392  81.6565729  23.5950079 141.8243186  80.1824899  23.2745040
 141.3628339  82.8674030  27.6545715 141.9900377  82.4851107  28.2683240
 140.5056257  82.6488232  28.0201408 138.3267700  87.3448355  22.7288904
 137.7821168  88.1208163  22.8609178 139.2047049  87.6919159  22.5708025
 139.1133721  86.4718251  25.6219061 138.3715457  86.6200887  26.2083691
 138.7926466  86.7326517  24.7585810 142.1060199  89.5177791  24.9243870
 142.9253088  90.0121870  24.9478707 142.3797007  88.6009759  24.8961437
 137.3595114  83.8515925  25.6236067 138.0053977  83.3414879  26.1123292
 137.1512265  84.5884606  26.1979492 141.6992605  80.9983542  29.7211081
 142.5624066  80.6420347  29.9314405 141.1258015  80.6597437  30.4086485
   3.9084351  77.2974215 111.4342519   4.6409523  76.7273432 111.6680348
   3.1523707  76.9095815 111.8749024   1.4309771  71.0095789 115.8937127
   1.0993096  71.8791200 115.6698342   0.8355385  70.6932073 116.5731158
   1.3238435  75.7290875 112.9730478   0.4155312  75.6606284 112.6789239
   1.2726030  76.2062820 113.8012303   3.1900081  73.9307314 114.7508351
   2.5474461  74.2239847 114.1048146   2.6855010  73.8160234 115.5561548
   0.8440245  77.6770487 105.4394211   1.7558101  77.9097874 105.2641908
   0.3349892  78.2607531 104.8769289   3.3299059  83.5950743 110.1852156
   2.6450097  83.9749644 109.6349189   3.4142908  84.2046070 110.9184104
   0.5849990  81.2410702 116.7847499   0.7966886  81.8842462 116.1081881
   0.5379739  80.4073019 116.3169430   1.6995818  84.1182658 114.9569857
   2.5213262  83.7162845 114.6752538   1.6958221  84.0150892 115.9085973
   9.7901811  80.4621406 111.3054828   9.0365520  79.8928804 111.1498833
   9.9249353  80.4284070 112.2525463   3.4677460  81.6006336 105.9534050
   2.6906903  81.2617495 105.5089212   4.1468941  81.6058959 105.2789015
   1.7068767  81.0740317 112.6100658   1.0492441  81.7639579 112.6980786
   2.5109166  81.4636749 112.9534644   0.5174226  79.4284690 110.6604599
   1.0306107  80.0614682 111.1626309   1.1675450  78.8285885 110.2947959
   1.2836022  84.4090691 108.7883742   0.8298349  83.5681601 108.8448933
   0.6529989  85.0452090 109.1258522   0.3280569  68.1158929 110.6126179
   0.6339446  67.2556293 110.3252094   1.0533174  68.7076550 110.4125173
   3.8665957  80.6150043 108.4156972   3.7283856  80.8051638 107.4878161
   3.5102176  81.3769425 108.8725023   3.8935337  82.6826570 113.4268243
   4.3271843  82.5901859 114.2751297   4.6066917  82.6584070 112.7888259
   4.7550886  82.7250270 115.9601129   4.9486776  83.6296081 116.2060403
   4.6551504  82.2657689 116.7939714   1.5258201  85.9076135 119.6118491
   1.4670748  85.2235356 118.9449074   1.9277720  86.6495125 119.1599117
   1.5275609  83.8715719 117.8432471   0.6402388  83.5341641 117.9658870
   2.0974160  83.1398751 118.0801236   6.0092949  79.2823937 112.6049032
   5.9982826  80.1648652 112.2342965   5.1410329  78.9295488 112.4103569
   2.6265524  78.1772578 109.0719198   3.0925976  79.0100569 108.9979501
   3.0773024  77.7117559 109.7764457   0.9682852  87.1502066 112.2346104
   1.8929399  86.9444927 112.0970555   0.7998155  86.9018467 113.1435446
   0.7578168  87.6687733 107.5908195   0.9315046  87.1034156 106.8382048
   1.2507059  88.4688628 107.4087685   6.6117559  80.4324156 109.2098495
   7.0548705  79.6831481 108.8117618   5.7344070  80.4234293 108.8272227
   1.7453341  86.9854498 104.6905094   2.4404245  87.6061190 104.9092408
   2.0876491  86.1349849 104.9657472   3.6444764  84.4354203 106.2192425
   4.1696088  84.7741476 105.4941745   3.5567116  83.5001218 106.0355559
   3.3338670  85.0687107 121.5243622   2.5434213  85.0511246 120.9848122
   3.0972024  85.6075400 122.2792659   3.4536545  81.9179573 118.8376351
   3.5034550  81.7529581 119.7791874   3.3450468  81.0506832 118.4474232
   0.7440307  77.9010501 120.1535658   1.6450170  77.7616966 119.8619656
   0.8188282  78.0664956 121.0933835   4.9554742  84.3376515 119.0818373
   4.6639550  84.7006495 119.9181834   4.3426873  83.6243523 118.9031705
   6.1550424  81.9029394 111.6020943   6.9897315  82.3419199 111.7658503
   6.2909553  81.4268048 110.7829189   3.2041930  79.4609129 117.5498431
   3.6796051  79.6536776 116.7417282   2.2807495  79.5168315 117.3041814
   1.9043599  76.3374889 115.7826736   2.8561022  76.4372987 115.8038960
   1.7347049  75.5453158 116.2924821   1.6853485  86.6919270 101.6892717
   1.6067117  86.3579133 102.5828475   2.5063152  87.1841038 101.6884190
   4.3831677  79.5581009 114.8969036   4.3507997  78.6197010 115.0828720
   4.9932300  79.6365046 114.1634861   4.5326165  76.3492053 114.9427319
   4.0165214  75.5650509 114.7557248   5.4166114  76.0210769 115.1073838
   2.1936892  70.0933068 110.9023132   1.9961713  69.7848156 111.7866464
   2.8036598  70.8194707 111.0321062  10.2008227  80.6197016 114.0375073
  10.9311615  80.3582304 114.5982776   9.5915172  79.8825738 114.0777141
   8.2823524  78.7604879 114.6349524   7.5556687  78.6260843 114.0266015
   7.8670811  79.0681707 115.4406242   1.3289346  72.0842500 108.1598327
   0.7488015  72.7427304 107.7776380   1.0625278  71.2619845 107.7485745
   3.4628760  74.2689112 110.9309015   4.2389150  74.7585564 111.2033632
   2.7376894  74.6947166 111.3880884   5.9001319  74.9816731 111.9882955
   6.4945809  74.7412467 111.2776264   5.9727902  74.2623861 112.6156492
   3.8960053  75.5486858 108.2555085   3.6396988  75.1483494 109.0863293
   3.2712922  76.2630652 108.1305224   8.2072391  78.2882932 110.7626377
   7.6471949  78.3576121 111.5357939   7.6015895  78.1123916 110.0425873
   1.1644135  84.4469794 103.3601156   1.9989739  84.0150993 103.1778630
   1.0028478  84.2751808 104.2878050   9.7928410  94.9639446 113.4556332
  10.4306820  94.8446193 112.7519672   9.6749253  95.9120289 113.5144284
   6.6018116  94.9166874 113.3917857   6.2636628  94.8007938 112.5038392
   7.4707884  94.5158039 113.3718863   2.4604932  96.7702350 109.3814748
   1.8969797  96.6792287 108.6131036   2.3457327  95.9502254 109.8617240
   7.0837899  96.0701725 119.3504063   7.0726540  95.6754524 118.4784566
   7.2458539  95.3367798 119.9437834   8.0404490 100.4373318 104.6929213
   7.3892470 101.0227398 104.3063227   8.8348853 100.9679513 104.7524250
   1.9660118  97.5262455 105.0916347   2.7390994  96.9791442 104.9529223
   2.3185516  98.3906704 105.3030809   4.7301367  96.2315686 114.8884606
   5.3264939  96.0071708 114.1741569   4.7876339  95.4900431 115.4910054
   4.3026395  93.6855121 102.7234797   4.5551916  93.1636642 101.9618260
   3.3650955  93.5221266 102.8261481   9.3469678  92.6890899 110.5309540
  10.1332767  92.2710323 110.1799957   9.6108383  93.5936992 110.6991189
   9.5179756  98.1263750 105.2298197   8.8825589  98.1998376 105.9419102
   9.1877162  98.7157348 104.5517276  14.7478105  92.6266133 111.4342519
  15.4803277  92.0565349 111.6680348  13.9917461  92.2387733 111.8749024
   4.0222684  95.5883227 104.9259172   3.9058942  94.9128130 105.5940256
   4.1324944  95.1015601 104.1091325   6.3654225  95.0493374 108.6305861
   6.0012432  94.5223995 109.3418783   7.2221341  94.6591843 108.4572347
  12.2703526  86.3387707 115.8937127  11.9386851  87.2083118 115.6698342
  11.6749139  86.0223991 116.5731158   6.0059712  90.0783274 103.6267210
   6.1734114  90.9463510 103.9937681   5.8156881  90.2410555 102.7028499
   8.7635045  98.5400253 115.2933040   8.4635768  99.4425291 115.1848847
   8.4186105  98.2732436 116.1454193   2.2147527  94.9914049 111.3269745
   1.2898023  94.8590264 111.5347436   2.4631940  95.7708269 111.8239687
  12.1632189  91.0582793 112.9730478  11.2549066  90.9898201 112.6789239
  12.1119785  91.5354738 113.8012303   5.9848933  92.5340931 104.6113877
   5.8648558  92.9797982 105.4499357   5.2901521  92.8826249 104.0527415
   3.7455825 105.3044573 108.2604008   3.6679855 106.2552398 108.3392488
   3.1417469 104.9590446 108.9178934   6.2373055  92.4772438 120.9165375
   5.4606389  93.0366359 120.9068239   6.8763618  92.9629221 121.4380245
  14.0293835  89.2599231 114.7508351  13.3868216  89.5531764 114.1048146
  13.5248764  89.1452152 115.5561548  11.6833999  93.0062404 105.4394211
  12.5951855  93.2389791 105.2641908  11.1743646  93.5899449 104.8769289
   9.9674767  97.4287032 119.0755503  10.3758123  96.9869443 118.3310136
   9.2452028  96.8539660 119.3289696   6.3205837  92.3659639 116.4489060
   7.1667032  92.7899053 116.5923709   6.2604475  91.7093263 117.1427623
  10.2903581  97.9888223 112.8307792   9.6612444  98.1533937 112.1283860
   9.9029244  98.4029832 113.6018756  14.1692813  98.9242661 110.1852156
  13.4843851  99.3041562 109.6349189  14.2536663  99.5337987 110.9184104
   9.4705282  90.0264007 118.1070234   9.2266214  90.7806068 117.5704510
   9.7465213  90.4049355 118.9417481  11.4243745  96.5702620 116.7847499
  11.6360640  97.2134380 116.1081881  11.3773493  95.7364936 116.3169430
   9.0269974  89.1820440 113.6884072   8.1654453  89.4801694 113.9800809
   9.0532409  89.3990839 112.7565104   5.8431543  97.7262631 110.0957877
   6.3069889  98.0050334 109.3062500   5.5788341  96.8246076 109.9130968
   2.7355624  97.2734113 113.0337641   3.3056981  97.7021381 112.3955125
   3.3263736  96.9916697 113.7321826   4.7800429  93.8485783 106.9047442
   5.4824473  94.3006827 107.3721369   4.4481058  93.2069602 107.5327336
  12.5389573  99.4474575 114.9569857  13.3607017  99.0454762 114.6752538
  12.5351976  99.3442809 115.9085973   6.3046176  98.9958618 117.1130567
   6.3690609  99.4579026 117.9488739   5.5957100  98.3655983 117.2412877
  20.6295566  95.7913324 111.3054828  19.8759274  95.2220722 111.1498833
  20.7643107  95.7575988 112.2525463   6.0194194 100.6626726 106.9809548
   5.8839869 101.5078262 107.4094395   6.5604006 100.8646004 106.2175481
   1.2818476 101.2967920 109.6360226   1.4585104 102.2185885 109.4481210
   2.0775310 100.9826339 110.0654606   5.4229495  88.1576185 121.2344159
   6.1639208  88.7583338 121.1548622   5.6547417  87.4153823 120.6762202
   9.7443908 101.5653092 119.1391291   9.7262384 102.3861973 118.6471560
  10.6663828 101.4407168 119.3641432   9.3686658  84.1857288 115.5108441
   9.0250927  85.0758930 115.4347552   9.7365620  83.9958945 114.6478026
   9.3336940  94.1765899 104.0180876   8.8183564  94.9470504 104.2569264
   9.0614249  93.5031035 104.6413938   6.9184051  89.0215600 109.0766115
   6.0625648  88.6322450 108.8971753   7.3311003  89.1007561 108.2165900
   8.4483198  86.5561943 113.4757674   7.9447994  86.5192078 112.6625480
   8.7413805  87.4654686 113.5354331   4.6926084  86.6400673 112.4823856
   5.5579081  86.4443481 112.1229746   4.7603593  86.4111024 113.4093213
  14.3071214  96.9298254 105.9534050  13.5300657  96.5909413 105.5089212
  14.9862695  96.9350877 105.2789015   9.1223243  92.0492991 105.8440657
   8.8173379  92.3639140 106.6950801  10.0753686  92.1274411 105.8867990
   7.5669675  98.2083214 107.4933611   7.0391037  97.4735974 107.1806849
   7.0657178  98.9857891 107.2473580  12.5462521  96.4032235 112.6100658
  11.8886196  97.0931496 112.6980786  13.3502921  96.7928667 112.9534644
   2.2988403  88.8702881 109.8540223   2.8732155  88.6478062 109.1213416
   2.8859385  88.9391575 110.6068824  11.3567980  94.7576608 110.6604599
  11.8699862  95.3906599 111.1626309  12.0069204  94.1577803 110.2947959
   2.6257990  90.9007342 103.8736108   1.7895302  91.2382028 104.1945383
   2.4862760  90.7656321 102.9363245   4.6011071  85.7444130 108.5815292
   3.9475483  85.4293147 107.9571907   4.5591545  85.1219870 109.3075115
   5.7122275  96.0263425 100.4968584   4.8049337  95.7952678 100.6959733
   6.2093307  95.2301044 100.6842566   8.6190354 104.7360932 103.4165271
   7.9452053 105.0392629 104.0250228   9.0056176 105.5390012 103.0670728
   7.8348811  92.2326063 112.9062940   6.9171372  92.4541010 112.7484628
   8.2508955  92.3072374 112.0474647   8.6183859  93.6317479 108.0365620
   9.3655678  94.1438876 107.7272742   8.8875448  93.3101531 108.8970014
   6.8910509  96.1276019 105.0192574   5.9821728  95.8435052 105.1165044
   6.9205593  96.5475098 104.1595881  12.1229776  99.7382609 108.7883742
  11.6692103  98.8973519 108.8448933  11.4923743 100.3744007 109.1258522
  11.0662696  90.6674595 110.0184410  10.3285453  90.1551981 110.3494652
  11.3189469  90.2274977 109.2067686  10.5662716 101.5759106 109.7233560
  10.8585690 102.1364163 109.0045926  11.0761336 101.8687667 110.4786719
  11.1674323  83.4450847 110.6126179  11.4733200  82.5848210 110.3252094
  11.8926928  84.0368467 110.4125173   5.4395403  93.7404640 111.1202370
   5.4944013  92.7878476 111.0444846   4.6286605  93.8964079 111.6043668
   6.5886597  97.6684763 102.3580653   6.1506027  96.9520622 101.8986290
   7.3297038  97.8960878 101.7965744   3.3787763  92.3581700 108.8792749
   2.5655628  92.6575870 109.2857941   3.8746757  91.9637389 109.5967231
   5.5296341 102.3539457 110.8127013   5.4872520 102.5800303 109.8835545
   6.4459040 102.1202831 110.9612815   8.9761975  92.8223524 117.7107643
   9.3311362  93.0494997 118.5702108   9.6234106  93.1541901 117.0884898
  14.7059711  95.9441960 108.4156972  14.5677610  96.1343556 107.4878161
  14.3495930  96.7061343 108.8725023   2.8701838  89.9300055 114.4953984
   3.5101217  89.7888814 113.7976947   2.0379368  89.6434569 114.1192586
  14.7329091  98.0118487 113.4268243  15.1665598  97.9193776 114.2751297
  15.4460672  97.9875988 112.7888259   3.6462142  99.2302486 110.6088976
   4.4402740  98.7352806 110.4071551   2.9353834  98.7020349 110.2456682
   8.4656986 101.6120581 114.9601344   8.5194008 102.1811518 115.7279060
   7.5971767 101.7822466 114.5955381   1.3455379  91.3138138 116.4425795
   2.0178433  91.1055500 115.7938444   0.5185166  91.1160224 116.0031027
  15.5944641  98.0542188 115.9601129  15.7880531  98.9587998 116.2060403
  15.4945259  97.5949607 116.7939714   7.2480951  87.9400078 118.4591456
   6.6008866  88.6390028 118.3655932   8.0181967  88.3736222 118.8267704
  10.6559749  98.2048931 121.5342009  10.5045256  97.9759482 120.6172093
  10.6464429  99.1619532 121.5473354   7.4245086  95.7780843 116.5188276
   8.3537146  95.9292003 116.3457243   7.0036116  95.8664864 115.6636922
   6.2233418  99.8031508 114.2886813   6.0844503  99.4350292 115.1612751
   5.4348014 100.3179147 114.1170771   6.8181570 104.9040604 105.6312350
   6.9933325 104.4328647 106.4457972   6.1314358 105.5306370 105.8593610
   7.7738633  99.1813110 111.6775651   7.4388465  99.1413880 112.5733301
   7.2742578  98.5157826 111.2046061   1.7482877  94.5880740 117.2028232
   1.6102675  93.8560979 117.8039771   2.6587800  94.4989641 116.9212420
  10.7097824  96.5269145 101.9512711  10.0926995  95.8015973 101.8545763
  10.2414313  97.2878505 101.6079785   4.3765177  94.3000700 116.6911912
   5.0864796  93.6593892 116.6498530   4.3334485  94.5513595 117.6138093
  12.3651956 101.2368053 119.6118491  12.3064502 100.5527273 118.9449074
  12.7671474 101.9787043 119.1599117   3.0894111  91.2865918 118.5107551
   2.5531468  90.8356656 119.1629148   2.5010820  91.4211827 117.7678016
   2.4996370  90.7454569 101.0734015   1.6225837  90.6243370 100.7096262
   2.9754123  89.9540647 100.8212904  12.3669363  99.2007637 117.8432471
  11.4796142  98.8633559 117.9658870  12.9367914  98.4690668 118.0801236
   5.8970517 103.8609089 114.8093714   5.8240688 104.6664061 115.3213018
   5.4547910 104.0601055 113.9841735   5.6860296 103.0980859 108.3196535
   4.9027818 103.6402540 108.4134760   6.3853041 103.6154839 108.7190777
   8.9956946  88.9075489 110.9630741   9.4925646  88.1545451 110.6431811
   8.2243928  88.9439806 110.3973950  16.8486704  94.6115854 112.6049032
  16.8376580  95.4940570 112.2342965  15.9804083  94.2587405 112.4103569
   8.3569200 103.7595923 116.9651873   9.0697172 104.3943388 116.8927774
   7.8659229 103.8559789 116.1491874  10.0786727  97.6647176 108.5369164
   9.1443006  97.7848639 108.3673869  10.2563396  96.7619643 108.2729174
   5.5791915  91.0492872 110.6902425   5.2089703  90.4963912 111.3783331
   6.0751008  90.4451005 110.1377425  13.4659278  93.5064495 109.0719198
  13.9319731  94.3392487 108.9979501  13.9166779  93.0409477 109.7764457
  11.5335510  99.8508317 106.0705350  11.8095353  99.7364911 106.9799224
  10.6640008  99.4525802 106.0317523  11.4375941  85.8745082 113.1110100
  10.5239021  86.1049309 113.2792307  11.8669043  85.9583526 113.9624132
  11.2082400  94.0634974 115.6109994  10.5553850  94.3110882 114.9562446
  11.5862780  93.2499113 115.2772471   8.1689574 104.0994668 109.7138164
   8.3511968 103.2816323 110.1765916   8.9922560 104.3162360 109.2763054
   8.5031739 103.0262853 106.9753213   9.0319505 102.5155307 106.3623375
   8.7659959 102.7105383 107.8398746   7.2569973  94.8054785 122.0976031
   6.5810610  94.7048915 122.7678406   8.0797607  94.6493999 122.5612028
   1.8587487 104.0777969 109.7350988   1.1897862 104.5624097 109.2515028
   1.7200357 104.3247190 110.6494367   0.9757249  88.4596863 116.9355532
   1.0398575  89.3211694 116.5232929   0.9124369  87.8470864 116.2027890
   9.1361143 104.0603688 113.3197329   9.0112282 103.2593428 112.8108274
   9.7940234 104.5549882 112.8311299  11.1996051 101.8612709 114.9476879
  10.2526387 101.7418060 114.8755206  11.5478824 100.9735207 115.0303140
   3.5595625  87.7506847 118.7715121   4.0830026  87.9969144 119.5341430
   3.3407958  88.5826882 118.3518258   8.2042485 101.6565425 111.1481231
   8.0567447 100.7282132 111.3288801   9.0295978 101.6785515 110.6638307
   2.0704729  90.3083492 107.0061723   2.4100801  90.8369413 106.2840332
   2.5176849  90.6463898 107.7820290  11.8076606 102.4793983 112.2346104
  12.7323154 102.2736845 112.0970555  11.6391910 102.2310385 113.1435446
   4.7648170  88.6920543 116.4564791   4.4244990  87.8928356 116.8585471
   4.0587176  88.9922253 115.8841625   5.4164641  85.7769855 114.9092114
   6.2390711  85.3030333 114.7871005   5.6602705  86.5560339 115.4090801
   4.0572876  88.8058113 105.2055016   4.7781238  89.1839366 104.7018733
   3.4338180  89.5246990 105.3089994   8.2003999  89.5103262 106.1413349
   8.4167613  90.3927900 105.8402177   7.7198066  89.1189476 105.4118991
   2.9403220  92.4688976 112.7184093   2.7947801  92.7829279 113.6108375
   2.4628424  93.0873876 112.1654992   4.7999603  89.4591524 112.7664983
   4.7861172  88.5632617 112.4297281   5.5172031  89.4662187 113.4003269
   6.6525734  89.8928864 114.8118110   6.3943512  90.8145934 114.8102441
   6.1210774  89.4959298 115.5018574  11.5971923 102.9979651 107.5908195
  11.7708800 102.4326073 106.8382048  12.0900814 103.7980546 107.4087685
   4.2036499  88.3405904 108.0352553   4.3252410  87.4122550 108.2343440
   3.9138541  88.3544590 107.1230868   7.0727689  86.0260814 111.1719273
   7.0949386  86.0900147 110.2171252   7.4895748  85.1865323 111.3659779
  17.4511314  95.7616074 109.2098495  17.8942460  95.0123399 108.8117618
  16.5737824  95.7526210 108.8272227  12.5847095 102.3146415 104.6905094
  13.2798000 102.9353108 104.9092408  12.9270245 101.4641767 104.9657472
  14.4838518  99.7646121 106.2192425  15.0089842 100.1033394 105.4941745
  14.3960871  98.8293136 106.0355559   6.1679179 105.8318104 110.5787678
   5.7284169 105.3394483 111.2720534   6.9187296 105.2891072 110.3379753
   3.6153051 101.3756113 112.6509979   2.9933060 100.7126818 112.3512207
   4.2857918 101.4017245 111.9683627   3.6877579  89.8537901 122.2442485
   3.7365734  90.7300024 121.8620255   4.2300093  89.3115294 121.6714129
  14.1732424 100.3979024 121.5243622  13.3827968 100.3803163 120.9848122
  13.9365779 100.9367318 122.2792659  14.2930299  97.2471491 118.8376351
  14.3428304  97.0821498 119.7791874  14.1844223  96.3798750 118.4474232
   3.1766558  99.9260037 106.1268440   3.3254678 100.6095501 105.4735113
   3.9833001  99.9065127 106.6417896  11.5834062  93.2302419 120.1535658
  12.4843924  93.0908884 119.8619656  11.6582036  93.3956874 121.0933835
   5.9176867  90.6069274 118.9988844   5.0480176  90.9002840 118.7271433
   6.1536347  91.1909719 119.7196108  15.7948496  99.6668432 119.0818373
  15.5033304 100.0298413 119.9181834  15.1820627  98.9535441 118.9031705
  16.9944178  97.2321312 111.6020943  17.8291070  97.6711116 111.7658503
  17.1303307  96.7559965 110.7829189  14.0435684  94.7901047 117.5498431
  14.5189806  94.9828693 116.7417282  13.1201250  94.8460233 117.3041814
   0.9319191  95.9525214 107.1329509   0.6865233  95.0487544 107.3309719
   1.1015106  95.9542365 106.1908987   8.6215901  86.8248891 116.5154264
   9.1397845  87.5609917 116.1900753   8.2671034  87.1312884 117.3501024
   8.8728495  83.2449173 112.0355161   9.1530249  82.5772362 112.6615588
   9.6579102  83.4378269 111.5229825   6.6761964 102.4208167 103.5980187
   6.1035931 103.0398354 103.1450659   7.2494757 102.9707529 104.1320109
  12.7437353  91.6666807 115.7826736  13.6954776  91.7664905 115.8038960
  12.5740804  90.8745076 116.2924821  10.7651733  88.7522390 115.9686137
  10.1701665  89.0327403 115.2732626  10.4801430  89.2416291 116.7402878
   9.8959223 102.7045317 104.7288770  10.8289896 102.6390879 104.9321645
   9.8082436 103.5401584 104.2703302  12.5247240 102.0211187 101.6892717
  12.4460872 101.6871051 102.5828475  13.3456907 102.5132955 101.6884190
  15.2225431  94.8872927 114.8969036  15.1901751  93.9488928 115.0828720
  15.8326055  94.9656963 114.1634861   7.0608762  93.7568980 100.9396240
   8.0067867  93.6275188 101.0084658   6.6823007  93.0183642 101.4165668
  15.3719920  91.6783970 114.9427319  14.8558968  90.8942427 114.7557248
  16.2559868  91.3502687 115.1073838  13.0330647  85.4224986 110.9023132
  12.8355468  85.1140074 111.7866464  13.6430352  86.1486625 111.0321062
  21.0401981  95.9488934 114.0375073  21.7705369  95.6874222 114.5982776
  20.4308926  95.2117656 114.0777141  19.1217278  94.0896796 114.6349524
  18.3950442  93.9552761 114.0266015  18.7064565  94.3973625 115.4406242
   5.2451679  91.6818956 100.8751125   4.3383135  91.3852069 100.9513839
   5.5227660  91.3848774 100.0085411   6.8613745  86.2255846 107.0295366
   6.0514473  85.8802931 107.4050612   7.5498162  85.9163390 107.6182978
   8.7904293  85.3033893 108.6519663   9.3435332  85.7229346 109.3109686
   9.0274380  84.3769641 108.6942619   4.0150464  88.5405891 101.0163104
   4.8769628  88.8660790 101.2758922   4.2000808  87.7537387 100.5036170
  12.1683100  87.4134418 108.1598327  11.5881769  88.0719222 107.7776380
  11.9019033  86.5911762 107.7485745  10.6186667  86.8139476 110.3619648
  11.1186445  86.9256010 109.5533966  11.2622275  86.5100528 111.0020456
  10.9507978  89.5734508 107.2154676  10.0633833  89.8584159 106.9974870
  11.3661967  89.4128272 106.3681952  14.3022514  89.5981029 110.9309015
  15.0782905  90.0877482 111.2033632  13.5770649  90.0239083 111.3880884
  16.7395073  90.3108648 111.9882955  17.3339564  90.0704384 111.2776264
  16.8121657  89.5915779 112.6156492  10.0951192  99.3379183 101.3102696
  10.7987042  99.5429185 101.9260351   9.3713841  99.9055945 101.5751779
  10.9249002  95.0889044 107.4304966  10.8684203  95.5457596 106.5912598
  11.4777345  94.3279729 107.2527808  14.7353808  90.8778776 108.2555085
  14.4790742  90.4775412 109.0863293  14.1106676  91.5922570 108.1305224
  19.0466146  93.6174849 110.7626377  18.4865704  93.6868039 111.5357939
  18.4409649  93.4415834 110.0425873  12.0037889  99.7761712 103.3601156
  12.8383493  99.3442911 103.1778630  11.8422232  99.6043726 104.2878050
  11.6583781  96.2793825 104.7257495  11.6032585  96.1138097 103.7845939
  11.0329837  96.9869858 104.8819685   4.9679907  85.7801934 104.3042813
   4.9558577  86.7243774 104.4611084   5.8603329  85.5972080 104.0102274
   4.8969471 104.4570825 112.3910570   3.9465102 104.4572686 112.2774942
   5.2001957 103.7103559 111.8746605   8.7832026  82.3744711 108.5588750
   8.0164422  81.8203198 108.7045432   9.1942731  82.4466580 109.4202902
  20.6322164 110.2931363 113.4556332  21.2700574 110.1738111 112.7519672
  20.5143007 111.2412207 113.5144284  17.4411871 110.2458791 113.3917857
  17.1030382 110.1299856 112.5038392  18.3101639 109.8449956 113.3718863
  13.2998686 112.0994268 109.3814748  12.7363551 112.0084205 108.6131036
  13.1851081 111.2794172 109.8617240  17.9231654 111.3993643 119.3504063
  17.9120294 111.0046441 118.4784566  18.0852293 110.6659716 119.9437834
  10.8463118 113.5945459 112.2198968  11.6384410 113.2536284 111.8045268
  11.0859768 113.7040434 113.1401122  18.8798245 115.7665235 104.6929213
  18.2286225 116.3519316 104.3063227  19.6742608 116.2971430 104.7524250
  12.8053872 112.8554373 105.0916347  13.5784748 112.3083360 104.9529223
  13.1579271 113.7198622 105.3030809  15.5695122 111.5607603 114.8884606
  16.1658694 111.3363626 114.1741569  15.6270093 110.8192349 115.4910054
  15.1420150 109.0147039 102.7234797  15.3945671 108.4928560 101.9618260
  14.2044709 108.8513184 102.8261481  20.1863433 108.0182817 110.5309540
  20.9726522 107.6002240 110.1799957  20.4502137 108.9228909 110.6991189
  20.3573510 113.4555667 105.2298197  19.7219343 113.5290294 105.9419102
  20.0270917 114.0449266 104.5517276  25.5871860 107.9558050 111.4342519
  26.3197032 107.3857267 111.6680348  24.8311216 107.5679651 111.8749024
  14.8616439 110.9175145 104.9259172  14.7452697 110.2420048 105.5940256
  14.9718699 110.4307519 104.1091325  17.2047980 110.3785292 108.6305861
  16.8406187 109.8515913 109.3418783  18.0615096 109.9883761 108.4572347
  23.1097280 101.6679624 115.8937127  22.7780605 102.5375035 115.6698342
  22.5142894 101.3515908 116.5731158  16.8453467 105.4075191 103.6267210
  17.0127869 106.2755428 103.9937681  16.6550636 105.5702473 102.7028499
  19.6028800 113.8692170 115.2933040  19.3029523 114.7717209 115.1848847
  19.2579859 113.6024354 116.1454193  13.0541281 110.3205967 111.3269745
  12.1291778 110.1882181 111.5347436  13.3025694 111.1000186 111.8239687
  23.0025944 106.3874711 112.9730478  22.0942821 106.3190119 112.6789239
  22.9513539 106.8646655 113.8012303  16.8242687 107.8632849 104.6113877
  16.7042313 108.3089900 105.4499357  16.1295276 108.2118167 104.0527415
  10.4150092 109.9639241 112.1613534  10.5442473 110.2173720 113.0752945
   9.7347544 110.5566949 111.8418189  14.5849580 120.6336491 108.2604008
  14.5073609 121.5844316 108.3392488  13.9811223 120.2882363 108.9178934
  17.0766809 107.8064356 120.9165375  16.3000143 108.3658276 120.9068239
  17.7157372 108.2921139 121.4380245  24.8687590 104.5891149 114.7508351
  24.2261970 104.8823682 114.1048146  24.3642518 104.4744069 115.5561548
  22.5227754 108.3354322 105.4394211  23.4345610 108.5681709 105.2641908
  22.0137401 108.9191366 104.8769289  20.8068521 112.7578950 119.0755503
  21.2151877 112.3161360 118.3310136  20.0845783 112.1831577 119.3289696
  17.1599591 107.6951557 116.4489060  18.0060787 108.1190970 116.5923709
  17.0998229 107.0385181 117.1427623  21.1297336 113.3180141 112.8307792
  20.5006198 113.4825855 112.1283860  20.7422998 113.7321750 113.6018756
  25.0086568 114.2534578 110.1852156  24.3237606 114.6333480 109.6349189
  25.0930417 114.8629905 110.9184104  20.3099037 105.3555925 118.1070234
  20.0659969 106.1097986 117.5704510  20.5858967 105.7341273 118.9417481
  22.2637499 111.8994537 116.7847499  22.4754395 112.5426297 116.1081881
  22.2167248 111.0656854 116.3169430  19.8663728 104.5112358 113.6884072
  19.0048207 104.8093612 113.9800809  19.8926163 104.7282757 112.7565104
  16.6825298 113.0554549 110.0957877  17.1463643 113.3342252 109.3062500
  16.4182096 112.1537993 109.9130968  13.5749379 112.6026030 113.0337641
  14.1450736 113.0313299 112.3955125  14.1657491 112.3208615 113.7321826
  15.6194184 109.1777701 106.9047442  16.3218227 109.6298745 107.3721369
  15.2874812 108.5361520 107.5327336   9.3619518 107.4361254 112.2064576
   8.5718572 107.6918782 111.7304687   9.8530765 108.2509592 112.3116617
  23.3783327 114.7766493 114.9569857  24.2000771 114.3746680 114.6752538
  23.3745730 114.6734727 115.9085973  11.3134263 107.8005833 109.1648053
  10.5165426 107.9124527 109.6831548  11.0859855 108.1392485 108.2988943
  17.1439931 114.3250536 117.1130567  17.2084363 114.7870943 117.9488739
  16.4350855 113.6947901 117.2412877   7.6457221 107.6891744 114.6379567
   7.8965259 108.5738754 114.9037143   8.1816769 107.5096346 113.8654659
  31.4689320 111.1205241 111.3054828  30.7153029 110.5512639 111.1498833
  31.6036862 111.0867906 112.2525463  16.8587948 115.9918644 106.9809548
  16.7233623 116.8370179 107.4094395  17.3997761 116.1937921 106.2175481
  10.3117346 113.5094082 107.5537473  10.8241866 114.3037332 107.7043037
  10.9640059 112.8120372 107.4871074  12.1212231 116.6259838 109.6360226
  12.2978859 117.5477803 109.4481210  12.9169064 116.3118257 110.0654606
  16.2623249 103.4868103 121.2344159  17.0032962 104.0875256 121.1548622
  16.4941172 102.7445740 120.6762202  20.5837663 116.8945010 119.1391291
  20.5656138 117.7153891 118.6471560  21.5057583 116.7699085 119.3641432
  20.2080412  99.5149206 115.5108441  19.8644681 100.4050847 115.4347552
  20.5759375  99.3250863 114.6478026   8.2766263 111.8382736 108.3297043
   9.1141485 112.2479744 108.1130751   8.4544530 110.8982178 108.2997237
  20.1730695 109.5057817 104.0180876  19.6577318 110.2762421 104.2569264
  19.9008003 108.8322953 104.6413938  17.7577806 104.3507517 109.0766115
  16.9019402 103.9614368 108.8971753  18.1704758 104.4299478 108.2165900
  19.2876952 101.8853861 113.4757674  18.7841748 101.8483996 112.6625480
  19.5807559 102.7946603 113.5354331  15.5319838 101.9692590 112.4823856
  16.3972835 101.7735399 112.1229746  15.5997347 101.7402942 113.4093213
  25.1464969 112.2590171 105.9534050  24.3694412 111.9201331 105.5089212
  25.8256450 112.2642794 105.2789015  19.9616998 107.3784909 105.8440657
  19.6567134 107.6931058 106.6950801  20.9147440 107.4566329 105.8867990
  18.4063430 113.5375132 107.4933611  17.8784791 112.8027892 107.1806849
  17.9050933 114.3149808 107.2473580  23.3856276 111.7324153 112.6100658
  22.7279950 112.4223414 112.6980786  24.1896675 112.1220584 112.9534644
  13.1382157 104.1994798 109.8540223  13.7125909 103.9769980 109.1213416
  13.7253140 104.2683493 110.6068824  22.1961735 110.0868525 110.6604599
  22.7093616 110.7198517 111.1626309  22.8462958 109.4869721 110.2947959
  13.4651745 106.2299259 103.8736108  12.6289057 106.5673946 104.1945383
  13.3256514 106.0948239 102.9363245  15.4404825 101.0736047 108.5815292
  14.7869237 100.7585064 107.9571907  15.3985299 100.4511788 109.3075115
  16.5516030 111.3555342 100.4968584  15.6443092 111.1244596 100.6959733
  17.0487062 110.5592962 100.6842566  19.4584109 120.0652849 103.4165271
  18.7845808 120.3684546 104.0250228  19.8449931 120.8681930 103.0670728
  18.6742565 107.5617981 112.9062940  17.7565127 107.7832928 112.7484628
  19.0902709 107.6364291 112.0474647  19.4577613 108.9609396 108.0365620
  20.2049432 109.4730794 107.7272742  19.7269203 108.6393449 108.8970014
  17.7304263 111.4567937 105.0192574  16.8215483 111.1726970 105.1165044
  17.7599347 111.8767016 104.1595881  22.9623531 115.0674527 108.7883742
  22.5085858 114.2265437 108.8448933  22.3317498 115.7035925 109.1258522
  21.9056450 105.9966513 110.0184410  21.1679207 105.4843899 110.3494652
  22.1583224 105.5566894 109.2067686  21.4056470 116.9051023 109.7233560
  21.6979444 117.4656080 109.0045926  21.9155091 117.1979584 110.4786719
  22.0068078  98.7742765 110.6126179  22.3126955  97.9140128 110.3252094
  22.7320683  99.3660385 110.4125173   8.2992434 109.1773451 109.0007777
   8.1016834 108.5842812 108.2758843   7.7439098 108.8725661 109.7183715
  16.2789157 109.0696558 111.1202370  16.3337767 108.1170394 111.0444846
  15.4680359 109.2255997 111.6043668  17.4280351 112.9976681 102.3580653
  16.9899781 112.2812540 101.8986290  18.1690792 113.2252796 101.7965744
  14.2181517 107.6873618 108.8792749  13.4049383 107.9867788 109.2857941
  14.7140512 107.2929306 109.5967231  16.3690095 117.6831374 110.8127013
  16.3266274 117.9092221 109.8835545  17.2852794 117.4494749 110.9612815
  19.8155729 108.1515442 117.7107643  20.1705117 108.3786915 118.5702108
  20.4627860 108.4833819 117.0884898  25.5453466 111.2733878 108.4156972
  25.4071365 111.4635474 107.4878161  25.1889685 112.0353261 108.8725023
  13.7095592 105.2591973 114.4953984  14.3494971 105.1180732 113.7976947
  12.8773123 104.9726486 114.1192586  25.5722846 113.3410405 113.4268243
  26.0059352 113.2485694 114.2751297  26.2854426 113.3167905 112.7888259
  14.4855896 114.5594403 110.6088976  15.2796495 114.0644724 110.4071551
  13.7747588 114.0312267 110.2456682  19.3050741 116.9412499 114.9601344
  19.3587763 117.5103435 115.7279060  18.4365522 117.1114384 114.5955381
  10.7938659 108.7037485 106.6848729   9.8636248 108.6421941 106.9018691
  10.8896131 108.1813438 105.8885370  10.7124209 105.2292298 109.2726970
  10.9731026 106.1437631 109.1636131  11.5341381 104.7616741 109.4223583
  12.1849134 106.6430055 116.4425795  12.8572187 106.4347417 115.7938444
  11.3578920 106.4452141 116.0031027  26.4338395 113.3834106 115.9601129
  26.6274285 114.2879916 116.2060403  26.3339013 112.9241525 116.7939714
  18.0874706 103.2691996 118.4591456  17.4402621 103.9681946 118.3655932
  18.8575721 103.7028140 118.8267704  21.4953504 113.5340848 121.5342009
  21.3439010 113.3051400 120.6172093  21.4858183 114.4911450 121.5473354
  18.2638840 111.1072761 116.5188276  19.1930900 111.2583921 116.3457243
  17.8429870 111.1956782 115.6636922  17.0627172 115.1323425 114.2886813
  16.9238258 114.7642210 115.1612751  16.2741768 115.6471065 114.1170771
  17.6575324 120.2332522 105.6312350  17.8327080 119.7620565 106.4457972
  16.9708112 120.8598288 105.8593610  18.6132387 114.5105028 111.6775651
  18.2782220 114.4705798 112.5733301  18.1136333 113.8449744 111.2046061
  12.5876631 109.9172658 117.2028232  12.4496429 109.1852897 117.8039771
  13.4981555 109.8281558 116.9212420  21.5491579 111.8561062 101.9512711
  20.9320749 111.1307891 101.8545763  21.0808067 112.6170423 101.6079785
  15.2158932 109.6292617 116.6911912  15.9258550 108.9885810 116.6498530
  15.1728240 109.8805512 117.6138093  23.2045710 116.5659971 119.6118491
  23.1458257 115.8819191 118.9449074  23.6065229 117.3078961 119.1599117
  13.9287866 106.6157835 118.5107551  13.3925223 106.1648574 119.1629148
  13.3404574 106.7503744 117.7678016  13.3390125 106.0746487 101.0734015
  12.4619591 105.9535288 100.7096262  13.8147878 105.2832565 100.8212904
  23.2063118 114.5299555 117.8432471  22.3189897 114.1925477 117.9658870
  23.7761669 113.7982586 118.0801236   4.8592265 110.8623647 111.1675522
   5.5463305 110.5485377 110.5796537   4.7040394 111.7665011 110.8942774
   9.6626987 105.7513843 115.5960546   9.5785176 105.1439513 114.8610956
   8.8409693 106.2422861 115.5970042  16.7364271 119.1901007 114.8093714
  16.6634443 119.9955979 115.3213018  16.2941664 119.3892973 113.9841735
  16.5254051 118.4272777 108.3196535  15.7421573 118.9694457 108.4134760
  17.2246796 118.9446757 108.7190777  19.8350701 104.2367407 110.9630741
  20.3319400 103.4837369 110.6431811  19.0637682 104.2731723 110.3973950
  27.6880458 109.9407772 112.6049032  27.6770335 110.8232488 112.2342965
  26.8197838 109.5879323 112.4103569  19.1962955 119.0887841 116.9651873
  19.9090927 119.7235306 116.8927774  18.7052983 119.1851707 116.1491874
  20.9180482 112.9939094 108.5369164  19.9836760 113.1140556 108.3673869
  21.0957150 112.0911561 108.2729174  16.4185670 106.3784790 110.6902425
  16.0483457 105.8255830 111.3783331  16.9144762 105.7742923 110.1377425
  24.3053033 108.8356413 109.0719198  24.7713485 109.6684405 108.9979501
  24.7560533 108.3701395 109.7764457  22.3729264 115.1800234 106.0705350
  22.6489108 115.0656829 106.9799224  21.5033763 114.7817719 106.0317523
  22.2769696 101.2037000 113.1110100  21.3632775 101.4341227 113.2792307
  22.7062797 101.2875444 113.9624132  22.0476154 109.3926892 115.6109994
  21.3947604 109.6402800 114.9562446  22.4256534 108.5791030 115.2772471
  19.0083328 119.4286585 109.7138164  19.1905723 118.6108241 110.1765916
  19.8316314 119.6454277 109.2763054  19.3425494 118.3554770 106.9753213
  19.8713260 117.8447225 106.3623375  19.6053713 118.0397301 107.8398746
  18.0963727 110.1346703 122.0976031  17.4204364 110.0340832 122.7678406
  18.9191361 109.9785917 122.5612028  12.6981241 119.4069887 109.7350988
  12.0291617 119.8916015 109.2515028  12.5594111 119.6539108 110.6494367
  11.8151003 103.7888780 116.9355532  11.8792330 104.6503611 116.5232929
  11.7518124 103.1762782 116.2027890   8.0668819 107.6688342 106.5146921
   8.3622260 106.7599020 106.4613974   7.1656854 107.6476081 106.1927923
  19.9754897 119.3895606 113.3197329  19.8506037 118.5885346 112.8108274
  20.6333988 119.8841799 112.8311299  11.5963066 105.7444339 112.4974469
  10.8749651 106.3580306 112.3581942  12.3856321 106.2802103 112.4191115
  22.0389806 117.1904626 114.9476879  21.0920141 117.0709977 114.8755206
  22.3872579 116.3027124 115.0303140  14.3989379 103.0798765 118.7715121
  14.9223781 103.3261062 119.5341430  14.1801712 103.9118800 118.3518258
   9.7956660 105.3502440 106.6386246   9.4669366 104.4699819 106.4561352
  10.1496031 105.2950108 107.5262635  19.0436239 116.9857342 111.1481231
  18.8961201 116.0574050 111.3288801  19.8689733 117.0077433 110.6638307
  12.9098483 105.6375409 107.0061723  13.2494556 106.1661331 106.2840332
  13.3570604 105.9755816 107.7820290  22.6470361 117.8085901 112.2346104
  23.5716908 117.6028762 112.0970555  22.4785664 117.5602302 113.1435446
  15.6041924 104.0212460 116.4564791  15.2638745 103.2220273 116.8585471
  14.8980930 104.3214171 115.8841625  16.2558396 101.1061773 114.9092114
  17.0784465 100.6322251 114.7871005  16.4996459 101.8852256 115.4090801
  14.8966630 104.1350031 105.2055016  15.6174993 104.5131284 104.7018733
  14.2731935 104.8538908 105.3089994  19.0397753 104.8395180 106.1413349
  19.2561368 105.7219818 105.8402177  18.5591820 104.4481393 105.4118991
  13.7796975 107.7980893 112.7184093  13.6341555 108.1121196 113.6108375
  13.3022178 108.4165794 112.1654992  15.6393358 104.7883441 112.7664983
  15.6254926 103.8924535 112.4297281  16.3565786 104.7954105 113.4003269
  17.4919488 105.2220781 114.8118110  17.2337266 106.1437852 114.8102441
  16.9604529 104.8251216 115.5018574  22.4365677 118.3271569 107.5908195
  22.6102555 117.7617991 106.8382048  22.9294568 119.1272463 107.4087685
  15.0430254 103.6697822 108.0352553  15.1646165 102.7414468 108.2343440
  14.7532296 103.6836508 107.1230868  17.9121444 101.3552732 111.1719273
  17.9343141 101.4192065 110.2171252  18.3289503 100.5157241 111.3659779
  28.2905068 111.0907992 109.2098495  28.7336214 110.3415317 108.8117618
  27.4131579 111.0818128 108.8272227  23.4240850 117.6438333 104.6905094
  24.1191754 118.2645026 104.9092408  23.7664000 116.7933684 104.9657472
  25.3232273 115.0938039 106.2192425  25.8483597 115.4325311 105.4941745
  25.2354625 114.1585054 106.0355559  17.0072933 121.1610022 110.5787678
  16.5677924 120.6686400 111.2720534  17.7581050 120.6182989 110.3379753
   9.4865272 117.3521563 110.5812306  10.3123292 117.0525335 110.2010949
   9.1359324 116.5829185 111.0302094  14.4546806 116.7048031 112.6509979
  13.8326815 116.0418736 112.3512207  15.1251672 116.7309163 111.9683627
  14.5271333 105.1829819 122.2442485  14.5759489 106.0591942 121.8620255
  15.0693847 104.6407212 121.6714129  25.0126179 115.7270942 121.5243622
  24.2221722 115.7095081 120.9848122  24.7759533 116.2659236 122.2792659
  25.1324054 112.5763409 118.8376351  25.1822059 112.4113416 119.7791874
  25.0237977 111.7090668 118.4474232  14.0160312 115.2551954 106.1268440
  14.1648433 115.9387419 105.4735113  14.8226756 115.2357044 106.6417896
  22.4227816 108.5594337 120.1535658  23.3237679 108.4200801 119.8619656
  22.4975791 108.7248791 121.0933835  16.7570622 105.9361191 118.9988844
  15.8873931 106.2294757 118.7271433  16.9930102 106.5201636 119.7196108
  26.6342251 114.9960350 119.0818373  26.3427059 115.3590331 119.9181834
  26.0214382 114.2827358 118.9031705  27.8337933 112.5613230 111.6020943
  28.6684824 113.0003034 111.7658503  27.9697062 112.0851883 110.7829189
  24.8829439 110.1192965 117.5498431  25.3583560 110.3120611 116.7417282
  23.9595004 110.1752151 117.3041814  11.7712945 111.2817132 107.1329509
  11.5258987 110.3779462 107.3309719  11.9408860 111.2834282 106.1908987
  19.4609655 102.1540808 116.5154264  19.9791599 102.8901835 116.1900753
  19.1064788 102.4604802 117.3501024  11.0408593 107.0145489 104.6315670
  10.3477838 107.0889844 103.9755706  10.7960345 106.2505833 105.1537187
  19.7122250  98.5741091 112.0355161  19.9924003  97.9064280 112.6615588
  20.4972856  98.7670186 111.5229825  17.5155718 117.7500085 103.5980187
  16.9429685 118.3690272 103.1450659  18.0888512 118.2999446 104.1320109
  23.5831108 106.9958725 115.7826736  24.5348531 107.0956822 115.8038960
  23.4134558 106.2036993 116.2924821  21.6045487 104.0814308 115.9686137
  21.0095419 104.3619321 115.2732626  21.3195184 104.5708209 116.7402878
  20.7352978 118.0337235 104.7288770  21.6683651 117.9682796 104.9321645
  20.6476191 118.8693502 104.2703302  23.3640994 117.3503105 101.6892717
  23.2854626 117.0162969 102.5828475  24.1850661 117.8424873 101.6884190
  26.0619186 110.2164844 114.8969036  26.0295506 109.2780845 115.0828720
  26.6719809 110.2948881 114.1634861  17.9002517 109.0860897 100.9396240
  18.8461621 108.9567106 101.0084658  17.5216761 108.3475559 101.4165668
  26.2113674 107.0075888 114.9427319  25.6952723 106.2234345 114.7557248
  27.0953623 106.6794605 115.1073838  23.8724401 100.7516903 110.9023132
  23.6749222 100.4431992 111.7866464  24.4824107 101.4778542 111.0321062
  31.8795736 111.2780851 114.0375073  32.6099124 111.0166139 114.5982776
  31.2702681 110.5409573 114.0777141  29.9611033 109.4188714 114.6349524
  29.2344196 109.2844679 114.0266015  29.5458320 109.7265542 115.4406242
  16.0845434 107.0110874 100.8751125  15.1776889 106.7143987 100.9513839
  16.3621415 106.7140692 100.0085411   7.0023374 108.3317237 111.3250171
   6.6826158 107.4782545 111.0324545   6.4556802 108.5465815 112.0808139
  10.7803282 111.0479678 115.0419678  10.9989291 111.9796786 115.0607712
  11.1929055 110.6887653 115.8274482  17.7007499 101.5547764 107.0295366
  16.8908228 101.2094849 107.4050612  18.3891916 101.2455307 107.6182978
  19.6298048 100.6325810 108.6519663  20.1829086 101.0521264 109.3109686
  19.8668134  99.7061558 108.6942619  14.8544218 103.8697809 101.0163104
  15.7163382 104.1952707 101.2758922  15.0394562 103.0829305 100.5036170
  23.0076855 102.7426335 108.1598327  22.4275524 103.4011140 107.7776380
  22.7412787 101.9203680 107.7485745  21.4580421 102.1431393 110.3619648
  21.9580200 102.2547928 109.5533966  22.1016029 101.8392446 111.0020456
   8.7848377 111.8838402 111.1709308   8.7619065 111.9826090 110.2191191
   9.0949013 112.7303553 111.4926474  21.7901733 104.9026426 107.2154676
  20.9027588 105.1876076 106.9974870  22.2055722 104.7420189 106.3681952
  25.1416269 104.9272947 110.9309015  25.9176659 105.4169399 111.2033632
  24.4164403 105.3531001 111.3880884  27.5788828 105.6400566 111.9882955
  28.1733318 105.3996302 111.2776264  27.6515411 104.9207697 112.6156492
  20.9344946 114.6671101 101.3102696  21.6380796 114.8721103 101.9260351
  20.2107595 115.2347862 101.5751779  21.7642757 110.4180962 107.4304966
  21.7077958 110.8749513 106.5912598  22.3171099 109.6571646 107.2527808
  25.5747562 106.2070694 108.2555085  25.3184497 105.8067329 109.0863293
  24.9500430 106.9214488 108.1305224  29.8859900 108.9466767 110.7626377
  29.3259458 109.0159956 111.5357939  29.2803404 108.7707752 110.0425873
  22.8431644 115.1053630 103.3601156  23.6777248 114.6734828 103.1778630
  22.6815987 114.9335643 104.2878050  22.4977536 111.6085743 104.7257495
  22.4426340 111.4430014 103.7845939  21.8723591 112.3161776 104.8819685
  15.8073661 101.1093852 104.3042813  15.7952331 102.0535692 104.4611084
  16.6997083 100.9263997 104.0102274  15.7363225 119.7862742 112.3910570
  14.7858856 119.7864604 112.2774942  16.0395711 119.0395477 111.8746605
  19.6225781  97.7036629 108.5588750  18.8558177  97.1495115 108.7045432
  20.0336486  97.7758497 109.4202902  31.4715919 125.6223281 113.4556332
  32.1094329 125.5030028 112.7519672  31.3536762 126.5704125 113.5144284
  28.2805625 125.5750709 113.3917857  27.9424137 125.4591774 112.5038392
  29.1495393 125.1741874 113.3718863  24.1392441 127.4286185 109.3814748
  23.5757306 127.3376122 108.6131036  24.0244836 126.6086090 109.8617240
  28.7625408 126.7285561 119.3504063  28.7514049 126.3338359 118.4784566
  28.9246048 125.9951633 119.9437834  21.6856873 128.9237377 112.2198968
  22.4778165 128.5828202 111.8045268  21.9253523 129.0332352 113.1401122
  29.7191999 131.0957153 104.6929213  29.0679979 131.6811233 104.3063227
  30.5136362 131.6263348 104.7524250  23.6447627 128.1846290 105.0916347
  24.4178503 127.6375277 104.9529223  23.9973025 129.0490540 105.3030809
  26.4088876 126.8899521 114.8884606  27.0052448 126.6655543 114.1741569
  26.4663848 126.1484266 115.4910054  25.9813904 124.3438956 102.7234797
  26.2339425 123.8220478 101.9618260  25.0438464 124.1805102 102.8261481
  31.0257187 123.3474735 110.5309540  31.8120276 122.9294158 110.1799957
  31.2895892 124.2520827 110.6991189  31.1967265 128.7847585 105.2298197
  30.5613098 128.8582212 105.9419102  30.8664671 129.3741184 104.5517276
  36.4265614 123.2849968 111.4342519  37.1590786 122.7149185 111.6680348
  35.6704970 122.8971568 111.8749024  25.7010193 126.2467062 104.9259172
  25.5846451 125.5711966 105.5940256  25.8112453 125.7599436 104.1091325
  28.0441734 125.7077209 108.6305861  27.6799941 125.1807830 109.3418783
  28.9008850 125.3175678 108.4572347  33.9491035 116.9971542 115.8937127
  33.6174360 117.8666953 115.6698342  33.3536648 116.6807826 116.5731158
  27.6847221 120.7367109 103.6267210  27.8521623 121.6047346 103.9937681
  27.4944390 120.8994391 102.7028499  30.4422554 129.1984088 115.2933040
  30.1423277 130.1009127 115.1848847  30.0973614 128.9316271 116.1454193
  23.8935036 125.6497885 111.3269745  22.9685532 125.5174099 111.5347436
  24.1419449 126.4292104 111.8239687  33.8419698 121.7166628 112.9730478
  32.9336575 121.6482037 112.6789239  33.7907294 122.1938573 113.8012303
  27.6636442 123.1924767 104.6113877  27.5436067 123.6381817 105.4499357
  26.9689030 123.5410084 104.0527415  21.2543847 125.2931158 112.1613534
  21.3836228 125.5465637 113.0752945  20.5741298 125.8858866 111.8418189
  27.9160564 123.1356274 120.9165375  27.1393898 123.6950194 120.9068239
  28.5551127 123.6213057 121.4380245  35.7081344 119.9183067 114.7508351
  35.0655725 120.2115600 114.1048146  35.2036273 119.8035987 115.5561548
  33.3621508 123.6646240 105.4394211  34.2739364 123.8973627 105.2641908
  32.8531155 124.2483284 104.8769289  31.6462276 128.0870868 119.0755503
  32.0545632 127.6453278 118.3310136  30.9239537 127.5123495 119.3289696
  27.9993346 123.0243474 116.4489060  28.8454541 123.4482888 116.5923709
  27.9391983 122.3677099 117.1427623  31.9691090 128.6472058 112.8307792
  31.3399953 128.8117772 112.1283860  31.5816753 129.0613668 113.6018756
  35.8480322 129.5826496 110.1852156  35.1631360 129.9625397 109.6349189
  35.9324172 130.1921823 110.9184104  31.1492791 120.6847843 118.1070234
  30.9053723 121.4389903 117.5704510  31.4252722 121.0633190 118.9417481
  33.1031254 127.2286455 116.7847499  33.3148149 127.8718215 116.1081881
  33.0561002 126.3948772 116.3169430  30.7057483 119.8404276 113.6884072
  29.8441962 120.1385529 113.9800809  30.7319918 120.0574675 112.7565104
  27.5219052 128.3846466 110.0957877  27.9857398 128.6634169 109.3062500
  27.2575850 127.4829911 109.9130968  24.4143133 127.9317948 113.0337641
  24.9844490 128.3605216 112.3955125  25.0051245 127.6500533 113.7321826
  26.4587938 124.5069619 106.9047442  27.1611982 124.9590662 107.3721369
  26.1268567 123.8653438 107.5327336  20.2013272 122.7653171 112.2064576
  19.4112326 123.0210700 111.7304687  20.6924520 123.5801509 112.3116617
  34.2177082 130.1058411 114.9569857  35.0394526 129.7038598 114.6752538
  34.2139485 130.0026645 115.9085973  22.1528018 123.1297751 109.1648053
  21.3559181 123.2416445 109.6831548  21.9253610 123.4684403 108.2988943
  27.9833685 129.6542454 117.1130567  28.0478118 130.1162861 117.9488739
  27.2744609 129.0239819 117.2412877  18.4850975 123.0183662 114.6379567
  18.7359014 123.9030672 114.9037143  19.0210524 122.8388263 113.8654659
  42.3083075 126.4497159 111.3054828  41.5546783 125.8804557 111.1498833
  42.4430616 126.4159824 112.2525463  27.6981703 131.3210561 106.9809548
  27.5627378 132.1662097 107.4094395  28.2391515 131.5229839 106.2175481
  21.1511100 128.8385999 107.5537473  21.6635621 129.6329250 107.7043037
  21.8033813 128.1412290 107.4871074  27.1017004 118.8160020 121.2344159
  27.8426717 119.4167173 121.1548622  27.3334926 118.0737658 120.6762202
  31.4231417 132.2236928 119.1391291  31.4049893 133.0445809 118.6471560
  32.3451337 132.0991003 119.3641432  31.0474167 114.8441123 115.5108441
  30.7038436 115.7342765 115.4347552  31.4153129 114.6542781 114.6478026
  19.1160017 127.1674654 108.3297043  19.9535239 127.5771662 108.1130751
  19.2938285 126.2274096 108.2997237  31.0124449 124.8349734 104.0180876
  30.4971073 125.6054339 104.2569264  30.7401758 124.1614870 104.6413938
  28.5971560 119.6799435 109.0766115  27.7413157 119.2906285 108.8971753
  29.0098512 119.7591396 108.2165900  30.1270707 117.2145778 113.4757674
  29.6235503 117.1775914 112.6625480  30.4201314 118.1238521 113.5354331
  26.3713593 117.2984508 112.4823856  27.2366590 117.1027317 112.1229746
  26.4391102 117.0694860 113.4093213  35.9858723 127.5882089 105.9534050
  35.2088166 127.2493248 105.5089212  36.6650204 127.5934712 105.2789015
  30.8010752 122.7076826 105.8440657  30.4960888 123.0222976 106.6950801
  31.7541195 122.7858246 105.8867990  29.2457184 128.8667050 107.4933611
  28.7178546 128.1319809 107.1806849  28.7444687 129.6441726 107.2473580
  34.2250030 127.0616070 112.6100658  33.5673705 127.7515332 112.6980786
  35.0290430 127.4512502 112.9534644  23.9775912 119.5286716 109.8540223
  24.5519664 119.3061897 109.1213416  24.5646894 119.5975411 110.6068824
  33.0355489 125.4160443 110.6604599  33.5487371 126.0490435 111.1626309
  33.6856713 124.8161638 110.2947959  24.3045499 121.5591177 103.8736108
  23.4682811 121.8965864 104.1945383  24.1650269 121.4240157 102.9363245
  26.2798580 116.4027965 108.5815292  25.6262992 116.0876982 107.9571907
  26.2379054 115.7803705 109.3075115  27.3909784 126.6847260 100.4968584
  26.4836846 126.4536513 100.6959733  27.8880816 125.8884879 100.6842566
  29.5136320 122.8909898 112.9062940  28.5958881 123.1124845 112.7484628
  29.9296464 122.9656209 112.0474647  30.2971368 124.2901314 108.0365620
  31.0443187 124.8022711 107.7272742  30.5662957 123.9685367 108.8970014
  28.5698018 126.7859855 105.0192574  27.6609237 126.5018888 105.1165044
  28.5993102 127.2058933 104.1595881  33.8017285 130.3966444 108.7883742
  33.3479612 129.5557354 108.8448933  33.1711252 131.0327843 109.1258522
  32.7450205 121.3258430 110.0184410  32.0072962 120.8135817 110.3494652
  32.9976978 120.8858812 109.2067686  32.2450225 132.2342941 109.7233560
  32.5373199 132.7947998 109.0045926  32.7548845 132.5271502 110.4786719
  32.8461832 114.1034682 110.6126179  33.1520709 113.2432046 110.3252094
  33.5714437 114.6952303 110.4125173  19.1386188 124.5065369 109.0007777
  18.9410588 123.9134730 108.2758843  18.5832852 124.2017579 109.7183715
  27.1182912 124.3988475 111.1202370  27.1731522 123.4462312 111.0444846
  26.3074114 124.5547915 111.6043668  28.2674106 128.3268599 102.3580653
  27.8293536 127.6104457 101.8986290  29.0084547 128.5544713 101.7965744
  25.0575272 123.0165535 108.8792749  24.2443137 123.3159706 109.2857941
  25.5534266 122.6221224 109.5967231  30.6549484 123.4807360 117.7107643
  31.0098871 123.7078833 118.5702108  31.3021615 123.8125736 117.0884898
  36.3847220 126.6025796 108.4156972  36.2465119 126.7927392 107.4878161
  36.0283439 127.3645178 108.8725023  24.5489347 120.5883891 114.4953984
  25.1888726 120.4472650 113.7976947  23.7166877 120.3018404 114.1192586
  36.4116600 128.6702323 113.4268243  36.8453107 128.5777612 114.2751297
  37.1248181 128.6459823 112.7888259  25.3249651 129.8886321 110.6088976
  26.1190249 129.3936641 110.4071551  24.6141343 129.3604184 110.2456682
  30.1444495 132.2704417 114.9601344  30.1981517 132.8395353 115.7279060
  29.2759276 132.4406302 114.5955381  21.6332414 124.0329403 106.6848729
  20.7030002 123.9713858 106.9018691  21.7289886 123.5105356 105.8885370
  21.5517963 120.5584216 109.2726970  21.8124780 121.4729549 109.1636131
  22.3735135 120.0908658 109.4223583  23.0242888 121.9721973 116.4425795
  23.6965942 121.7639335 115.7938444  22.1972675 121.7744059 116.0031027
  37.2732150 128.7126023 115.9601129  37.4668040 129.6171834 116.2060403
  37.1732768 128.2533442 116.7939714  28.9268460 118.5983914 118.4591456
  28.2796375 119.2973863 118.3655932  29.6969476 119.0320058 118.8267704
  32.3347258 128.8632766 121.5342009  32.1832765 128.6343318 120.6172093
  32.3251938 129.8203367 121.5473354  29.1032595 126.4364679 116.5188276
  30.0324655 126.5875838 116.3457243  28.6823625 126.5248699 115.6636922
  27.9020927 130.4615343 114.2886813  27.7632012 130.0934128 115.1612751
  27.1135523 130.9762983 114.1170771  29.4526142 129.8396946 111.6775651
  29.1175974 129.7997716 112.5733301  28.9530087 129.1741662 111.2046061
  23.4270386 125.2464576 117.2028232  23.2890184 124.5144815 117.8039771
  24.3375309 125.1573476 116.9212420  32.3885333 127.1852980 101.9512711
  31.7714504 126.4599808 101.8545763  31.9201822 127.9462340 101.6079785
  26.0552686 124.9584535 116.6911912  26.7652305 124.3177727 116.6498530
  26.0121994 125.2097430 117.6138093  34.0439465 131.8951889 119.6118491
  33.9852011 131.2111109 118.9449074  34.4458983 132.6370879 119.1599117
  24.7681620 121.9449753 118.5107551  24.2318977 121.4940492 119.1629148
  24.1798329 122.0795662 117.7678016  24.1783879 121.4038404 101.0734015
  23.3013346 121.2827205 100.7096262  24.6541632 120.6124483 100.8212904
  34.0456872 129.8591472 117.8432471  33.1583651 129.5217394 117.9658870
  34.6155423 129.1274504 118.0801236  15.6986019 126.1915564 111.1675522
  16.3857059 125.8777294 110.5796537  15.5434148 127.0956929 110.8942774
  20.5020742 121.0805761 115.5960546  20.4178930 120.4731430 114.8610956
  19.6803448 121.5714779 115.5970042  30.6744455 119.5659324 110.9630741
  31.1713155 118.8129287 110.6431811  29.9031437 119.6023641 110.3973950
  38.5274213 125.2699690 112.6049032  38.5164089 126.1524405 112.2342965
  37.6591592 124.9171241 112.4103569  31.7574236 128.3231012 108.5369164
  30.8230515 128.4432474 108.3673869  31.9350905 127.4203478 108.2729174
  27.2579424 121.7076707 110.6902425  26.8877212 121.1547748 111.3783331
  27.7538517 121.1034841 110.1377425  35.1446787 124.1648331 109.0719198
  35.6107240 124.9976322 108.9979501  35.5954288 123.6993312 109.7764457
  33.2123019 130.5092152 106.0705350  33.4882862 130.3948747 106.9799224
  32.3427517 130.1109637 106.0317523  33.1163450 116.5328918 113.1110100
  32.2026530 116.7633145 113.2792307  33.5456552 116.6167362 113.9624132
  32.8869909 124.7218810 115.6109994  32.2341359 124.9694717 114.9562446
  33.2650289 123.9082948 115.2772471  28.9357482 125.4638621 122.0976031
  28.2598119 125.3632750 122.7678406  29.7585116 125.3077835 122.5612028
  22.6544758 119.1180698 116.9355532  22.7186084 119.9795529 116.5232929
  22.5911878 118.5054700 116.2027890  18.9062573 122.9980260 106.5146921
  19.2016014 122.0890938 106.4613974  18.0050609 122.9767999 106.1927923
  22.4356820 121.0736256 112.4974469  21.7143406 121.6872224 112.3581942
  23.2250076 121.6094021 112.4191115  32.8783560 132.5196544 114.9476879
  31.9313896 132.4001895 114.8755206  33.2266333 131.6319042 115.0303140
  25.2383134 118.4090683 118.7715121  25.7617535 118.6552979 119.5341430
  25.0195467 119.2410718 118.3518258  20.6350415 120.6794357 106.6386246
  20.3063121 119.7991736 106.4561352  20.9889785 120.6242026 107.5262635
  29.8829994 132.3149260 111.1481231  29.7354956 131.3865967 111.3288801
  30.7083487 132.3369351 110.6638307  23.7492238 120.9667327 107.0061723
  24.0888310 121.4953248 106.2840332  24.1964358 121.3047733 107.7820290
  33.4864115 133.1377819 112.2346104  34.4110663 132.9320680 112.0970555
  33.3179419 132.8894220 113.1435446  26.4435679 119.3504378 116.4564791
  26.1032499 118.5512191 116.8585471  25.7374685 119.6506089 115.8841625
  27.0952150 116.4353690 114.9092114  27.9178220 115.9614169 114.7871005
  27.3390214 117.2144174 115.4090801  25.7360385 119.4641949 105.2055016
  26.4568747 119.8423202 104.7018733  25.1125689 120.1830826 105.3089994
  29.8791508 120.1687098 106.1413349  30.0955122 121.0511736 105.8402177
  29.3985575 119.7773311 105.4118991  24.6190729 123.1272811 112.7184093
  24.4735310 123.4413114 113.6108375  24.1415933 123.7457711 112.1654992
  26.4787112 120.1175359 112.7664983  26.4648681 119.2216452 112.4297281
  27.1959540 120.1246023 113.4003269  28.3313243 120.5512699 114.8118110
  28.0731021 121.4729770 114.8102441  27.7998283 120.1543134 115.5018574
  33.2759432 133.6563486 107.5908195  33.4496309 133.0909909 106.8382048
  33.7688323 134.4564381 107.4087685  25.8824008 118.9989739 108.0352553
  26.0039919 118.0706385 108.2343440  25.5926050 119.0128425 107.1230868
  28.7515198 116.6844650 111.1719273  28.7736895 116.7483983 110.2171252
  29.1683257 115.8449158 111.3659779  39.1298823 126.4199909 109.2098495
  39.5729969 125.6707234 108.8117618  38.2525333 126.4110046 108.8272227
  34.2634604 132.9730251 104.6905094  34.9585509 133.5936943 104.9092408
  34.6057754 132.1225602 104.9657472  36.1626027 130.4229956 106.2192425
  36.6877351 130.7617229 105.4941745  36.0748380 129.4876972 106.0355559
  25.3665088 120.5121737 122.2442485  25.4153243 121.3883859 121.8620255
  25.9087602 119.9699130 121.6714129  35.8519933 131.0562860 121.5243622
  35.0615477 131.0386999 120.9848122  35.6153288 131.5951154 122.2792659
  35.9717808 127.9055326 118.8376351  36.0215813 127.7405334 119.7791874
  35.8631732 127.0382585 118.4474232  24.8554067 130.5843872 106.1268440
  25.0042187 131.2679336 105.4735113  25.6620510 130.5648962 106.6417896
  33.2621571 123.8886254 120.1535658  34.1631433 123.7492719 119.8619656
  33.3369545 124.0540709 121.0933835  27.5964376 121.2653109 118.9988844
  26.7267685 121.5586675 118.7271433  27.8323856 121.8493554 119.7196108
  37.4736005 130.3252268 119.0818373  37.1820813 130.6882248 119.9181834
  36.8608136 129.6119276 118.9031705  38.6731687 127.8905148 111.6020943
  39.5078579 128.3294952 111.7658503  38.8090816 127.4143801 110.7829189
  35.7223193 125.4484882 117.5498431  36.1977315 125.6412529 116.7417282
  34.7988759 125.5044068 117.3041814  22.6106700 126.6109050 107.1329509
  22.3652742 125.7071380 107.3309719  22.7802615 126.6126200 106.1908987
  30.3003410 117.4832726 116.5154264  30.8185354 118.2193753 116.1900753
  29.9458543 117.7896719 117.3501024  21.8802347 122.3437407 104.6315670
  21.1871592 122.4181762 103.9755706  21.6354099 121.5797751 105.1537187
  30.5516004 113.9033008 112.0355161  30.8317758 113.2356198 112.6615588
  31.3366611 114.0962104 111.5229825  34.4224862 122.3250642 115.7826736
  35.3742285 122.4248740 115.8038960  34.2528313 121.5328911 116.2924821
  32.4439242 119.4106226 115.9686137  31.8489174 119.6911238 115.2732626
  32.1588939 119.9000127 116.7402878  34.2034749 132.6795023 101.6892717
  34.1248380 132.3454886 102.5828475  35.0244416 133.1716791 101.6884190
  36.9012940 125.5456762 114.8969036  36.8689260 124.6072763 115.0828720
  37.5113564 125.6240799 114.1634861  28.7396271 124.4152815 100.9396240
  29.6855376 124.2859023 101.0084658  28.3610516 123.6767477 101.4165668
  37.0507429 122.3367806 114.9427319  36.5346477 121.5526262 114.7557248
  37.9347377 122.0086522 115.1073838  34.7118156 116.0808821 110.9023132
  34.5142977 115.7723909 111.7866464  35.3217861 116.8070460 111.0321062
  42.7189490 126.6072769 114.0375073  43.4492878 126.3458057 114.5982776
  42.1096435 125.8701491 114.0777141  40.8004787 124.7480632 114.6349524
  40.0737951 124.6136596 114.0266015  40.3852074 125.0557460 115.4406242
  26.9239188 122.3402791 100.8751125  26.0170644 122.0435904 100.9513839
  27.2015169 122.0432610 100.0085411  17.8417129 123.6609155 111.3250171
  17.5219913 122.8074463 111.0324545  17.2950557 123.8757733 112.0808139
  21.6197036 126.3771596 115.0419678  21.8383046 127.3088704 115.0607712
  22.0322810 126.0179570 115.8274482  28.5401254 116.8839681 107.0295366
  27.7301982 116.5386766 107.4050612  29.2285671 116.5747225 107.6182978
  30.4691802 115.9617728 108.6519663  31.0222841 116.3813181 109.3109686
  30.7061889 115.0353476 108.6942619  25.6937973 119.1989727 101.0163104
  26.5557137 119.5244625 101.2758922  25.8788317 118.4121223 100.5036170
  33.8470609 118.0718253 108.1598327  33.2669278 118.7303057 107.7776380
  33.5806542 117.2495598 107.7485745  32.2974176 117.4723311 110.3619648
  32.7973954 117.5839845 109.5533966  32.9409784 117.1684364 111.0020456
  19.6242131 127.2130320 111.1709308  19.6012819 127.3118007 110.2191191
  19.9342768 128.0595471 111.4926474  32.6295487 120.2318344 107.2154676
  31.7421342 120.5167994 106.9974870  33.0449476 120.0712107 106.3681952
  35.9810023 120.2564865 110.9309015  36.7570414 120.7461317 111.2033632
  35.2558158 120.6822919 111.3880884  38.4182582 120.9692484 111.9882955
  39.0127073 120.7288220 111.2776264  38.4909166 120.2499614 112.6156492
  31.7738701 129.9963018 101.3102696  32.4774551 130.2013021 101.9260351
  31.0501350 130.5639780 101.5751779  32.6036511 125.7472879 107.4304966
  32.5471712 126.2041431 106.5912598  33.1564853 124.9863564 107.2527808
  36.4141317 121.5362611 108.2555085  36.1578251 121.1359247 109.0863293
  35.7894185 122.2506405 108.1305224  40.7253655 124.2758685 110.7626377
  40.1653213 124.3451874 111.5357939  40.1197158 124.0999669 110.0425873
  33.6825398 130.4345547 103.3601156  34.5171002 130.0026746 103.1778630
  33.5209741 130.2627561 104.2878050  33.3371290 126.9377661 104.7257495
  33.2820094 126.7721932 103.7845939  32.7117346 127.6453694 104.8819685
  26.6467416 116.4385770 104.3042813  26.6346086 117.3827610 104.4611084
  27.5390838 116.2555915 104.0102274  30.4619535 113.0328546 108.5588750
  29.6951931 112.4787033 108.7045432  30.8730240 113.1050415 109.4202902
  47.2659369 138.6141886 111.4342519  47.9984541 138.0441102 111.6680348
  46.5098725 138.2263486 111.8749024  44.7884789 132.3263460 115.8937127
  44.4568114 133.1958871 115.6698342  44.1930403 132.0099744 116.5731158
  44.6813453 137.0458546 112.9730478  43.7730330 136.9773954 112.6789239
  44.6301048 137.5230491 113.8012303  46.5475099 135.2474984 114.7508351
  45.9049479 135.5407517 114.1048146  46.0430027 135.1327905 115.5561548
  41.9886546 136.0139760 118.1070234  41.7447478 136.7681821 117.5704510
  42.2646476 136.3925108 118.9417481  41.5451237 135.1696193 113.6884072
  40.6835716 135.4677447 113.9800809  41.5713672 135.3866592 112.7565104
  37.9410758 134.1451938 121.2344159  38.6820471 134.7459091 121.1548622
  38.1728681 133.4029576 120.6762202  41.8867921 130.1733041 115.5108441
  41.5432190 131.0634683 115.4347552  42.2546884 129.9834699 114.6478026
  39.4365315 135.0091353 109.0766115  38.5806911 134.6198203 108.8971753
  39.8492267 135.0883314 108.2165900  40.9664461 132.5437696 113.4757674
  40.4629257 132.5067831 112.6625480  41.2595068 133.4530439 113.5354331
  37.2107347 132.6276426 112.4823856  38.0760344 132.4319234 112.1229746
  37.2784856 132.3986778 113.4093213  34.8169666 134.8578634 109.8540223
  35.3913418 134.6353815 109.1213416  35.4040649 134.9267328 110.6068824
  37.1192334 131.7319883 108.5815292  36.4656746 131.4168900 107.9571907
  37.0772808 131.1095623 109.3075115  43.5843959 136.6550348 110.0184410
  42.8466716 136.1427734 110.3494652  43.8370733 136.2150730 109.2067686
  43.6855587 129.4326600 110.6126179  43.9914463 128.5723963 110.3252094
  44.4108192 130.0244220 110.4125173  39.7662215 133.9275831 118.4591456
  39.1190130 134.6265781 118.3655932  40.5363230 134.3611975 118.8267704
  41.5138210 134.8951242 110.9630741  42.0106909 134.1421204 110.6431811
  40.7425191 134.9315559 110.3973950  43.9557205 131.8620835 113.1110100
  43.0420284 132.0925062 113.2792307  44.3850306 131.9459280 113.9624132
  36.0776888 133.7382600 118.7715121  36.6011290 133.9844897 119.5341430
  35.8589221 134.5702635 118.3518258  37.2829433 134.6796296 116.4564791
  36.9426253 133.8804109 116.8585471  36.5768439 134.9798006 115.8841625
  37.9345905 131.7645608 114.9092114  38.7571974 131.2906086 114.7871005
  38.1783968 132.5436092 115.4090801  40.7185262 135.4979015 106.1413349
  40.9348877 136.3803653 105.8402177  40.2379329 135.1065229 105.4118991
  37.3180867 135.4467277 112.7664983  37.3042435 134.5508370 112.4297281
  38.0353295 135.4537940 113.4003269  36.7217763 134.3281657 108.0352553
  36.8433674 133.3998303 108.2343440  36.4319805 134.3420343 107.1230868
  39.5908953 132.0136567 111.1719273  39.6130650 132.0775900 110.2171252
  40.0077012 131.1741076 111.3659779  41.1397164 132.8124644 116.5154264
  41.6579108 133.5485671 116.1900753  40.7852297 133.1188637 117.3501024
  41.3909758 129.2324926 112.0355161  41.6711512 128.5648115 112.6615588
  42.1760365 129.4254022 111.5229825  45.2618617 137.6542560 115.7826736
  46.2136040 137.7540658 115.8038960  45.0922067 136.8620829 116.2924821
  43.2832996 134.7398143 115.9686137  42.6882928 135.0203156 115.2732626
  42.9982693 135.2292044 116.7402878  47.8901183 137.6659723 114.9427319
  47.3740232 136.8818180 114.7557248  48.7741132 137.3378440 115.1073838
  45.5511910 131.4100739 110.9023132  45.3536731 131.1015827 111.7866464
  46.1611616 132.1362378 111.0321062  51.6398542 140.0772549 114.6349524
  50.9131705 139.9428514 114.0266015  51.2245828 140.3849378 115.4406242
  39.3795008 132.2131599 107.0295366  38.5695737 131.8678684 107.4050612
  40.0679425 131.9039143 107.6182978  41.3085557 131.2909646 108.6519663
  41.8616595 131.7105099 109.3109686  41.5455643 130.3645394 108.6942619
  36.5331727 134.5281644 101.0163104  37.3950891 134.8536543 101.2758922
  36.7182071 133.7413140 100.5036170  44.6864364 133.4010171 108.1598327
  44.1063033 134.0594975 107.7776380  44.4200296 132.5787515 107.7485745
  43.1367930 132.8015229 110.3619648  43.6367708 132.9131763 109.5533966
  43.7803538 132.4976281 111.0020456  43.4689242 135.5610261 107.2154676
  42.5815097 135.8459912 106.9974870  43.8843231 135.4004025 106.3681952
  46.8203778 135.5856782 110.9309015  47.5964168 136.0753235 111.2033632
  46.0951912 136.0114836 111.3880884  49.2576337 136.2984401 111.9882955
  49.8520827 136.0580137 111.2776264  49.3302920 135.5791532 112.6156492
  47.2535071 136.8654529 108.2555085  46.9972006 136.4651165 109.0863293
  46.6287939 137.5798323 108.1305224  51.5647409 139.6050602 110.7626377
  51.0046967 139.6743792 111.5357939  50.9590913 139.4291587 110.0425873
  37.4861170 131.7677687 104.3042813  37.4739840 132.7119527 104.4611084
  38.3784592 131.5847833 104.0102274  41.3013290 128.3620464 108.5588750
  40.5345686 127.8078951 108.7045432  41.7123995 128.4342333 109.4202902
   3.9084352  54.3036337  98.1587826   4.6409524  53.7335554  98.3925655
   3.1523708  53.9157938  98.5994331   1.4309773  48.0157912 102.6182434
   1.0993097  48.8853323 102.3943649   0.8355386  47.6994196 103.2976465
   1.3238436  52.7352998  99.6975784   0.4155313  52.6668406  99.4034545
   1.2726032  53.2124943 100.5257610   3.1900082  50.9369436 101.4753658
   2.5474462  51.2301969 100.8293453   2.6855011  50.8222356 102.2806855
   0.8440246  54.6832609  92.1639517   1.7558102  54.9159996  91.9887215
   0.3349893  55.2669654  91.6014596   3.3299060  60.6012866  96.9097463
   2.6450098  60.9811767  96.3594496   3.4142909  61.2108192  97.6429410
   0.5849992  58.2472825 103.5092806   0.7966887  58.8904585 102.8327187
   0.5379740  57.4135141 103.0414736   1.6995820  61.1244780 101.6815163
   2.5213263  60.7224967 101.3997845   1.6958223  61.0213014 102.6331279
   9.7901813  57.4683529  98.0300135   9.0365521  56.8990927  97.8744139
   9.9249354  57.4346193  98.9770770   3.4677461  58.6068459  92.6779356
   2.6906904  58.2679618  92.2334518   4.1468942  58.6121082  92.0034321
   1.7068768  58.0802440  99.3345964   1.0492443  58.7701701  99.4226093
   2.5109167  58.4698872  99.6779951   0.5174227  56.4346812  97.3849906
   1.0306109  57.0676804  97.8871616   1.1675451  55.8348008  97.0193266
   1.2836023  61.4152814  95.5129049   0.8298350  60.5743724  95.5694239
   0.6529990  62.0514212  95.8503829   0.3280570  45.1221052  97.3371485
   0.6339447  44.2618415  97.0497400   1.0533175  45.7138672  97.1370479
   3.8665958  57.6212165  95.1402278   3.7283857  57.8113761  94.2123467
   3.5102177  58.3831548  95.5970329   3.8935338  59.6888692 100.1513550
   4.3271845  59.5963981 100.9996604   4.6066919  59.6646193  99.5133566
   4.7550887  59.7312393 102.6846435   4.9486778  60.6358203 102.9305710
   4.6551506  59.2719812 103.5185020   1.5258203  62.9138258 106.3363798
   1.4670749  62.2297478 105.6694381   1.9277721  63.6557248 105.8844424
   1.5275610  60.8777842 104.5677777   0.6402389  60.5403764 104.6904176
   2.0974161  60.1460873 104.8046543   6.0092951  56.2886059  99.3294339
   5.9982827  57.1710775  98.9588272   5.1410330  55.9357610  99.1348876
   2.6265525  55.1834700  95.7964505   3.0925977  56.0162692  95.7224808
   3.0773026  54.7179682  96.5009764   0.9682853  64.1564188  98.9591411
   1.8929401  63.9507050  98.8215862   0.7998157  63.9080590  99.8680752
   0.7578169  64.6749856  94.3153502   0.9315047  64.1096278  93.5627355
   1.2507061  65.4750751  94.1332992   6.6117561  57.4386279  95.9343802
   7.0548707  56.6893604  95.5362925   5.7344071  57.4296415  95.5517534
   1.7453342  63.9916620  91.4150400   2.4404246  64.6123313  91.6337715
   2.0876492  63.1411971  91.6902778   3.6444765  61.4416326  92.9437731
   4.1696089  61.7803599  92.2187051   3.5567118  60.5063341  92.7600866
   3.3338671  62.0749229 108.2488929   2.5434215  62.0573368 107.7093429
   3.0972026  62.6137523 109.0037966   3.4536546  58.9241696 105.5621658
   3.5034551  58.7591703 106.5037180   3.3450469  58.0568955 105.1719538
   0.7440308  54.9072624 106.8780964   1.6450171  54.7679089 106.5864962
   0.8188283  55.0727079 107.8179142   4.9554743  61.3438637 105.8063679
   4.6639551  61.7068618 106.6427140   4.3426874  60.6305646 105.6277011
   6.1550425  58.9091517  98.3266249   6.9897317  59.3481321  98.4903810
   6.2909554  58.4330170  97.5074495   3.2041931  56.4671252 104.2743737
   3.6796053  56.6598898 103.4662589   2.2807497  56.5230438 104.0287121
   1.9043600  53.3437012 102.5072043   2.8561023  53.4435110 102.5284267
   1.7347051  52.5515281 103.0170127   1.6853487  63.6981392  88.4138024
   1.6067118  63.3641256  89.3073782   2.5063154  64.1903160  88.4129496
   4.3831678  56.5643132 101.6214342   4.3507998  55.6259132 101.8074026
   4.9932302  56.6427168 100.8880167   4.5326166  53.3554175 101.6672626
   4.0165215  52.5712632 101.4802554   5.4166115  53.0272892 101.8319145
   2.1936893  47.0995191  97.6268438   1.9961714  46.7910279  98.5111770
   2.8036599  47.8256830  97.7566368  10.2008228  57.6259139 100.7620379
  10.9311616  57.3644427 101.3228083   9.5915173  56.8887860 100.8022447
   8.2823525  55.7667001 101.3594830   7.5556688  55.6322966 100.7511322
   7.8670812  56.0743830 102.1651548   1.3289347  49.0904623  94.8843634
   0.7488016  49.7489427  94.5021686   1.0625280  48.2681967  94.4731051
   3.4628761  51.2751234  97.6554321   4.2389151  51.7647687  97.9278938
   2.7376895  51.7009288  98.1126191   5.9001320  51.9878853  98.7128262
   6.4945811  51.7474589  98.0021570   5.9727904  51.2685984  99.3401798
   3.8960055  52.5548981  94.9800392   3.6396989  52.1545617  95.8108600
   3.2712923  53.2692775  94.8550531   8.2072393  55.2945054  97.4871683
   7.6471951  55.3638243  98.2603245   7.6015896  55.1186039  96.7671179
   1.1644136  61.4531917  90.0846462   1.9989740  61.0213115  89.9023937
   1.0028479  61.2813931  91.0123357   9.7928411  71.9701568 100.1801639
  10.4306821  71.8508315  99.4764979   9.6749254  72.9182412 100.2389591
   6.6018117  71.9228996 100.1163164   6.2636629  71.8070061  99.2283699
   7.4707886  71.5220161 100.0964170   2.4604933  73.7764473  96.1060055
   1.8969798  73.6854410  95.3376342   2.3457328  72.9564377  96.5862547
   7.0837900  73.0763848 106.0749369   7.0726541  72.6816646 105.2029873
   7.2458540  72.3429921 106.6683141   8.0404492  77.4435440  91.4174520
   7.3892471  78.0289521  91.0308533   8.8348855  77.9741635  91.4769557
   1.9660119  74.5324577  91.8161654   2.7390995  73.9853565  91.6774530
   2.3185518  75.3968827  92.0276115   3.8045161  75.8600960 105.0228553
   3.5135027  76.7646591 104.9075219   4.4402146  75.9017487 105.7372623
   4.7301368  73.2377808 101.6129913   5.3264941  73.0133831 100.8986876
   4.7876340  72.4962554 102.2155361   4.3026397  70.6917244  89.4480104
   4.5551917  70.1698765  88.6863567   3.3650956  70.5283389  89.5506787
   9.3469680  69.6953022  97.2554847  10.1332769  69.2772445  96.9045264
   9.6108384  70.5999114  97.4236495   9.5179757  75.1325872  91.9543504
   8.8825590  75.2060499  92.6664408   9.1877163  75.7219471  91.2762583
  14.7478107  69.6328255  98.1587826  15.4803279  69.0627472  98.3925655
  13.9917462  69.2449856  98.5994331   4.0222685  72.5945350  91.6504479
   3.9058944  71.9190253  92.3185563   4.1324945  72.1077723  90.8336632
   6.3654226  72.0555497  95.3551168   6.0012434  71.5286118  96.0664089
   7.2221342  71.6653966  95.1817653  12.2703527  63.3449829 102.6182434
  11.9386852  64.2145240 102.3943649  11.6749140  63.0286113 103.2976465
   6.0059713  67.0845396  90.3512516   6.1734116  67.9525633  90.7182988
   5.8156882  67.2472678  89.4273806   8.7635047  75.5462375 102.0178347
   8.4635770  76.4487414 101.9094154   8.4186106  75.2794558 102.8699500
   2.2147528  71.9976172  98.0515051   1.2898024  71.8652386  98.2592743
   2.4631941  72.7770391  98.5484994  12.1632190  68.0644915  99.6975784
  11.2549068  67.9960324  99.4034545  12.1119786  68.5416860 100.5257610
   5.9848934  69.5403054  91.3359183   5.8648559  69.9860105  92.1744664
   5.2901523  69.8888372  90.7772721   3.7455826  82.3106696  94.9849315
   3.6679856  83.2614521  95.0637795   3.1417470  81.9652568  95.6424241
   6.2373056  69.4834561 107.6410681   5.4606390  70.0428481 107.6313546
   6.8763619  69.9691344 108.1625552  14.0293837  66.2661354 101.4753658
  13.3868217  66.5593887 100.8293453  13.5248765  66.1514274 102.2806855
  11.6834000  70.0124527  92.1639517  12.5951856  70.2451914  91.9887215
  11.1743647  70.5961571  91.6014596   4.4919428  72.2920014 107.2028648
   5.2334113  72.8305058 106.9263472   3.7856414  72.9186303 107.3600200
   9.9674768  74.4349155 105.8000810  10.3758124  73.9931565 105.0555442
   9.2452030  73.8601782 106.0535003   6.3205838  69.3721762 103.1734367
   7.1667033  69.7961175 103.3169016   6.2604476  68.7155386 103.8672930
  10.2903583  74.9950345  99.5553099   9.6612445  75.1596060  98.8529167
   9.9029245  75.4091955 100.3264063  14.1692815  75.9304783  96.9097463
  13.4843853  76.3103685  96.3594496  14.2536664  76.5400110  97.6429410
   9.4705283  67.0326130 104.8315541   9.2266215  67.7868191 104.2949816
   9.7465214  67.4111478 105.6662788  11.4243746  73.5764742 103.5092806
  11.6360641  74.2196502 102.8327187  11.3773494  72.7427059 103.0414736
   9.0269975  66.1882563 100.4129378   8.1654454  66.4863817 100.7046116
   9.0532410  66.4052962  99.4810411   5.8431545  74.7324754  96.8203184
   6.3069890  75.0112457  96.0307806   5.5788343  73.8308198  96.6376275
   2.7355626  74.2796235  99.7582947   3.3056983  74.7083503  99.1200432
   3.3263737  73.9978820 100.4567133   4.7800431  70.8547906  93.6292749
   5.4824474  71.3068950  94.0966675   4.4481059  70.2131725  94.2572642
   3.2280792  69.4459663 108.0043958   2.5979453  70.1275943 108.2379355
   3.1216880  69.3342744 107.0597097  12.5389574  76.4536698 101.6815163
  13.3607018  76.0516885 101.3997845  12.5351977  76.3504932 102.6331279
   6.3046178  76.0020741 103.8375874   6.3690610  76.4641148 104.6734046
   5.5957101  75.3718106 103.9658184  20.6295567  72.7975446  98.0300135
  19.8759276  72.2282844  97.8744139  20.7643108  72.7638111  98.9770770
   6.0194195  77.6688849  93.7054854   5.8839870  78.5140384  94.1339702
   6.5604008  77.8708126  92.9420788   2.5061535  63.7480428 110.3669209
   2.1128480  63.1946627 111.0416854   3.3227675  64.0591007 110.7575727
   1.2818477  78.3030043  96.3605533   1.4585106  79.2248008  96.1726516
   2.0775311  77.9888462  96.7899912   5.4229496  65.1638307 107.9589466
   6.1639209  65.7645461 107.8793929   5.6547419  64.4215945 107.4007509
   7.6462672  78.2912415 107.8355196   7.2026526  77.5048794 107.5176101
   8.3079885  78.4791566 107.1699087   2.4049793  79.8208217 102.3615875
   2.9557218  79.6925280 101.5892869   1.5661269  80.1203106 102.0110768
   9.7443910  78.5715215 105.8636598   9.7262385  79.3924096 105.3716867
  10.6663830  78.4469290 106.0886739   6.2016964  76.0859344 106.7060106
   6.7345301  75.3247633 106.4759414   5.6731045  75.7932996 107.4484260
   9.3686659  61.1919410 102.2353748   9.0250928  62.0821052 102.1592858
   9.7365621  61.0021068 101.3723333   9.3336942  71.1828022  90.7426183
   8.8183565  71.9532626  90.9814570   9.0614250  70.5093158  91.3659244
   6.9184053  66.0277722  95.8011421   6.0625649  65.6384573  95.6217060
   7.3311004  66.1069683  94.9411207   8.4483199  63.5624066 100.2002981
   7.9447995  63.5254201  99.3870786   8.7413806  64.4716808 100.2599638
   4.6926085  63.6462795  99.2069163   5.5579082  63.4505604  98.8475052
   4.7603594  63.4173147 100.1338519  14.3071216  73.9360376  92.6779356
  13.5300658  73.5971536  92.2334518  14.9862697  73.9412999  92.0034321
   9.1223245  69.0555114  92.5685964   8.8173380  69.3701263  93.4196107
  10.0753687  69.1336534  92.6113297   7.5669677  75.2145337  94.2178918
   7.0391038  74.4798097  93.9052155   7.0657179  75.9920013  93.9718886
  12.5462523  73.4094357  99.3345964  11.8886197  74.0993619  99.4226093
  13.3502922  73.7990789  99.6779951   2.2988404  65.8765003  96.5785530
   2.8732156  65.6540185  95.8458722   2.8859387  65.9453698  97.3314131
  11.3567981  71.7638730  97.3849906  11.8699863  72.3968722  97.8871616
  12.0069205  71.1639926  97.0193266   2.6257991  67.9069464  90.5981415
   1.7895304  68.2444151  90.9190690   2.4862761  67.7718444  89.6608552
   4.6011072  62.7506252  95.3060599   3.9475484  62.4355269  94.6817214
   4.5591546  62.1281993  96.0320422   5.7122277  73.0325547  87.2213891
   4.8049338  72.8014801  87.4205040   6.2093309  72.2363166  87.4087873
   8.6190356  81.7423054  90.1410577   7.9452054  82.0454751  90.7495535
   9.0056178  82.5452135  89.7916034   7.8348812  69.2388186  99.6308247
   6.9171374  69.4603133  99.4729935   8.2508956  69.3134496  98.7719954
   8.6183860  70.6379601  94.7610927   9.3655679  71.1500999  94.4518049
   8.8875450  70.3163654  95.6215320   6.8910510  73.1338142  91.7437881
   5.9821729  72.8497175  91.8410351   6.9205594  73.5537221  90.8841188
  12.1229778  76.7444732  95.5129049  11.6692105  75.9035641  95.5694239
  11.4923744  77.3806130  95.8503829  11.0662697  67.6736718  96.7429716
  10.3285454  67.1614104  97.0739959  11.3189471  67.2337099  95.9312993
  10.5662717  78.5821228  96.4478867  10.8585691  79.1426285  95.7291232
  11.0761337  78.8749789  97.2032026  11.1674324  60.4512970  97.3371485
  11.4733201  59.5910333  97.0497400  11.8926929  61.0430590  97.1370479
   5.4395404  70.7466763  97.8447676   5.4944014  69.7940599  97.7690153
   4.6286606  70.9026202  98.3288975   6.5886598  74.6746886  89.0825960
   6.1506028  73.9582745  88.6231597   7.3297039  74.9023001  88.5211051
   3.3787764  69.3643822  95.6038055   2.5655630  69.6637993  96.0103247
   3.8746758  68.9699511  96.3212538   5.5296342  79.3601579  97.5372320
   5.4872521  79.5862426  96.6080852   6.4459041  79.1264954  97.6858121
   8.9761976  69.8285647 104.4352949   9.3311364  70.0557120 105.2947415
   9.6234107  70.1604024 103.8130205  14.7059713  72.9504083  95.1402278
  14.5677611  73.1405679  94.2123467  14.3495932  73.7123466  95.5970329
   2.8701839  66.9362178 101.2199290   3.5101218  66.7950937 100.5222254
   2.0379369  66.6496691 100.8437892  14.7329092  75.0180610 100.1513550
  15.1665599  74.9255899 100.9996604  15.4460673  74.9938110  99.5133566
   3.6462143  76.2364608  97.3334283   4.4402741  75.7414929  97.1316858
   2.9353835  75.7082472  96.9701988   8.4656987  78.6182704 101.6846650
   8.5194010  79.1873640 102.4524366   7.5971769  78.7884589 101.3200688
   1.3455381  68.3200260 103.1671102   2.0178434  68.1117622 102.5183751
   0.5185167  68.1222346 102.7276334  15.5944642  75.0604310 102.6846435
  15.7880532  75.9650121 102.9305710  15.4945260  74.6011730 103.5185020
   7.2480953  64.9462201 105.1836763   6.6008868  65.6452151 105.0901239
   8.0181968  65.3798345 105.5513011  10.6559751  75.2111053 108.2587316
  10.5045257  74.9821605 107.3417399  10.6464430  76.1681655 108.2718661
   7.4245087  72.7842966 103.2433582   8.3537147  72.9354126 103.0702550
   7.0036117  72.8726987 102.3882229   6.2233419  76.8093630 101.0132120
   6.0844504  76.4412415 101.8858058   5.4348015  77.3241270 100.8416078
   6.8181571  81.9102727  92.3557656   6.9933326  81.4390770  93.1703279
   6.1314359  82.5368493  92.5838917   7.7738634  76.1875233  98.4020958
   7.4388467  76.1476003  99.2978608   7.2742580  75.5219949  97.9291368
   1.7482878  71.5942863 103.9273539   1.6102676  70.8623102 104.5285078
   2.6587801  71.5051763 103.6457727  10.7097826  73.5331267  88.6758017
  10.0926996  72.8078096  88.5791070  10.2414314  74.2940628  88.3325092
   4.3765179  71.3062822 103.4157218   5.0864797  70.6656015 103.3743837
   4.3334487  71.5575717 104.3383399  12.3651957  78.2430176 106.3363798
  12.3064503  77.5589396 105.6694381  12.7671476  78.9849166 105.8844424
   3.0894113  68.2928040 105.2352858   2.5531470  67.8418779 105.8874454
   2.5010821  68.4273949 104.4923322   1.3842656  85.0592090  99.1297517
   1.6239254  85.6910614  99.8076535   0.5411853  84.7080130  99.4162876
   2.4996372  67.7516692  87.7979322   1.6225838  67.6305492  87.4341568
   2.9754125  66.9602770  87.5458210  12.3669365  76.2069760 104.5677777
  11.4796143  75.8695681 104.6904176  12.9367916  75.4752791 104.8046543
   5.8970518  80.8671212 101.5339021   5.8240689  81.6726184 102.0458325
   5.4547911  81.0663178 100.7087042   5.6860298  80.1042982  95.0441842
   4.9027819  80.6464662  95.1380067   6.3853043  80.6216962  95.4436083
   8.9956948  65.9137612  97.6876047   9.4925647  65.1607574  97.3677118
   8.2243929  65.9501928  97.1219257  16.8486705  71.6177977  99.3294339
  16.8376581  72.5002692  98.9588272  15.9804084  71.2649528  99.1348876
   8.3569201  80.7658046 103.6897179   9.0697174  81.4005511 103.6173081
   7.8659230  80.8621912 102.8737181  10.0786728  74.6709299  95.2614471
   9.1443007  74.7910761  95.0919175  10.2563397  73.7681766  94.9974481
   5.5791916  68.0554995  97.4147732   5.2089704  67.5026035  98.1028638
   6.0751009  67.4513128  96.8622732  13.4659280  70.5126618  95.7964505
  13.9319732  71.3454610  95.7224808  13.9166780  70.0471600  96.5009764
   3.4081115  78.5152490 104.5102750   4.1090574  79.1488973 104.6632144
   2.9376230  78.8567221 103.7498389  11.5335511  76.8570439  92.7950657
  11.8095355  76.7427034  93.7044531  10.6640010  76.4587924  92.7562830
  11.4375942  62.8807205  99.8355406  10.5239022  63.1111432 100.0037613
  11.8669044  62.9645649 100.6869439  11.2082401  71.0697097 102.3355300
  10.5553851  71.3173004 101.6807753  11.5862781  70.2561235 102.0017778
   8.1689575  81.1056790  96.4383471   8.3511969  80.2878446  96.9011223
   8.9922561  81.3224482  96.0008361   8.5031740  80.0324975  93.6998519
   9.0319507  79.5217430  93.0868681   8.7659960  79.7167506  94.5644052
   7.2569974  71.8116908 108.8221337   6.5810611  71.7111037 109.4923713
   8.0797608  71.6556122 109.2857335   1.8587488  81.0840092  96.4596295
   1.1897864  81.5686220  95.9760335   1.7200358  81.3309312  97.3739674
   5.9992757  83.1183835 103.0578953   6.5511065  83.2815457 103.8228039
   6.3398950  83.7088273 102.3858978   0.9757250  65.4658985 103.6600838
   1.0398577  66.3273816 103.2478236   0.9124370  64.8532987 102.9273197
  10.8503631  77.9445093 108.9127608  11.3943535  78.5575051 108.4182563
  10.2690476  78.5024671 109.4294621   9.1361144  81.0665811 100.0442636
   9.0112284  80.2655551  99.5353581   9.7940235  81.5612004  99.5556606
  11.1996052  78.8674831 101.6722186  10.2526388  78.7480182 101.6000512
  11.5478826  77.9797329 101.7548447   3.5595626  64.7568970 105.4960428
   4.0830028  65.0031267 106.2586737   3.3407959  65.5889005 105.0763565
   8.2042486  78.6627547  97.8726538   8.0567448  77.7344255  98.0534108
   9.0295979  78.6847638  97.3883613   2.0704730  67.3145614  93.7307030
   2.4100803  67.8431536  93.0085638   2.5176851  67.6526021  94.5065597
  11.8076608  79.4856106  98.9591411  12.7323155  79.2798967  98.8215862
  11.6391911  79.2372507  99.8680752   4.7648171  65.6982665 103.1810098
   4.4244991  64.8990478 103.5830778   4.0587177  65.9984376 102.6086931
   5.4164643  62.7831978 101.6337421   6.2390712  62.3092456 101.5116311
   5.6602706  63.5622461 102.1336107   4.0572877  65.8120236  91.9300323
   4.7781240  66.1901489  91.4264040   3.4338181  66.5309113  92.0335301
   8.2004000  66.5165385  92.8658655   8.4167614  67.3990023  92.5647483
   7.7198067  66.1251598  92.1364297   2.9403221  69.4751098  99.4429400
   2.7947802  69.7891401 100.3353681   2.4628425  70.0935999  98.8900298
   4.7999604  66.4653646  99.4910289   4.7861173  65.5694739  99.1542587
   5.5172032  66.4724310 100.1248575   6.6525735  66.8990986 101.5363417
   6.3943513  67.8208057 101.5347747   6.1210775  66.5021421 102.2263881
  11.5971924  80.0041773  94.3153502  11.7708801  79.4388196  93.5627355
  12.0900815  80.8042668  94.1332992   4.2036500  65.3468026  94.7597859
   4.3252412  64.4184673  94.9588747   3.9138543  65.3606712  93.8476175
   7.0727691  63.0322937  97.8964579   7.0949388  63.0962270  96.9416559
   7.4895750  62.1927446  98.0905085  17.4511315  72.7678196  95.9343802
  17.8942461  72.0185522  95.5362925  16.5737825  72.7588333  95.5517534
  12.5847096  79.3208538  91.4150400  13.2798001  79.9415231  91.6337715
  12.9270246  78.4703889  91.6902778  14.4838519  76.7708243  92.9437731
  15.0089844  77.1095516  92.2187051  14.3960872  75.8355259  92.7600866
   6.1458568  80.6842317 105.0727608   6.4545695  80.4391464 105.9450307
   6.9434050  80.8888956 104.5846478   6.1679180  82.8380227  97.3032984
   5.7284170  82.3456605  97.9965841   6.9187297  82.2953194  97.0625060
   3.6153052  78.3818236  99.3755286   2.9933062  77.7188941  99.0757514
   4.2857919  78.4079368  98.6928934   3.6877580  66.8600024 108.9687792
   3.7365735  67.7362147 108.5865562   4.2300094  66.3177417 108.3959435
  14.1732426  77.4041147 108.2488929  13.3827969  77.3865286 107.7093429
  13.9365780  77.9429441 109.0037966  14.2930301  74.2533613 105.5621658
  14.3428306  74.0883621 106.5037180  14.1844224  73.3860872 105.1719538
   3.1766559  76.9322159  92.8513747   3.3254680  77.6157624  92.1980419
   3.9833003  76.9127249  93.3663202  11.5834063  70.2364541 106.8780964
  12.4843926  70.0971006 106.5864962  11.6582037  70.4018996 107.8179142
   5.9176868  67.6131396 105.7234151   5.0480178  67.9064962 105.4516739
   6.1536349  68.1971841 106.4441414  15.7948497  76.6730555 105.8063679
  15.5033306  77.0360536 106.6427140  15.1820629  75.9597563 105.6277011
  16.9944180  74.2383435  98.3266249  17.8291071  74.6773239  98.4903810
  17.1303309  73.7622088  97.5074495  14.0435686  71.7963170 104.2743737
  14.5189807  71.9890816 103.4662589  13.1201251  71.8522355 104.0287121
   0.9319192  72.9587337  93.8574815   0.6865234  72.0549667  94.0555026
   1.1015107  72.9604487  92.9154293   8.6215902  63.8311013 103.2399571
   9.1397846  64.5672040 102.9146060   8.2671035  64.1375006 104.0746330
   8.8728496  60.2511296  98.7600468   9.1530250  59.5834485  99.3860894
   9.6579103  60.4440391  98.2475132   6.6761965  79.4270290  90.3225494
   6.1035932  80.0460477  89.8695966   7.2494758  79.9769651  90.8565416
  12.7437355  68.6728930 102.5072043  13.6954778  68.7727027 102.5284267
  12.5740805  67.8807198 103.0170127  10.7651734  65.7584513 102.6931444
  10.1701666  66.0389526 101.9977932  10.4801431  66.2478414 103.4648185
   9.8959225  79.7107440  91.4534076  10.8289898  79.6453001  91.6566952
   9.8082437  80.5463707  90.9948609  12.5247241  79.0273310  88.4138024
  12.4460873  78.6933174  89.3073782  13.3456908  79.5195078  88.4129496
  15.2225432  71.8935049 101.6214342  15.1901753  70.9551050 101.8074026
  15.8326056  71.9719086 100.8880167   7.0608763  70.7631102  87.6641546
   8.0067868  70.6337310  87.7329965   6.6823008  70.0245764  88.1410975
  15.3719921  68.6846093 101.6672626  14.8558970  67.9004549 101.4802554
  16.2559869  68.3564809 101.8319145  13.0330648  62.4287108  97.6268438
  12.8355469  62.1202197  98.5111770  13.6430353  63.1548747  97.7566368
  21.0401982  72.9551056 100.7620379  21.7705371  72.6936344 101.3228083
  20.4308928  72.2179778 100.8022447  19.1217279  71.0958919 101.3594830
  18.3950443  70.9614884 100.7511322  18.7064566  71.4035747 102.1651548
   6.9447456  74.8148848 109.1242203   7.8650465  74.9927447 109.3182250
   6.9097039  73.8704894 108.9721903   5.2451680  68.6881079  87.5996432
   4.3383136  68.3914191  87.6759145   5.5227661  68.3910897  86.7330718
   6.8613746  63.2317968  93.7540673   6.0514474  62.8865053  94.1295919
   7.5498163  62.9225512  94.3428285   8.7904294  62.3096015  95.3764970
   9.3435333  62.7291469  96.0354993   9.0274381  61.3831763  95.4187926
   4.8137394  68.2983089 111.1567734   4.7134121  69.2477446 111.0879825
   4.5958936  67.9701328 110.2843804   4.0150465  65.5468014  87.7408411
   4.8769629  65.8722912  88.0004228   4.2000809  64.7599510  87.2281477
  12.1683102  64.4196540  94.8843634  11.5881771  65.0781344  94.5021686
  11.9019034  63.5973885  94.4731051  10.6186668  63.8201598  97.0864954
  11.1186446  63.9318133  96.2779273  11.2622276  63.5162651  97.7265763
   4.6768664  71.7280228 109.9732795   4.1935745  72.5280588 110.1796684
   4.7629603  71.7388173 109.0200239   0.6042001  75.6184762 102.0101229
   1.5585255  75.5868705 101.9431161   0.4054525  75.1575386 102.8251455
   1.1941383  74.1885878 104.5772027   2.0134272  74.6829957 104.6006864
   1.4678191  73.2717847 104.5489594  10.9507980  66.5796631  93.9399982
  10.0633835  66.8646281  93.7220177  11.3661969  66.4190394  93.0927259
  14.3022516  66.6043152  97.6554321  15.0782906  67.0939604  97.9278938
  13.5770650  67.0301206  98.1126191  16.7395074  67.3170771  98.7128262
  17.3339565  67.0766507  98.0021570  16.8121658  66.5977902  99.3401798
  10.0951193  76.3441305  88.0348002  10.7987043  76.5491308  88.6505658
   9.3713842  76.9118067  88.2997086  10.9249003  72.0951167  94.1550272
  10.8684205  72.5519718  93.3157905  11.4777346  71.3341851  93.9773115
  14.7353809  67.8840899  94.9800392  14.4790743  67.4837534  95.8108600
  14.1106677  68.5984693  94.8550531  19.0466147  70.6236972  97.4871683
  18.4865705  70.6930161  98.2603245  18.4409650  70.4477956  96.7671179
   2.1161356  82.0573699  99.2389870   1.9993740  83.0019131  99.1368560
   1.2953802  81.7547261  99.6275669  12.0037890  76.7823835  90.0846462
  12.8383494  76.3505033  89.9023937  11.8422233  76.6105848  91.0123357
  11.6583783  73.2855948  91.4502802  11.6032586  73.1200219  90.5091246
  11.0329838  73.9931981  91.6064991   8.9729690  75.5904860 110.7756364
   9.8420849  75.7645512 110.4142999   8.4936441  76.4099277 110.6532094
   4.9679908  62.7864057  91.0288120   4.9558578  63.7305897  91.1856391
   5.8603330  62.6034202  90.7347581   3.1415870  82.7101961 102.4545798
   4.0443117  82.7425571 102.7712293   2.9153240  81.7802412 102.4692134
   4.8969472  81.4632947  99.1155877   3.9465103  81.4634809  99.0020249
   5.2001958  80.7165682  98.5991911   8.7832028  59.3806834  95.2834057
   8.0164423  58.8265320  95.4290739   9.1942733  59.4528702  96.1448208
  20.6322166  87.2993486 100.1801639  21.2700575  87.1800233  99.4764979
  20.5143008  88.2474330 100.2389591  17.4411872  87.2520914 100.1163164
  17.1030383  87.1361979  99.2283699  18.3101640  86.8512079 100.0964170
  13.2998687  89.1056390  96.1060055  12.7363553  89.0146327  95.3376342
  13.1851083  88.2856295  96.5862547  17.9231655  88.4055766 106.0749369
  17.9120296  88.0108564 105.2029873  18.0852294  87.6721838 106.6683141
  10.8463119  90.6007582  98.9444275  11.6384411  90.2598407  98.5290574
  11.0859770  90.7102557  99.8646428  18.8798246  92.7727358  91.4174520
  18.2286226  93.3581438  91.0308533  19.6742609  93.3033553  91.4769557
  12.8053873  89.8616495  91.8161654  13.5784749  89.3145482  91.6774530
  13.1579272  90.7260744  92.0276115  14.6438916  91.1892877 105.0228553
  14.3528782  92.0938508 104.9075219  15.2795900  91.2309405 105.7372623
  15.5695123  88.5669726 101.6129913  16.1658695  88.3425748 100.8986876
  15.6270094  87.8254471 102.2155361  15.1420151  86.0209161  89.4480104
  15.3945672  85.4990683  88.6863567  14.2044710  85.8575307  89.5506787
  20.1863434  85.0244940  97.2554847  20.9726523  84.6064363  96.9045264
  20.4502138  85.9291032  97.4236495  20.3573511  90.4617790  91.9543504
  19.7219344  90.5352416  92.6664408  20.0270918  91.0511389  91.2762583
  25.5871861  84.9620173  98.1587826  26.3197033  84.3919390  98.3925655
  24.8311217  84.5741773  98.5994331  14.8616440  87.9237267  91.6504479
  14.7452698  87.2482171  92.3185563  14.9718700  87.4369641  90.8336632
  17.2047981  87.3847414  95.3551168  16.8406188  86.8578035  96.0664089
  18.0615097  86.9945883  95.1817653  23.1097281  78.6741747 102.6182434
  22.7780606  79.5437158 102.3943649  22.5142895  78.3578031 103.2976465
  16.8453468  82.4137314  90.3512516  17.0127870  83.2817550  90.7182988
  16.6550637  82.5764596  89.4273806  19.6028801  90.8754293 102.0178347
  19.3029524  91.7779332 101.9094154  19.2579861  90.6086476 102.8699500
  13.0541282  87.3268090  98.0515051  12.1291779  87.1944304  98.2592743
  13.3025696  88.1062309  98.5484994  23.0025945  83.3936833  99.6975784
  22.0942822  83.3252242  99.4034545  22.9513541  83.8708778 100.5257610
  16.8242689  84.8694972  91.3359183  16.7042314  85.3152022  92.1744664
  16.1295277  85.2180289  90.7772721  10.4150094  86.9701363  98.8858840
  10.5442475  87.2235842  99.7998252   9.7347545  87.5629071  98.5663495
  14.5849581  97.6398613  94.9849315  14.5073611  98.5906438  95.0637795
  13.9811224  97.2944486  95.6424241  17.0766811  84.8126479 107.6410681
  16.3000145  85.3720399 107.6313546  17.7157374  85.2983262 108.1625552
  24.8687591  81.5953272 101.4753658  24.2261971  81.8885805 100.8293453
  24.3642520  81.4806192 102.2806855  22.5227755  85.3416445  92.1639517
  23.4345611  85.5743831  91.9887215  22.0137402  85.9253489  91.6014596
  15.3313183  87.6211932 107.2028648  16.0727867  88.1596976 106.9263472
  14.6250168  88.2478221 107.3600200  20.8068523  89.7641073 105.8000810
  21.2151879  89.3223483 105.0555442  20.0845784  89.1893700 106.0535003
  17.1599593  84.7013679 103.1734367  18.0060788  85.1253093 103.3169016
  17.0998230  84.0447304 103.8672930  21.1297337  90.3242263  99.5553099
  20.5006200  90.4887977  98.8529167  20.7422999  90.7383873 100.3264063
  25.0086569  91.2596701  96.9097463  24.3237607  91.6395602  96.3594496
  25.0930418  91.8692028  97.6429410  20.3099038  82.3618048 104.8315541
  20.0659970  83.1160108 104.2949816  20.5858968  82.7403395 105.6662788
  22.2637501  88.9056660 103.5092806  22.4754396  89.5488420 102.8327187
  22.2167249  88.0718977 103.0414736  19.8663730  81.5174481 100.4129378
  19.0048209  81.8155734 100.7046116  19.8926164  81.7344880  99.4810411
  16.6825299  90.0616671  96.8203184  17.1463645  90.3404374  96.0307806
  16.4182097  89.1600116  96.6376275  13.5749380  89.6088153  99.7582947
  14.1450737  90.0375421  99.1200432  14.1657492  89.3270737 100.4567133
  15.6194185  86.1839824  93.6292749  16.3218228  86.6360867  94.0966675
  15.2874814  85.5423642  94.2572642  14.0674547  84.7751580 108.0043958
  13.4373207  85.4567861 108.2379355  13.9610635  84.6634662 107.0597097
   9.3619519  84.4423376  98.9309883   8.5718573  84.6980905  98.4549993
   9.8530766  85.2571714  99.0361923  23.3783329  91.7828615 101.6815163
  24.2000772  91.3808803 101.3997845  23.3745732  91.6796850 102.6331279
  11.3134264  84.8067956  95.8893359  10.5165428  84.9186650  96.4076855
  11.0859857  85.1454608  95.0234250  17.1439932  91.3312659 103.8375874
  17.2084365  91.7933066 104.6734046  16.4350856  90.7010024 103.9658184
   7.6457222  84.6953867 101.3624873   7.8965260  85.5800877 101.6282449
   8.1816770  84.5158468 100.5899965  31.4689322  88.1267364  98.0300135
  30.7153030  87.5574762  97.8744139  31.6036863  88.0930028  98.9770770
  16.8587950  92.9980766  93.7054854  16.7233625  93.8432302  94.1339702
  17.3997762  93.2000044  92.9420788  13.3455289  79.0772346 110.3669209
  12.9522235  78.5238545 111.0416854  14.1621430  79.3882925 110.7575727
  10.3117347  90.5156204  94.2782779  10.8241868  91.3099455  94.4288344
  10.9640060  89.8182495  94.2116381  12.1212232  93.6321961  96.3605533
  12.2978860  94.5539925  96.1726516  12.9169065  93.3180380  96.7899912
  16.2623250  80.4930225 107.9589466  17.0032964  81.0937378 107.8793929
  16.4941173  79.7507863 107.4007509  11.4064588  85.6786592 106.2367696
  11.2918104  84.7771850 106.5374795  10.5509106  85.9250289 105.8852512
  18.4856426  93.6204333 107.8355196  18.0420280  92.8340711 107.5176101
  19.1473640  93.8083483 107.1699087  13.2443547  95.1500134 102.3615875
  13.7950972  95.0217198 101.5892869  12.4055023  95.4495023 102.0110768
  20.5837664  93.9007133 105.8636598  20.5656140  94.7216014 105.3716867
  21.5057584  93.7761208 106.0886739  17.0410718  91.4151262 106.7060106
  17.5739055  90.6539550 106.4759414  16.5124799  91.1224914 107.4484260
  20.2080413  76.5211328 102.2353748  19.8644683  77.4112970 102.1592858
  20.5759376  76.3312986 101.3723333   8.2766264  88.8444859  95.0542350
   9.1141486  89.2541867  94.8376058   8.4544532  87.9044301  95.0242544
  20.1730696  86.5119939  90.7426183  19.6577319  87.2824544  90.9814570
  19.9008004  85.8385075  91.3659244  17.7577807  81.3569640  95.8011421
  16.9019403  80.9676490  95.6217060  18.1704759  81.4361601  94.9411207
  19.2876954  78.8915983 100.2002981  18.7841749  78.8546118  99.3870786
  19.5807561  79.8008726 100.2599638  15.5319840  78.9754713  99.2069163
  16.3972836  78.7797522  98.8475052  15.5997348  78.7465065 100.1338519
  25.1464970  89.2652294  92.6779356  24.3694413  88.9263453  92.2334518
  25.8256451  89.2704917  92.0034321  19.9616999  84.3847031  92.5685964
  19.6567135  84.6993180  93.4196107  20.9147441  84.4628451  92.6113297
  18.4063431  90.5437255  94.2178918  17.8784793  89.8090014  93.9052155
  17.9050934  91.3211931  93.9718886  23.3856277  88.7386275  99.3345964
  22.7279951  89.4285537  99.4226093  24.1896676  89.1282707  99.6779951
  13.1382159  81.2056921  96.5785530  13.7125911  80.9832102  95.8458722
  13.7253141  81.2745615  97.3314131  22.1961736  87.0930648  97.3849906
  22.7093618  87.7260640  97.8871616  22.8462960  86.4931843  97.0193266
  13.4651746  83.2361382  90.5981415  12.6289058  83.5736068  90.9190690
  13.3256515  83.1010362  89.6608552  15.4404826  78.0798170  95.3060599
  14.7869239  77.7647187  94.6817214  15.3985301  77.4573910  96.0320422
  16.5516031  88.3617465  87.2213891  15.6443093  88.1306718  87.4205040
  17.0487063  87.5655084  87.4087873  19.4584110  97.0714972  90.1410577
  18.7845809  97.3746669  90.7495535  19.8449932  97.8744052  89.7916034
  18.6742567  84.5680103  99.6308247  17.7565128  84.7895050  99.4729935
  19.0902710  84.6426414  98.7719954  19.4577614  85.9671519  94.7610927
  20.2049433  86.4792916  94.4518049  19.7269204  85.6455572  95.6215320
  17.7304265  88.4630060  91.7437881  16.8215484  88.1789093  91.8410351
  17.7599348  88.8829138  90.8841188  22.9623532  92.0736649  95.5129049
  22.5085859  91.2327559  95.5694239  22.3317499  92.7098048  95.8503829
  21.9056452  83.0028635  96.7429716  21.1679208  82.4906022  97.0739959
  22.1583225  82.5629017  95.9312993  21.4056471  93.9113146  96.4478867
  21.6979446  94.4718203  95.7291232  21.9155092  94.2041707  97.2032026
  22.0068079  75.7804887  97.3371485  22.3126956  74.9202251  97.0497400
  22.7320684  76.3722507  97.1370479   8.2992435  86.1835574  95.7253083
   8.1016835  85.5904935  95.0004150   7.7439099  85.8787784  96.4429022
  16.2789159  86.0758680  97.8447676  16.3337768  85.1232517  97.7690153
  15.4680361  86.2318119  98.3288975  17.4280352  90.0038803  89.0825960
  16.9899782  89.2874662  88.6231597  18.1690793  90.2314918  88.5211051
  14.2181519  84.6935740  95.6038055  13.4049384  84.9929911  96.0103247
  14.7140513  84.2991429  96.3212538  16.3690097  94.6893497  97.5372320
  16.3266275  94.9154343  96.6080852  17.2852795  94.4556872  97.6858121
  19.8155730  85.1577565 104.4352949  20.1705118  85.3849038 105.2947415
  20.4627862  85.4895941 103.8130205  25.5453467  88.2796000  95.1402278
  25.4071366  88.4697596  94.2123467  25.1889686  89.0415383  95.5970329
  13.7095593  82.2654096 101.2199290  14.3494973  82.1242855 100.5222254
  12.8773124  81.9788609 100.8437892  25.5722847  90.3472527 100.1513550
  26.0059354  90.2547817 100.9996604  26.2854428  90.3230028  99.5133566
  14.4855897  91.5656526  97.3334283  15.2796496  91.0706846  97.1316858
  13.7747590  91.0374389  96.9701988  19.3050742  93.9474622 101.6846650
  19.3587764  94.5165558 102.4524366  18.4365523  94.1176507 101.3200688
  10.7938661  85.7099608  93.4094035   9.8636249  85.6484063  93.6263998
  10.8896133  85.1875561  92.6130677  10.7124210  82.2354421  95.9972277
  10.9731027  83.1499754  95.8881438  11.5341382  81.7678863  96.1468890
  12.1849135  83.6492178 103.1671102  12.8572189  83.4409540 102.5183751
  11.3578922  83.4514264 102.7276334  26.4338396  90.3896228 102.6846435
  26.6274286  91.2942039 102.9305710  26.3339015  89.9303647 103.5185020
  18.0874707  80.2754119 105.1836763  17.4402622  80.9744068 105.0901239
  18.8575723  80.7090263 105.5513011  21.4953505  90.5402971 108.2587316
  21.3439012  90.3113523 107.3417399  21.4858185  91.4973572 108.2718661
  18.2638841  88.1134884 103.2433582  19.1930902  88.2646043 103.0702550
  17.8429872  88.2018904 102.3882229  17.0627173  92.1385548 101.0132120
  16.9238259  91.7704332 101.8858058  16.2741770  92.6533187 100.8416078
  17.6575325  97.2394645  92.3557656  17.8327081  96.7682688  93.1703279
  16.9708113  97.8660411  92.5838917  18.6132388  91.5167151  98.4020958
  18.2782221  91.4767921  99.2978608  18.1136334  90.8511867  97.9291368
  12.5876632  86.9234781 103.9273539  12.4496430  86.1915020 104.5285078
  13.4981556  86.8343681 103.6457727  21.5491580  88.8623185  88.6758017
  20.9320751  88.1370013  88.5791070  21.0808069  89.6232545  88.3325092
  15.2158933  86.6354740 103.4157218  15.9258552  85.9947932 103.3743837
  15.1728241  86.8867635 104.3383399  23.2045712  93.5722093 106.3363798
  23.1458258  92.8881314 105.6694381  23.6065230  94.3141083 105.8844424
  13.9287867  83.6219958 105.2352858  13.3925224  83.1710696 105.8874454
  13.3404575  83.7565867 104.4923322  12.2236411 100.3884007  99.1297517
  12.4633009 101.0202531  99.8076535  11.3805607 100.0372047  99.4162876
  13.3390126  83.0808609  87.7979322  12.4619592  82.9597410  87.4341568
  13.8147879  82.2894688  87.5458210  23.2063119  91.5361677 104.5677777
  22.3189898  91.1987599 104.6904176  23.7761670  90.8044709 104.8046543
   4.8592266  87.8685769  97.8920829   5.5463306  87.5547499  97.3041844
   4.7040395  88.7727134  97.6188080   9.6626988  82.7575966 102.3205852
   9.5785177  82.1501635 101.5856262   8.8409695  83.2484984 102.3215349
  16.7364272  96.1963130 101.5339021  16.6634444  97.0018101 102.0458325
  16.2941666  96.3955096 100.7087042  16.5254052  95.4334900  95.0441842
  15.7421574  95.9756580  95.1380067  17.2246797  95.9508879  95.4436083
  19.8350702  81.2429529  97.6876047  20.3319402  80.4899492  97.3677118
  19.0637684  81.2793846  97.1219257  27.6880460  86.9469895  99.3294339
  27.6770336  87.8294610  98.9588272  26.8197839  86.5941446  99.1348876
  19.1962956  96.0949964 103.6897179  19.9090928  96.7297429 103.6173081
  18.7052985  96.1913830 102.8737181  20.9180483  90.0001216  95.2614471
  19.9836762  90.1202679  95.0919175  21.0957151  89.0973683  94.9974481
  16.4185671  83.3846912  97.4147732  16.0483458  82.8317953  98.1028638
  16.9144763  82.7805046  96.8622732  24.3053034  85.8418536  95.7964505
  24.7713486  86.6746527  95.7224808  24.7560535  85.3763517  96.5009764
  14.2474869  93.8444407 104.5102750  14.9484329  94.4780890 104.6632144
  13.7769984  94.1859139 103.7498389  22.3729265  92.1862357  92.7950657
  22.6489109  92.0718952  93.7044531  21.5033764  91.7879842  92.7562830
  22.2769697  78.2099123  99.8355406  21.3632777  78.4403350 100.0037613
  22.7062798  78.2937567 100.6869439  22.0476155  86.3989015 102.3355300
  21.3947606  86.6464922 101.6807753  22.4256535  85.5853153 102.0017778
  19.0083329  96.4348708  96.4383471  19.1905724  95.6170364  96.9011223
  19.8316315  96.6516400  96.0008361  19.3425495  95.3616893  93.6998519
  19.8713261  94.8509348  93.0868681  19.6053714  95.0459423  94.5644052
  18.0963728  87.1408826 108.8221337  17.4204365  87.0402955 109.4923713
  18.9191362  86.9848039 109.2857335   9.8442588  93.3780762 101.4433853
  10.4296024  92.6324450 101.5761757   9.6467426  93.6884719 102.3270517
  12.6981243  96.4132010  96.4596295  12.0291618  96.8978137  95.9760335
  12.5594112  96.6601230  97.3739674   4.4360242  85.9486362 100.1638296
   4.4744342  85.4149953 100.9575414   3.9300535  85.4221568  99.5449273
  16.8386511  98.4475753 103.0578953  17.3904819  98.6107375 103.8228039
  17.1792705  99.0380191 102.3858978  11.8151005  80.7950903 103.6600838
  11.8792331  81.6565734 103.2478236  11.7518125  80.1824905 102.9273197
  11.2903277  82.8674036 107.3073872  11.9175316  82.4851113 107.9211397
  10.4331196  82.6488237 107.6729565  21.6897386  93.2737011 108.9127608
  22.2337290  93.8866969 108.4182563  21.1084230  93.8316589 109.4294621
   8.0668820  84.6750465  93.2392227   8.3622261  83.7661143  93.1859281
   7.1656856  84.6538204  92.9173230  19.9754899  96.3957729 100.0442636
  19.8506038  95.5947469  99.5353581  20.6333990  96.8903922  99.5556606
  11.5963067  82.7506461  99.2219776  10.8749653  83.3642429  99.0827249
  12.3856323  83.2864226  99.1436422  22.0389807  94.1966749 101.6722186
  21.0920143  94.0772100 101.6000512  22.3872580  93.3089247 101.7548447
  14.3989380  80.0860888 105.4960428  14.9223782  80.3323184 106.2586737
  14.1801714  80.9180923 105.0763565   9.7956661  82.3564562  93.3631552
   9.4669368  81.4761941  93.1806658  10.1496032  82.3012231  94.2507942
  19.0436240  93.9919465  97.8726538  18.8961203  93.0636172  98.0534108
  19.8689734  94.0139556  97.3883613  12.9098485  82.6437532  93.7307030
  13.2494557  83.1723453  93.0085638  13.3570605  82.9817938  94.5065597
  22.6470362  94.8148024  98.9591411  23.5716910  94.6090885  98.8215862
  22.4785666  94.5664425  99.8680752  15.6041925  81.0274583 103.1810098
  15.2638746  80.2282396 103.5830778  14.8980932  81.3276294 102.6086931
  16.2558397  78.1123895 101.6337421  17.0784467  77.6384373 101.5116311
  16.4996461  78.8914379 102.1336107  14.8966632  81.1412154  91.9300323
  15.6174994  81.5193406  91.4264040  14.2731936  81.8601030  92.0335301
  19.0397755  81.8457303  92.8658655  19.2561369  82.7281941  92.5647483
  18.5591822  81.4543516  92.1364297  13.7796976  84.8043016  99.4429400
  13.6341557  85.1183319 100.3353681  13.3022180  85.4227916  98.8900298
  15.6393359  81.7945564  99.4910289  15.6254928  80.8986657  99.1542587
  16.3565787  81.8016228 100.1248575  17.4919490  82.2282904 101.5363417
  17.2337267  83.1499975 101.5347747  16.9604530  81.8313339 102.2263881
  22.4365678  95.3333691  94.3153502  22.6102556  94.7680114  93.5627355
  22.9294570  96.1334586  94.1332992   8.2542638  87.3448360 102.3817061
   7.7096106  88.1208168 102.5137335   9.1321988  87.6919165 102.2236182
  15.0430255  80.6759944  94.7597859  15.1646166  79.7476590  94.9588747
  14.7532297  80.6898630  93.8476175  17.9121445  78.3614855  97.8964579
  17.9343142  78.4254188  96.9416559  18.3289504  77.5219363  98.0905085
  28.2905070  88.0970114  95.9343802  28.7336216  87.3477439  95.5362925
  27.4131580  88.0880250  95.5517534  23.4240851  94.6500456  91.4150400
  24.1191755  95.2707148  91.6337715  23.7664001  93.7995807  91.6902778
   9.0408660  86.4718257 105.2747218   8.2990396  86.6200892 105.8611848
   8.7201404  86.7326522 104.4113967  25.3232274  92.1000161  92.9437731
  25.8483598  92.4387434  92.2187051  25.2354627  91.1647176  92.7600866
  16.9852323  96.0134235 105.0727608  17.2939449  95.7683382 105.9450307
  17.7827805  96.2180873 104.5846478  17.0072935  98.1672144  97.3032984
  16.5677925  97.6748523  97.9965841  17.7581052  97.6245112  97.0625060
   9.4865274  94.3583685  97.3057612  10.3123294  94.0587457  96.9256256
   9.1359326  93.5891308  97.7547401  14.4546807  93.7110153  99.3755286
  13.8326816  93.0480859  99.0757514  15.1251674  93.7371285  98.6928934
   7.6873879  92.2770012  98.2646546   6.8505787  91.8492186  98.0830547
   7.6597524  92.4702455  99.2017337  14.5271334  82.1891942 108.9687792
  14.5759490  83.0654064 108.5865562  15.0693849  81.6469335 108.3959435
  25.0126180  92.7333065 108.2488929  24.2221724  92.7157204 107.7093429
  24.7759535  93.2721358 109.0037966  25.1324055  89.5825531 105.5621658
  25.1822060  89.4175539 106.5037180  25.0237978  88.7152790 105.1719538
  14.0160314  92.2614077  92.8513747  14.1648434  92.9449541  92.1980419
  14.8226757  92.2419167  93.3663202  22.4227817  85.5656459 106.8780964
  23.3237680  85.4262924 106.5864962  22.4975792  85.7310914 107.8179142
  16.7570623  82.9423314 105.7234151  15.8873932  83.2356880 105.4516739
  16.9930103  83.5263759 106.4441414  26.6342252  92.0022473 105.8063679
  26.3427060  92.3652453 106.6427140  26.0214383  91.2889481 105.6277011
  27.8337934  89.5675352  98.3266249  28.6684826  90.0065156  98.4903810
  27.9697063  89.0914006  97.5074495  24.8829440  87.1255087 104.2743737
  25.3583562  87.3182734 103.4662589  23.9595006  87.1814273 104.0287121
  11.7712947  88.2879254  93.8574815  11.5258989  87.3841584  94.0555026
  11.9408861  88.2896405  92.9154293  19.4609657  79.1602931 103.2399571
  19.9791600  79.8963958 102.9146060  19.1064789  79.4666924 104.0746330
  11.0408594  84.0207612  91.3560977  10.3477839  84.0951967  90.7001013
  10.7960346  83.2567956  91.8782494  19.7122251  75.5803213  98.7600468
  19.9924005  74.9126402  99.3860894  20.4972858  75.7732309  98.2475132
  17.5155719  94.7562207  90.3225494  16.9429686  95.3752394  89.8695966
  18.0888513  95.3061569  90.8565416  23.5831109  84.0020847 102.5072043
  24.5348532  84.1018945 102.5284267  23.4134560  83.2099116 103.0170127
  21.6045489  81.0876431 102.6931444  21.0095421  81.3681443 101.9977932
  21.3195185  81.5770332 103.4648185  20.7352979  95.0399357  91.4534076
  21.6683652  94.9744919  91.6566952  20.6476192  95.8755624  90.9948609
  23.3640996  94.3565228  88.4138024  23.2854627  94.0225091  89.3073782
  24.1850663  94.8486996  88.4129496  26.0619187  87.2226967 101.6214342
  26.0295507  86.2842968 101.8074026  26.6719811  87.3011004 100.8880167
  17.9002518  86.0923020  87.6641546  18.8461623  85.9629228  87.7329965
  17.5216763  85.3537682  88.1410975  26.2113675  84.0138010 101.6672626
  25.6952724  83.2296467 101.4802554  27.0953624  83.6856727 101.8319145
  23.8724402  77.7579026  97.6268438  23.6749223  77.4494114  98.5111770
  24.4824108  78.4840665  97.7566368  31.8795737  88.2842974 100.7620379
  32.6099125  88.0228262 101.3228083  31.2702682  87.5471696 100.8022447
  29.9611034  86.4250836 101.3594830  29.2344197  86.2906801 100.7511322
  29.5458321  86.7327665 102.1651548  17.7841210  90.1440766 109.1242203
  18.7044220  90.3219365 109.3182250  17.7490793  89.1996812 108.9721903
  16.0845435  84.0172996  87.5996432  15.1776890  83.7206109  87.6759145
  16.3621416  83.7202814  86.7330718   7.0023375  85.3379360  98.0495478
   6.6826160  84.4844668  97.7569852   6.4556804  85.5527938  98.8053445
  10.7803283  88.0541801 101.7664985  10.9989293  88.9858909 101.7853018
  11.1929057  87.6949775 102.5519788  17.7007501  78.5609886  93.7540673
  16.8908229  78.2156971  94.1295919  18.3891918  78.2517430  94.3428285
  19.6298049  77.6387933  95.3764970  20.1829088  78.0583386  96.0354993
  19.8668135  76.7123681  95.4187926  15.6531148  83.6275007 111.1567734
  15.5527875  84.5769364 111.0879825  15.4352690  83.2993245 110.2843804
  14.8544220  80.8759932  87.7408411  15.7163384  81.2014830  88.0004228
  15.0394564  80.0891428  87.2281477   6.8711635  88.9582271 100.0188600
   6.1775107  88.5436224  99.5058554   7.6184626  89.0002808  99.4222019
  23.0076856  79.7488458  94.8843634  22.4275525  80.4073262  94.5021686
  22.7412789  78.9265803  94.4731051  21.4580422  79.1493516  97.0864954
  21.9580201  79.2610050  96.2779273  22.1016030  78.8454569  97.7265763
  15.5162418  87.0572145 109.9732795  15.0329500  87.8572506 110.1796684
  15.6023357  87.0680090 109.0200239   8.7848378  88.8900525  97.8954615
   8.7619066  88.9888212  96.9436498   9.0949014  89.7365676  98.2171781
  11.4435756  90.9476680 102.0101229  12.3979009  90.9160622 101.9431161
  11.2448279  90.4867304 102.8251455  12.0335138  89.5177796 104.5772027
  12.8528027  90.0121875 104.6006864  12.3071946  88.6009764 104.5489594
  21.7901734  81.9088548  93.9399982  20.9027589  82.1938199  93.7220177
  22.2055723  81.7482312  93.0927259  25.1416270  81.9335069  97.6554321
  25.9176660  82.4231522  97.9278938  24.4164404  82.3593124  98.1126191
  27.5788829  82.6462689  98.7128262  28.1733320  82.4058425  98.0021570
  27.6515413  81.9269819  99.3401798   9.7985985  96.4896300  99.0271427
   9.6640452  95.7296700  98.4609425   9.3818047  97.2137199  98.5600216
  20.9344948  91.6733223  88.0348002  21.6380798  91.8783226  88.6505658
  20.2107596  92.2409985  88.2997086  21.7642758  87.4243084  94.1550272
  21.7077959  87.8811636  93.3157905  22.3171100  86.6633769  93.9773115
  25.5747564  83.2132816  94.9800392  25.3184498  82.8129452  95.8108600
  24.9500432  83.9276610  94.8550531  29.8859902  85.9528890  97.4871683
  29.3259460  86.0222079  98.2603245  29.2803405  85.7769874  96.7671179
  12.9555110  97.3865617  99.2389870  12.8387495  98.3311049  99.1368560
  12.1347557  97.0839178  99.6275669  22.8431645  92.1115752  90.0846462
  23.6777249  91.6796951  89.9023937  22.6815988  91.9397766  91.0123357
  22.4977537  88.6147866  91.4502802  22.4426341  88.4492137  90.5091246
  21.8723592  89.3223899  91.6064991   7.2870052  83.8515930 105.2764224
   7.9328916  83.3414884 105.7651449   7.0787203  84.5884612 105.8507649
  19.8123444  90.9196778 110.7756364  20.6814604  91.0937430 110.4142999
  19.3330196  91.7391194 110.6532094  15.8073663  78.1155975  91.0288120
  15.7952332  79.0597815  91.1856391  16.6997084  77.9326120  90.7347581
  13.9809625  98.0393879 102.4545798  14.8836871  98.0717489 102.7712293
  13.7546995  97.1094329 102.4692134  15.7363227  96.7924865  99.1155877
  14.7858858  96.7926727  99.0020249  16.0395713  96.0457600  98.5991911
  19.6225782  74.7098751  95.2834057  18.8558178  74.1557238  95.4290739
  20.0336487  74.7820620  96.1448208  11.6267543  80.9983547 109.3739238
  12.4899005  80.6420352 109.5842563  11.0532954  80.6597442 110.0614642
  31.4715920 102.6285403 100.1801639  32.1094330 102.5092151  99.4764979
  31.3536763 103.5766247 100.2389591  28.2805626 102.5812832 100.1163164
  27.9424138 102.4653896  99.2283699  29.1495394 102.1803997 100.0964170
  24.1392442 104.4348308  96.1060055  23.5757307 104.3438245  95.3376342
  24.0244837 103.6148212  96.5862547  28.7625409 103.7347683 106.0749369
  28.7514050 103.3400482 105.2029873  28.9246049 103.0013756 106.6683141
  21.6856874 105.9299500  98.9444275  22.4778166 105.5890324  98.5290574
  21.9253524 106.0394475  99.8646428  29.7192001 108.1019276  91.4174520
  29.0679980 108.6873356  91.0308533  30.5136364 108.6325471  91.4769557
  23.6447628 105.1908413  91.8161654  24.4178504 104.6437400  91.6774530
  23.9973027 106.0552662  92.0276115  25.4832670 106.5184795 105.0228553
  25.1922536 107.4230426 104.9075219  26.1189655 106.5601323 105.7372623
  26.4088877 103.8961644 101.6129913  27.0052450 103.6717666 100.8986876
  26.4663849 103.1546389 102.2155361  25.9813906 101.3501079  89.4480104
  26.2339426 100.8282600  88.6863567  25.0438465 101.1867224  89.5506787
  31.0257188 100.3536857  97.2554847  31.8120278  99.9356280  96.9045264
  31.2895893 101.2582949  97.4236495  31.1967266 105.7909708  91.9543504
  30.5613099 105.8644334  92.6664408  30.8664672 106.3803306  91.2762583
  36.4265616 100.2912091  98.1587826  37.1590788  99.7211307  98.3925655
  35.6704971  99.9033691  98.5994331  25.7010194 103.2529185  91.6504479
  25.5846453 102.5774088  92.3185563  25.8112454 102.7661559  90.8336632
  28.0441735 102.7139332  95.3551168  27.6799943 102.1869953  96.0664089
  28.9008851 102.3237801  95.1817653  33.9491036  94.0033665 102.6182434
  33.6174361  94.8729076 102.3943649  33.3536649  93.6869949 103.2976465
  27.6847222  97.7429232  90.3512516  27.8521625  98.6109468  90.7182988
  27.4944391  97.9056513  89.4273806  30.4422556 106.2046211 102.0178347
  30.1423279 107.1071249 101.9094154  30.0973615 105.9378394 102.8699500
  23.8935037 102.6560007  98.0515051  22.9685533 102.5236222  98.2592743
  24.1419450 103.4354227  98.5484994  33.8419699  98.7228751  99.6975784
  32.9336577  98.6544159  99.4034545  33.7907295  99.2000696 100.5257610
  27.6636443 100.1986889  91.3359183  27.5436068 100.6443940  92.1744664
  26.9689032 100.5472207  90.7772721  21.2543848 102.2993281  98.8858840
  21.3836229 102.5527760  99.7998252  20.5741299 102.8920989  98.5663495
  25.4243335 112.9690531  94.9849315  25.3467365 113.9198356  95.0637795
  24.8204979 112.6236403  95.6424241  27.9160565 100.1418396 107.6410681
  27.1393899 100.7012317 107.6313546  28.5551128 100.6275179 108.1625552
  35.7081346  96.9245189 101.4753658  35.0655726  97.2177722 100.8293453
  35.2036274  96.8098110 102.2806855  33.3621509 100.6708362  92.1639517
  34.2739365 100.9035749  91.9887215  32.8531156 101.2545407  91.6014596
  26.1706937 102.9503850 107.2028648  26.9121622 103.4888894 106.9263472
  25.4643923 103.5770138 107.3600200  31.6462277 105.0932990 105.8000810
  32.0545633 104.6515401 105.0555442  30.9239539 104.5185618 106.0535003
  27.9993347 100.0305597 103.1734367  28.8454542 100.4545011 103.3169016
  27.9391985  99.3739221 103.8672930  31.9691092 105.6534181  99.5553099
  31.3399954 105.8179895  98.8529167  31.5816754 106.0675790 100.3264063
  35.8480324 106.5888619  96.9097463  35.1631362 106.9687520  96.3594496
  35.9324173 107.1983945  97.6429410  31.1492792  97.6909965 104.8315541
  30.9053724  98.4452026 104.2949816  31.4252723  98.0695313 105.6662788
  33.1031255 104.2348578 103.5092806  33.3148150 104.8780338 102.8327187
  33.0561003 103.4010894 103.0414736  30.7057484  96.8466398 100.4129378
  29.8441963  97.1447652 100.7046116  30.7319919  97.0636797  99.4810411
  27.5219054 105.3908589  96.8203184  27.9857399 105.6696292  96.0307806
  27.2575852 104.4892033  96.6376275  24.4143135 104.9380070  99.7582947
  24.9844492 105.3667339  99.1200432  25.0051246 104.6562655 100.4567133
  26.4587940 101.5131741  93.6292749  27.1611983 101.9652785  94.0966675
  26.1268568 100.8715560  94.2572642  24.9068301 100.1043498 108.0043958
  24.2766962 100.7859779 108.2379355  24.8004389  99.9926580 107.0597097
  20.2013274  99.7715294  98.9309883  19.4112328 100.0272822  98.4549993
  20.6924521 100.5863632  99.0361923  34.2177083 107.1120533 101.6815163
  35.0394527 106.7100720 101.3997845  34.2139486 107.0088767 102.6331279
  22.1528019 100.1359873  95.8893359  21.3559182 100.2478567  96.4076855
  21.9253611 100.4746525  95.0234250  27.9833687 106.6604576 103.8375874
  28.0478119 107.1224984 104.6734046  27.2744610 106.0301941 103.9658184
  18.4850977 100.0245784 101.3624873  18.7359015 100.9092794 101.6282449
  19.0210525  99.8450386 100.5899965  27.6981704 108.3272684  93.7054854
  27.5627379 109.1724220  94.1339702  28.2391517 108.5291962  92.9420788
  24.1849044  94.4064264 110.3669209  23.7915989  93.8530462 111.0416854
  25.0015184  94.7174842 110.7575727  21.1511102 105.8448122  94.2782779
  21.6635622 106.6391372  94.4288344  21.8033814 105.1474412  94.2116381
  22.9605986 108.9613878  96.3605533  23.1372615 109.8831843  96.1726516
  23.7562820 108.6472297  96.7899912  27.1017005  95.8222143 107.9589466
  27.8426718  96.4229296 107.8793929  27.3334928  95.0799781 107.4007509
  22.2458343 101.0078510 106.2367696  22.1311858 100.1063767 106.5374795
  21.3902861 101.2542207 105.8852512  29.3250181 108.9496250 107.8355196
  28.8814035 108.1632629 107.5176101  29.9867394 109.1375401 107.1699087
  24.0837302 110.4792052 102.3615875  24.6344727 110.3509115 101.5892869
  23.2448778 110.7786941 102.0110768  31.4231419 109.2299050 105.8636598
  31.4049894 110.0507931 105.3716867  32.3451339 109.1053126 106.0886739
  27.8804473 106.7443180 106.7060106  28.4132810 105.9831468 106.4759414
  27.3518554 106.4516832 107.4484260  31.0474168  91.8503246 102.2353748
  30.7038437  92.7404887 102.1592858  31.4153130  91.6604903 101.3723333
  19.1160018 104.1736776  95.0542350  19.9535240 104.5833785  94.8376058
  19.2938286 103.2336218  95.0242544  31.0124451 101.8411857  90.7426183
  30.4971074 102.6116462  90.9814570  30.7401759 101.1676993  91.3659244
  28.5971562  96.6861558  95.8011421  27.7413158  96.2968408  95.6217060
  29.0098513  96.7653518  94.9411207  30.1270708  94.2207901 100.2002981
  29.6235504  94.1838036  99.3870786  30.4201315  95.1300644 100.2599638
  26.3713594  94.3046631  99.2069163  27.2366591  94.1089439  98.8475052
  26.4391103  94.0756982 100.1338519  35.9858725 104.5944212  92.6779356
  35.2088167 104.2555371  92.2334518  36.6650206 104.5996835  92.0034321
  30.8010754  99.7138949  92.5685964  30.4960889 100.0285098  93.4196107
  31.7541196  99.7920369  92.6113297  29.2457186 105.8729172  94.2178918
  28.7178547 105.1381932  93.9052155  28.7444688 106.6503849  93.9718886
  34.2250032 104.0678193  99.3345964  33.5673706 104.7577454  99.4226093
  35.0290431 104.4574625  99.6779951  23.9775913  96.5348839  96.5785530
  24.5519665  96.3124020  95.8458722  24.5646896  96.6037533  97.3314131
  33.0355490 102.4222565  97.3849906  33.5487372 103.0552557  97.8871616
  33.6856714 101.8223761  97.0193266  24.3045500  98.5653300  90.5981415
  23.4682813  98.9027986  90.9190690  24.1650270  98.4302279  89.6608552
  26.2798581  93.4090087  95.3060599  25.6262993  93.0939105  94.6817214
  26.2379055  92.7865828  96.0320422  27.3909786 103.6909383  87.2213891
  26.4836847 103.4598636  87.4205040  27.8880818 102.8947002  87.4087873
  30.2977865 112.4006890  90.1410577  29.6239563 112.7038587  90.7495535
  30.6843687 113.2035970  89.7916034  29.5136321  99.8972021  99.6308247
  28.5958883 100.1186968  99.4729935  29.9296465  99.9718332  98.7719954
  30.2971369 101.2963437  94.7610927  31.0443188 101.8084834  94.4518049
  30.5662959 100.9747489  95.6215320  28.5698019 103.7921977  91.7437881
  27.6609238 103.5081010  91.8410351  28.5993103 104.2121056  90.8841188
  33.8017287 107.4028567  95.5129049  33.3479614 106.5619477  95.5694239
  33.1711253 108.0389965  95.8503829  32.7450206  98.3320553  96.7429716
  32.0072963  97.8197939  97.0739959  32.9976980  97.8920935  95.9312993
  32.2450226 109.2405064  96.4478867  32.5373200 109.8010121  95.7291232
  32.7548846 109.5333625  97.2032026  32.8461833  91.1096805  97.3371485
  33.1520710  90.2494168  97.0497400  33.5714438  91.7014425  97.1370479
  19.1386190 101.5127492  95.7253083  18.9410589 100.9196852  95.0004150
  18.5832854 101.2079702  96.4429022  27.1182913 101.4050598  97.8447676
  27.1731523 100.4524434  97.7690153  26.3074115 101.5610037  98.3288975
  28.2674107 105.3330721  89.0825960  27.8293537 104.6166580  88.6231597
  29.0084548 105.5606836  88.5211051  25.0575273 100.0227658  95.6038055
  24.2443139 100.3221828  96.0103247  25.5534267  99.6283347  96.3212538
  27.2083851 110.0185415  97.5372320  27.1660030 110.2446261  96.6080852
  28.1246550 109.7848789  97.6858121  30.6549485 100.4869482 104.4352949
  31.0098873 100.7140955 105.2947415  31.3021616 100.8187859 103.8130205
  36.3847222 103.6087918  95.1402278  36.2465120 103.7989514  94.2123467
  36.0283441 104.3707301  95.5970329  24.5489348  97.5946013 101.2199290
  25.1888727  97.4534772 100.5222254  23.7166878  97.3080527 100.8437892
  36.4116601 105.6764445 100.1513550  36.8453108 105.5839734 100.9996604
  37.1248182 105.6521946  99.5133566  25.3249652 106.8948444  97.3334283
  26.1190250 106.3998764  97.1316858  24.6141344 106.3666307  96.9701988
  30.1444496 109.2766539 101.6846650  30.1981519 109.8457476 102.4524366
  29.2759278 109.4468424 101.3200688  21.6332415 101.0391525  93.4094035
  20.7030003 100.9775981  93.6263998  21.7289887 100.5167478  92.6130677
  21.5517964  97.5646338  95.9972277  21.8124782  98.4791672  95.8881438
  22.3735137  97.0970781  96.1468890  23.0242890  98.9784095 103.1671102
  23.6965943  98.7701458 102.5183751  22.1972676  98.7806181 102.7276334
  37.2732151 105.7188146 102.6846435  37.4668041 106.6233956 102.9305710
  37.1732769 105.2595565 103.5185020  28.9268462  95.6046036 105.1836763
  28.2796377  96.3035986 105.0901239  29.6969477  96.0382180 105.5513011
  32.3347260 105.8694889 108.2587316  32.1832766 105.6405440 107.3417399
  32.3251939 106.8265490 108.2718661  29.1032596 103.4426801 103.2433582
  30.0324656 103.5937961 103.0702550  28.6823626 103.5310822 102.3882229
  27.9020928 107.4677466 101.0132120  27.7632013 107.0996250 101.8858058
  27.1135524 107.9825105 100.8416078  28.4969080 112.5686562  92.3557656
  28.6720835 112.0974605  93.1703279  27.8101868 113.1952328  92.5838917
  29.4526143 106.8459068  98.4020958  29.1175976 106.8059838  99.2978608
  28.9530089 106.1803784  97.9291368  23.4270387 102.2526698 103.9273539
  23.2890185 101.5206937 104.5285078  24.3375310 102.1635599 103.6457727
  32.3885335 104.1915103  88.6758017  31.7714505 103.4661931  88.5791070
  31.9201823 104.9524463  88.3325092  26.0552688 101.9646658 103.4157218
  26.7652306 101.3239850 103.3743837  26.0121996 102.2159553 104.3383399
  34.0439466 108.9014011 106.3363798  33.9852012 108.2173231 105.6694381
  34.4458985 109.6433001 105.8844424  24.7681622  98.9511876 105.2352858
  24.2318979  98.5002614 105.8874454  24.1798330  99.0857784 104.4923322
  23.0630165 115.7175925  99.1297517  23.3026763 116.3494449  99.8076535
  22.2199362 115.3663965  99.4162876  24.1783880  98.4100527  87.7979322
  23.3013347  98.2889328  87.4341568  24.6541634  97.6186605  87.5458210
  34.0456874 106.8653595 104.5677777  33.1583652 106.5279517 104.6904176
  34.6155425 106.1336626 104.8046543  15.6986021 103.1977687  97.8920829
  16.3857060 102.8839417  97.3041844  15.5434149 104.1019051  97.6188080
  20.5020743  98.0867883 102.3205852  20.4178931  97.4793553 101.5856262
  19.6803449  98.5776902 102.3215349  27.5758027 111.5255047 101.5339021
  27.5028198 112.3310019 102.0458325  27.1335420 111.7247013 100.7087042
  27.3647807 110.7626817  95.0441842  26.5815328 111.3048498  95.1380067
  28.0640552 111.2800797  95.4436083  30.6744457  96.5721447  97.6876047
  31.1713156  95.8191409  97.3677118  29.9031438  96.6085764  97.1219257
  30.0356710 111.4241881 103.6897179  30.7484683 112.0589346 103.6173081
  29.5446739 111.5205747 102.8737181  31.7574237 105.3293134  95.2614471
  30.8230516 105.4494597  95.0919175  31.9350906 104.4265601  94.9974481
  27.2579425  98.7138830  97.4147732  26.8877213  98.1609870  98.1028638
  27.7538518  98.1096963  96.8622732  35.1446789 101.1710453  95.7964505
  35.6107241 102.0038445  95.7224808  35.5954289 100.7055435  96.5009764
  25.0868624 109.1736325 104.5102750  25.7878083 109.8072808 104.6632144
  24.6163739 109.5151056 103.7498389  33.2123020 107.5154275  92.7950657
  33.4882864 107.4010869  93.7044531  32.3427519 107.1171760  92.7562830
  33.1163451  93.5391040  99.8355406  32.2026531  93.7695267 100.0037613
  33.5456553  93.6229484 100.6869439  32.8869910 101.7280932 102.3355300
  32.2341360 101.9756840 101.6807753  33.2650290 100.9145071 102.0017778
  29.8477084 111.7640626  96.4383471  30.0299478 110.9462281  96.9011223
  30.6710070 111.9808318  96.0008361  30.1819249 110.6908811  93.6998519
  30.7107016 110.1801265  93.0868681  30.4447469 110.3751341  94.5644052
  28.9357483 102.4700743 108.8221337  28.2598120 102.3694873 109.4923713
  29.7585117 102.3139957 109.2857335  20.6836342 108.7072680 101.4433853
  21.2689779 107.9616368 101.5761757  20.4861180 109.0176637 102.3270517
  23.5374997 111.7423927  96.4596295  22.8685372 112.2270055  95.9760335
  23.3987867 111.9893148  97.3739674  15.2753997 101.2778280 100.1638296
  15.3138096 100.7441871 100.9575414  14.7694290 100.7513486  99.5449273
  27.6780266 113.7767671 103.0578953  28.2298574 113.9399292 103.8228039
  28.0186459 114.3672109 102.3858978  22.6544759  96.1242821 103.6600838
  22.7186086  96.9857652 103.2478236  22.5911879  95.5116822 102.9273197
  22.1297032  98.1965953 107.3073872  22.7569070  97.8143031 107.9211397
  21.2724950  97.9780155 107.6729565  32.5291140 108.6028928 108.9127608
  33.0731044 109.2158887 108.4182563  31.9477985 109.1608507 109.4294621
  18.9062574 100.0042382  93.2392227  19.2016015  99.0953061  93.1859281
  18.0050610  99.9830122  92.9173230  30.8148653 111.7249646 100.0442636
  30.6899793 110.9239386  99.5353581  31.4727744 112.2195840  99.5556606
  22.4356821  98.0798379  99.2219776  21.7143407  98.6934347  99.0827249
  23.2250077  98.6156144  99.1436422  32.8783561 109.5258666 101.6722186
  31.9313897 109.4064018 101.6000512  33.2266335 108.6381165 101.7548447
  25.2383135  95.4152805 105.4960428  25.7617537  95.6615102 106.2586737
  25.0195468  96.2472840 105.0763565  20.6350416  97.6856480  93.3631552
  20.3063122  96.8053859  93.1806658  20.9889787  97.6304149  94.2507942
  29.8829995 109.3211383  97.8726538  29.7354957 108.3928090  98.0534108
  30.7083488 109.3431473  97.3883613  23.7492239  97.9729450  93.7307030
  24.0888312  98.5015371  93.0085638  24.1964360  98.3109856  94.5065597
  33.4864117 110.1439941  98.9591411  34.4110664 109.9382803  98.8215862
  33.3179420 109.8956343  99.8680752  26.4435680  96.3566500 103.1810098
  26.1032500  95.5574314 103.5830778  25.7374686  96.6568211 102.6086931
  27.0952152  93.4415813 101.6337421  27.9178221  92.9676291 101.5116311
  27.3390215  94.2206297 102.1336107  25.7360386  96.4704071  91.9300323
  26.4568749  96.8485324  91.4264040  25.1125690  97.1892948  92.0335301
  29.8791509  97.1749220  92.8658655  30.0955123  98.0573858  92.5647483
  29.3985576  96.7835434  92.1364297  24.6190730 100.1334934  99.4429400
  24.4735311 100.4475237 100.3353681  24.1415934 100.7519834  98.8900298
  26.4787113  97.1237482  99.4910289  26.4648682  96.2278575  99.1542587
  27.1959541  97.1308145 100.1248575  28.3313244  97.5574822 101.5363417
  28.0731022  98.4791892 101.5347747  27.7998284  97.1605256 102.2263881
  33.2759433 110.6625609  94.3153502  33.4496310 110.0972031  93.5627355
  33.7688324 111.4626504  94.1332992  19.0936393 102.6740278 102.3817061
  18.5489861 103.4500086 102.5137335  19.9715742 103.0211082 102.2236182
  25.8824009  96.0051862  94.7597859  26.0039920  95.0768508  94.9588747
  25.5926052  96.0190548  93.8476175  28.7515200  93.6906772  97.8964579
  28.7736896  93.7546105  96.9416559  29.1683259  92.8511281  98.0905085
  39.1298824 103.4262032  95.9343802  39.5729970 102.6769357  95.5362925
  38.2525334 103.4172168  95.5517534  34.2634605 109.9792373  91.4150400
  34.9585510 110.5999066  91.6337715  34.6057755 109.1287724  91.6902778
  19.8802414 101.8010174 105.2747218  19.1384151 101.9492810 105.8611848
  19.5595159 102.0618440 104.4113967  36.1626028 107.4292079  92.9437731
  36.6877353 107.7679352  92.2187051  36.0748381 106.4939094  92.7600866
  27.8246077 111.3426152 105.0727608  28.1333204 111.0975299 105.9450307
  28.6221559 111.5472791 104.5846478  27.8466689 113.4964062  97.3032984
  27.4071679 113.0040441  97.9965841  28.5974806 112.9537030  97.0625060
  20.3259028 109.6875603  97.3057612  21.1517048 109.3879375  96.9256256
  19.9753080 108.9183225  97.7547401  25.2940561 109.0402071  99.3755286
  24.6720571 108.3772776  99.0757514  25.9645428 109.0663203  98.6928934
  18.5267633 107.6061929  98.2646546  17.6899542 107.1784104  98.0830547
  18.4991279 107.7994373  99.2017337  25.3665089  97.5183859 108.9687792
  25.4153244  98.3945982 108.5865562  25.9087603  96.9761252 108.3959435
  35.8519935 108.0624982 108.2488929  35.0615478 108.0449121 107.7093429
  35.6153289 108.6013276 109.0037966  35.9717810 104.9117449 105.5621658
  36.0215814 104.7467456 106.5037180  35.8631733 104.0444708 105.1719538
  24.8554068 107.5905995  92.8513747  25.0042189 108.2741459  92.1980419
  25.6620512 107.5711085  93.3663202  33.2621572 100.8948377 106.8780964
  34.1631435 100.7554842 106.5864962  33.3369546 101.0602832 107.8179142
  27.5964377  98.2715232 105.7234151  26.7267687  98.5648798 105.4516739
  27.8323858  98.8555677 106.4441414  37.4736006 107.3314390 105.8063679
  37.1820815 107.6944371 106.6427140  36.8608138 106.6181399 105.6277011
  38.6731689 104.8967270  98.3266249  39.5078580 105.3357074  98.4903810
  38.8090817 104.4205923  97.5074495  35.7223195 102.4547005 104.2743737
  36.1977316 102.6474651 103.4662589  34.7988760 102.5106191 104.0287121
  22.6106701 103.6171172  93.8574815  22.3652743 102.7133502  94.0555026
  22.7802616 103.6188323  92.9154293  30.3003411  94.4894849 103.2399571
  30.8185355  95.2255875 102.9146060  29.9458544  94.7958842 104.0746330
  21.8802349  99.3499530  91.3560977  21.1871594  99.4243885  90.7001013
  21.6354101  98.5859873  91.8782494  30.5516005  90.9095131  98.7600468
  30.8317759  90.2418320  99.3860894  31.3366612  91.1024227  98.2475132
  28.3549474 110.0854125  90.3225494  27.7823441 110.7044312  89.8695966
  28.9282267 110.6353487  90.8565416  34.4224864  99.3312765 102.5072043
  35.3742287  99.4310863 102.5284267  34.2528314  98.5391034 103.0170127
  32.4439243  96.4168348 102.6931444  31.8489175  96.6973361 101.9977932
  32.1588940  96.9062249 103.4648185  31.5746734 110.3691275  91.4534076
  32.5077407 110.3036837  91.6566952  31.4869946 111.2047542  90.9948609
  34.2034750 109.6857145  88.4138024  34.1248382 109.3517009  89.3073782
  35.0244417 110.1778913  88.4129496  28.7396272 101.4214938  87.6641546
  29.6855377 101.2921146  87.7329965  28.3610517 100.6829600  88.1410975
  34.7118157  93.0870944  97.6268438  34.5142978  92.7786032  98.5111770
  35.3217862  93.8132583  97.7566368  28.6234965 105.4732684 109.1242203
  29.5437974 105.6511283 109.3182250  28.5884548 104.5288729 108.9721903
  26.9239189  99.3464914  87.5996432  26.0170645  99.0498027  87.6759145
  27.2015170  99.0494732  86.7330718  17.8417130 100.6671278  98.0495478
  17.5219914  99.8136586  97.7569852  17.2950558 100.8819856  98.8053445
  21.6197037 103.3833718 101.7664985  21.8383047 104.3150826 101.7853018
  22.0322811 103.0241693 102.5519788  28.5401255  93.8901804  93.7540673
  27.7301983  93.5448889  94.1295919  29.2285672  93.5809348  94.3428285
  30.4691803  92.9679851  95.3764970  31.0222842  93.3875304  96.0354993
  30.7061890  92.0415599  95.4187926  26.4924903  98.9566924 111.1567734
  26.3921630  99.9061281 111.0879825  26.2746445  98.6285163 110.2843804
  25.6937974  96.2051849  87.7408411  26.5557138  96.5306748  88.0004228
  25.8788318  95.4183345  87.2281477  17.7105390 104.2874189 100.0188600
  17.0168861 103.8728142  99.5058554  18.4578381 104.3294726  99.4222019
  33.8470611  95.0780376  94.8843634  33.2669280  95.7365180  94.5021686
  33.5806543  94.2557720  94.4731051  32.2974177  94.4785433  97.0864954
  32.7973955  94.5901968  96.2779273  32.9409785  94.1746486  97.7265763
  26.3556173 102.3864063 109.9732795  25.8723254 103.1864423 110.1796684
  26.4417112 102.3972008 109.0200239  19.6242132 104.2192443  97.8954615
  19.6012820 104.3180130  96.9436498  19.9342769 105.0657594  98.2171781
  22.2829510 106.2768598 102.0101229  23.2372764 106.2452540 101.9431161
  22.0842034 105.8159222 102.8251455  22.8728892 104.8469714 104.5772027
  23.6921781 105.3413793 104.6006864  23.1465700 103.9301682 104.5489594
  32.6295489  97.2380466  93.9399982  31.7421344  97.5230117  93.7220177
  33.0449478  97.0774230  93.0927259  35.9810025  97.2626987  97.6554321
  36.7570415  97.7523440  97.9278938  35.2558159  97.6885041  98.1126191
  20.6379739 111.8188217  99.0271427  20.5034207 111.0588618  98.4609425
  20.2211801 112.5429117  98.5600216  31.7738702 107.0025141  88.0348002
  32.4774552 107.2075143  88.6505658  31.0501351 107.5701903  88.2997086
  32.6036512 102.7535002  94.1550272  32.5471714 103.2103554  93.3157905
  33.1564855 101.9925687  93.9773115  36.4141318  98.5424734  94.9800392
  36.1578252  98.1421370  95.8108600  35.7894186  99.2568528  94.8550531
  23.7948865 112.7157534  99.2389870  23.6781249 113.6602967  99.1368560
  22.9741311 112.4131096  99.6275669  33.6825399 107.4407670  90.0846462
  34.5171003 107.0088868  89.9023937  33.5209742 107.2689684  91.0123357
  33.3371292 103.9439783  91.4502802  33.2820095 103.7784055  90.5091246
  32.7117347 104.6515816  91.6064991  18.1263807  99.1807848 105.2764224
  18.7722670  98.6706802 105.7651449  17.9180958  99.9176529 105.8507649
  30.6517199 106.2488695 110.7756364  31.5208358 106.4229347 110.4142999
  30.1723950 107.0683112 110.6532094  26.6467417  93.4447892  91.0288120
  26.6346087  94.3889732  91.1856391  27.5390839  93.2618038  90.7347581
  24.8203379 113.3685796 102.4545798  25.7230626 113.4009406 102.7712293
  24.5940749 112.4386247 102.4692134  26.5756981 112.1216783  99.1155877
  25.6252612 112.1218644  99.0020249  26.8789467 111.3749517  98.5991911
  30.4619537  90.0390669  95.2834057  29.6951932  89.4849156  95.4290739
  30.8730241  90.1112538  96.1448208  22.4661298  96.3275465 109.3739238
  23.3292759  95.9712270 109.5842563  21.8926708  95.9889360 110.0614642
  42.3109675 117.9577321 100.1801639  42.9488084 117.8384068  99.4764979
  42.1930517 118.9058165 100.2389591  39.1199381 117.9104749 100.1163164
  38.7817892 117.7945814  99.2283699  39.9889149 117.5095914 100.0964170
  34.9786196 119.7640226  96.1060055  34.4151062 119.6730163  95.3376342
  34.8638592 118.9440130  96.5862547  39.6019164 119.0639601 106.0749369
  39.5907805 118.6692399 105.2029873  39.7639803 118.3305674 106.6683141
  32.5250628 121.2591417  98.9444275  33.3171920 120.9182242  98.5290574
  32.7647279 121.3686392  99.8646428  40.5585755 123.4311193  91.4174520
  39.9073735 124.0165274  91.0308533  41.3530118 123.9617388  91.4769557
  34.4841382 120.5200331  91.8161654  35.2572258 119.9729318  91.6774530
  34.8366781 121.3844580  92.0276115  36.3226425 121.8476713 105.0228553
  36.0316291 122.7522344 104.9075219  36.9583409 121.8893240 105.7372623
  37.2482632 119.2253561 101.6129913  37.8446204 119.0009584 100.8986876
  37.3057603 118.4838307 102.2155361  36.8207660 116.6792997  89.4480104
  37.0733181 116.1574518  88.6863567  35.8832219 116.5159142  89.5506787
  41.8650943 115.6828775  97.2554847  42.6514032 115.2648198  96.9045264
  42.1289647 116.5874867  97.4236495  42.0361020 121.1201625  91.9543504
  41.4006853 121.1936252  92.6664408  41.7058427 121.7095224  91.2762583
  47.2659370 115.6204008  98.1587826  47.9984542 115.0503225  98.3925655
  46.5098726 115.2325609  98.5994331  36.5403949 118.5821103  91.6504479
  36.4240207 117.9066006  92.3185563  36.6506209 118.0953477  90.8336632
  38.8835490 118.0431250  95.3551168  38.5193697 117.5161871  96.0664089
  39.7402606 117.6529719  95.1817653  38.5240977 113.0721149  90.3512516
  38.6915379 113.9401386  90.7182988  38.3338146 113.2348431  89.4273806
  41.2816310 121.5338128 102.0178347  40.9817033 122.4363167 101.9094154
  40.9367370 121.2670311 102.8699500  34.7328791 117.9851925  98.0515051
  33.8079288 117.8528139  98.2592743  34.9813205 118.7646144  98.5484994
  44.6813454 114.0520668  99.6975784  43.7730331 113.9836077  99.4034545
  44.6301050 114.5292613 100.5257610  38.5030198 115.5278807  91.3359183
  38.3829823 115.9735858  92.1744664  37.8082786 115.8764125  90.7772721
  32.0937603 117.6285199  98.8858840  32.2229984 117.8819678  99.7998252
  31.4135054 118.2212907  98.5663495  36.2637090 128.2982449  94.9849315
  36.1861119 129.2490274  95.0637795  35.6598733 127.9528321  95.6424241
  38.7554320 115.4710314 107.6410681  37.9787654 116.0304234 107.6313546
  39.3944883 115.9567097 108.1625552  44.2015264 116.0000280  92.1639517
  45.1133120 116.2327667  91.9887215  43.6924911 116.5837324  91.6014596
  37.0100692 118.2795767 107.2028648  37.7515376 118.8180811 106.9263472
  36.3037677 118.9062056 107.3600200  42.4856032 120.4224908 105.8000810
  42.8939388 119.9807318 105.0555442  41.7633293 119.8477535 106.0535003
  38.8387102 115.3597515 103.1734367  39.6848297 115.7836928 103.3169016
  38.7785739 114.7031139 103.8672930  42.8084846 120.9826099  99.5553099
  42.1793709 121.1471813  98.8529167  42.4210508 121.3967708 100.3264063
  46.6874078 121.9180536  96.9097463  46.0025116 122.2979438  96.3594496
  46.7717927 122.5275863  97.6429410  41.9886547 113.0201883 104.8315541
  41.7447479 113.7743944 104.2949816  42.2646477 113.3987231 105.6662788
  43.9425010 119.5640495 103.5092806  44.1541905 120.2072255 102.8327187
  43.8954758 118.7302812 103.0414736  41.5451239 112.1758316 100.4129378
  40.6835718 112.4739570 100.7046116  41.5713673 112.3928715  99.4810411
  38.3612808 120.7200507  96.8203184  38.8251154 120.9988210  96.0307806
  38.0969606 119.8183951  96.6376275  35.2536889 120.2671988  99.7582947
  35.8238246 120.6959257  99.1200432  35.8445001 119.9854573 100.4567133
  37.2981694 116.8423659  93.6292749  38.0005737 117.2944703  94.0966675
  36.9662323 116.2007478  94.2572642  35.7462056 115.4335416 108.0043958
  35.1160716 116.1151696 108.2379355  35.6398144 115.3218497 107.0597097
  31.0407028 115.1007212  98.9309883  30.2506082 115.3564740  98.4549993
  31.5318275 115.9155549  99.0361923  45.0570838 122.4412451 101.6815163
  45.8788281 122.0392638 101.3997845  45.0533240 122.3380685 102.6331279
  32.9921773 115.4651791  95.8893359  32.1952937 115.5770485  96.4076855
  32.7647366 115.8038443  95.0234250  38.8227441 121.9896494 103.8375874
  38.8871874 122.4516901 104.6734046  38.1138365 121.3593859 103.9658184
  29.3244731 115.3537702 101.3624873  29.5752769 116.2384712 101.6282449
  29.8604279 115.1742304 100.5899965  53.1476831 118.7851199  98.0300135
  52.3940539 118.2158597  97.8744139  53.2824372 118.7513864  98.9770770
  38.5375459 123.6564602  93.7054854  38.4021134 124.5016137  94.1339702
  39.0785271 123.8583879  92.9420788  35.0242798 109.7356181 110.3669209
  34.6309744 109.1822380 111.0416854  35.8408939 110.0466760 110.7575727
  31.9904856 121.1740040  94.2782779  32.5029377 121.9683290  94.4288344
  32.6427569 120.4766330  94.2116381  33.7999741 124.2905796  96.3605533
  33.9766369 125.2123761  96.1726516  34.5956574 123.9764215  96.7899912
  37.9410759 111.1514061 107.9589466  38.6820473 111.7521214 107.8793929
  38.1728682 110.4091698 107.4007509  33.0852097 116.3370428 106.2367696
  32.9705612 115.4355685 106.5374795  32.2296615 116.5834125 105.8852512
  40.1643935 124.2788168 107.8355196  39.7207789 123.4924547 107.5176101
  40.8261149 124.4667319 107.1699087  34.9231056 125.8083970 102.3615875
  35.4738481 125.6801033 101.5892869  34.0842532 126.1078859 102.0110768
  42.2625173 124.5590968 105.8636598  42.2443649 125.3799849 105.3716867
  43.1845093 124.4345043 106.0886739  38.7198227 122.0735098 106.7060106
  39.2526564 121.3123386 106.4759414  38.1912308 121.7808749 107.4484260
  29.9553773 119.5028694  95.0542350  30.7928995 119.9125702  94.8376058
  30.1332041 118.5628136  95.0242544  41.8518205 117.1703775  90.7426183
  41.3364828 117.9408379  90.9814570  41.5795513 116.4968911  91.3659244
  39.4365316 112.0153475  95.8011421  38.5806912 111.6260326  95.6217060
  39.8492268 112.0945436  94.9411207  40.9664463 109.5499819 100.2002981
  40.4629258 109.5129954  99.3870786  41.2595070 110.4592561 100.2599638
  37.2107349 109.6338548  99.2069163  38.0760345 109.4381357  98.8475052
  37.2784857 109.4048900 100.1338519  46.8252479 119.9236129  92.6779356
  46.0481922 119.5847289  92.2334518  47.5043960 119.9288752  92.0034321
  41.6404508 115.0430867  92.5685964  41.3354644 115.3577016  93.4196107
  42.5934950 115.1212287  92.6113297  40.0850940 121.2021090  94.2178918
  39.5572302 120.4673850  93.9052155  39.5838443 121.9795766  93.9718886
  45.0643786 119.3970110  99.3345964  44.4067460 120.0869372  99.4226093
  45.8684185 119.7866542  99.6779951  34.8169668 111.8640756  96.5785530
  35.3913420 111.6415938  95.8458722  35.4040650 111.9329451  97.3314131
  43.8749245 117.7514483  97.3849906  44.3881127 118.3844475  97.8871616
  44.5250469 117.1515679  97.0193266  35.1439255 113.8945217  90.5981415
  34.3076567 114.2319904  90.9190690  35.0044024 113.7594197  89.6608552
  37.1192335 108.7382005  95.3060599  36.4656748 108.4231022  94.6817214
  37.0772809 108.1157746  96.0320422  38.2303540 119.0201300  87.2213891
  37.3230602 118.7890554  87.4205040  38.7274572 118.2238920  87.4087873
  41.1371619 127.7298807  90.1410577  40.4633318 128.0330504  90.7495535
  41.5237441 128.5327888  89.7916034  40.3530076 115.2263939  99.6308247
  39.4352637 115.4478886  99.4729935  40.7690219 115.3010249  98.7719954
  41.1365123 116.6255354  94.7610927  41.8836942 117.1376752  94.4518049
  41.4056713 116.3039407  95.6215320  39.4091774 119.1213895  91.7437881
  38.5002993 118.8372928  91.8410351  39.4386857 119.5412974  90.8841188
  44.6411041 122.7320485  95.5129049  44.1873368 121.8911394  95.5694239
  44.0105008 123.3681883  95.8503829  43.0843980 124.5696981  96.4478867
  43.3766955 125.1302038  95.7291232  43.5942601 124.8625542  97.2032026
  29.9779944 116.8419409  95.7253083  29.7804344 116.2488770  95.0004150
  29.4226608 116.5371619  96.4429022  37.9576668 116.7342516  97.8447676
  38.0125277 115.7816352  97.7690153  37.1467870 116.8901955  98.3288975
  39.1067861 120.6622639  89.0825960  38.6687291 119.9458498  88.6231597
  39.8478302 120.8898754  88.5211051  35.8969028 115.3519575  95.6038055
  35.0836893 115.6513746  96.0103247  36.3928022 114.9575264  96.3212538
  38.0477605 125.3477332  97.5372320  38.0053784 125.5738179  96.6080852
  38.9640304 125.1140707  97.6858121  41.4943239 115.8161400 104.4352949
  41.8492627 116.0432873 105.2947415  42.1415371 116.1479777 103.8130205
  47.2240976 118.9379836  95.1402278  47.0858875 119.1281432  94.2123467
  46.8677195 119.6999219  95.5970329  35.3883102 112.9237931 101.2199290
  36.0282482 112.7826690 100.5222254  34.5560633 112.6372444 100.8437892
  47.2510356 121.0056363 100.1513550  47.6846863 120.9131652 100.9996604
  47.9641937 120.9813863  99.5133566  36.1643406 122.2240361  97.3334283
  36.9584005 121.7290682  97.1316858  35.4535099 121.6958225  96.9701988
  40.9838251 124.6058457 101.6846650  41.0375273 125.1749393 102.4524366
  40.1153032 124.7760342 101.3200688  32.4726170 116.3683443  93.4094035
  31.5423758 116.3067899  93.6263998  32.5683642 115.8459396  92.6130677
  32.3911719 112.8938256  95.9972277  32.6518536 113.8083589  95.8881438
  33.2128891 112.4262699  96.1468890  33.8636644 114.3076013 103.1671102
  34.5359698 114.0993375 102.5183751  33.0366431 114.1098099 102.7276334
  48.1125905 121.0480063 102.6846435  48.3061795 121.9525874 102.9305710
  48.0126524 120.5887483 103.5185020  39.7662216 110.9337954 105.1836763
  39.1190131 111.6327904 105.0901239  40.5363232 111.3674098 105.5513011
  43.1741014 121.1986806 108.2587316  43.0226520 120.9697358 107.3417399
  43.1645694 122.1557408 108.2718661  39.9426350 118.7718719 103.2433582
  40.8718410 118.9229879 103.0702550  39.5217380 118.8602740 102.3882229
  38.7414682 122.7969383 101.0132120  38.6025768 122.4288168 101.8858058
  37.9529278 123.3117023 100.8416078  39.3362834 127.8978480  92.3557656
  39.5114590 127.4266523  93.1703279  38.6495622 128.5244246  92.5838917
  40.2919897 122.1750986  98.4020958  39.9569730 122.1351756  99.2978608
  39.7923843 121.5095702  97.9291368  34.2664141 117.5818616 103.9273539
  34.1283939 116.8498855 104.5285078  35.1769065 117.4927516 103.6457727
  43.2279089 119.5207020  88.6758017  42.6108260 118.7953849  88.5791070
  42.7595578 120.2816381  88.3325092  36.8946442 117.2938575 103.4157218
  37.6046061 116.6531768 103.3743837  36.8515750 117.5451470 104.3383399
  44.8833221 124.2305929 106.3363798  44.8245767 123.5465149 105.6694381
  45.2852739 124.9724919 105.8844424  35.6075376 114.2803793 105.2352858
  35.0712733 113.8294532 105.8874454  35.0192084 114.4149702 104.4923322
  33.9023920 131.0467843  99.1297517  34.1420518 131.6786367  99.8076535
  33.0593116 130.6955883  99.4162876  35.0177635 113.7392445  87.7979322
  34.1407101 113.6181246  87.4341568  35.4935388 112.9478523  87.5458210
  44.8850628 122.1945513 104.5677777  43.9977407 121.8571435 104.6904176
  45.4549179 121.4628544 104.8046543  26.5379775 118.5269604  97.8920829
  27.2250815 118.2131334  97.3041844  26.3827904 119.4310969  97.6188080
  31.3414497 113.4159801 102.3205852  31.2572686 112.8085471 101.5856262
  30.5197204 113.9068819 102.3215349  38.4151781 126.8546965 101.5339021
  38.3421953 127.6601937 102.0458325  37.9729174 127.0538931 100.7087042
  38.2041561 126.0918735  95.0441842  37.4209083 126.6340415  95.1380067
  38.9034306 126.6092715  95.4436083  49.3667969 117.6053730  99.3294339
  49.3557845 118.4878446  98.9588272  48.4985348 117.2525281  99.1348876
  40.8750465 126.7533799 103.6897179  41.5878437 127.3881264 103.6173081
  40.3840494 126.8497665 102.8737181  42.5967992 120.6585052  95.2614471
  41.6624271 120.7786514  95.0919175  42.7744660 119.7557519  94.9974481
  38.0973180 114.0430748  97.4147732  37.7270967 113.4901788  98.1028638
  38.5932272 113.4388881  96.8622732  45.9840543 116.5002371  95.7964505
  46.4500995 117.3330363  95.7224808  46.4348044 116.0347353  96.5009764
  35.9262378 124.5028243 104.5102750  36.6271838 125.1364726 104.6632144
  35.4557493 124.8442974 103.7498389  44.0516774 122.8446192  92.7950657
  44.3276618 122.7302787  93.7044531  43.1821273 122.4463677  92.7562830
  43.7263664 117.0572850 102.3355300  43.0735115 117.3048757 101.6807753
  44.1044044 116.2436988 102.0017778  40.6870838 127.0932543  96.4383471
  40.8693233 126.2754199  96.9011223  41.5103824 127.3100235  96.0008361
  41.0213004 126.0200728  93.6998519  41.5500770 125.5093183  93.0868681
  41.2841223 125.7043259  94.5644052  39.7751237 117.7992661 108.8221337
  39.0991874 117.6986790 109.4923713  40.5978871 117.6431875 109.2857335
  31.5230096 124.0364598 101.4433853  32.1083533 123.2908286 101.5761757
  31.3254935 124.3468554 102.3270517  34.3768752 127.0715845  96.4596295
  33.7079127 127.5561973  95.9760335  34.2381621 127.3185065  97.3739674
  26.1147751 116.6070198 100.1638296  26.1531851 116.0733789 100.9575414
  25.6088044 116.0805403  99.5449273  38.5174020 129.1059589 103.0578953
  39.0692328 129.2691210 103.8228039  38.8580214 129.6964026 102.3858978
  33.4938514 111.4534738 103.6600838  33.5579840 112.3149569 103.2478236
  33.4305634 110.8408740 102.9273197  32.9690786 113.5257871 107.3073872
  33.5962825 113.1434948 107.9211397  32.1118705 113.3072073 107.6729565
  43.3684895 123.9320846 108.9127608  43.9124799 124.5450804 108.4182563
  42.7871739 124.4900424 109.4294621  29.7456329 115.3334300  93.2392227
  30.0409770 114.4244978  93.1859281  28.8444365 115.3122039  92.9173230
  41.6542408 127.0541564 100.0442636  41.5293547 126.2531304  99.5353581
  42.3121499 127.5487757  99.5556606  33.2750576 113.4090297  99.2219776
  32.5537162 114.0226264  99.0827249  34.0643832 113.9448061  99.1436422
  43.7177316 124.8550584 101.6722186  42.7707651 124.7355935 101.6000512
  44.0660089 123.9673082 101.7548447  36.0776889 110.7444723 105.4960428
  36.6011291 110.9907020 106.2586737  35.8589223 111.5764758 105.0763565
  31.4744170 113.0148398  93.3631552  31.1456877 112.1345777  93.1806658
  31.8283541 112.9596066  94.2507942  40.7223749 124.6503300  97.8726538
  40.5748712 123.7220008  98.0534108  41.5477243 124.6723391  97.3883613
  34.5885994 113.3021367  93.7307030  34.9282066 113.8307289  93.0085638
  35.0358114 113.6401774  94.5065597  44.3257871 125.4731859  98.9591411
  45.2504419 125.2674720  98.8215862  44.1573174 125.2248260  99.8680752
  37.2829434 111.6858418 103.1810098  36.9426255 110.8866231 103.5830778
  36.5768441 111.9860129 102.6086931  37.9345906 108.7707731 101.6337421
  38.7571976 108.2968209 101.5116311  38.1783970 109.5498214 102.1336107
  36.5754141 111.7995989  91.9300323  37.2962503 112.1777242  91.4264040
  35.9519445 112.5184866  92.0335301  40.7185264 112.5041138  92.8658655
  40.9348878 113.3865776  92.5647483  40.2379331 112.1127351  92.1364297
  35.4584485 115.4626851  99.4429400  35.3129066 115.7767154 100.3353681
  34.9809689 116.0811752  98.8900298  37.3180868 112.4529399  99.4910289
  37.3042437 111.5570493  99.1542587  38.0353296 112.4600063 100.1248575
  39.1706999 112.8866739 101.5363417  38.9124776 113.8083810 101.5347747
  38.6392039 112.4897174 102.2263881  44.1153187 125.9917527  94.3153502
  44.2890065 125.4263949  93.5627355  44.6082079 126.7918421  94.1332992
  29.9330147 118.0032196 102.3817061  29.3883615 118.7792004 102.5137335
  30.8109497 118.3503000 102.2236182  36.7217764 111.3343779  94.7597859
  36.8433675 110.4060426  94.9588747  36.4319806 111.3482465  93.8476175
  39.5908954 109.0198690  97.8964579  39.6130651 109.0838023  96.9416559
  40.0077013 108.1803199  98.0905085  49.9692578 118.7553949  95.9343802
  50.4123725 118.0061275  95.5362925  49.0919089 118.7464086  95.5517534
  45.1028360 125.3084291  91.4150400  45.7979264 125.9290984  91.6337715
  45.4451510 124.4579642  91.6902778  30.7196169 117.1302092 105.2747218
  29.9777905 117.2784727 105.8611848  30.3988913 117.3910357 104.4113967
  47.0019783 122.7583996  92.9437731  47.5271107 123.0971269  92.2187051
  46.9142135 121.8231012  92.7600866  38.6639832 126.6718070 105.0727608
  38.9726958 126.4267217 105.9450307  39.4615314 126.8764709 104.5846478
  38.6860444 128.8255980  97.3032984  38.2465434 128.3332358  97.9965841
  39.4368561 128.2828947  97.0625060  31.1652783 125.0167521  97.3057612
  31.9910803 124.7171292  96.9256256  30.8146835 124.2475143  97.7547401
  36.1334316 124.3693989  99.3755286  35.5114325 123.7064694  99.0757514
  36.8039183 124.3955121  98.6928934  29.3661388 122.9353847  98.2646546
  28.5293296 122.5076021  98.0830547  29.3385033 123.1286290  99.2017337
  36.2058843 112.8475777 108.9687792  36.2546999 113.7237900 108.5865562
  36.7481358 112.3053170 108.3959435  46.6913689 123.3916900 108.2488929
  45.9009233 123.3741039 107.7093429  46.4547044 123.9305194 109.0037966
  46.8111564 120.2409366 105.5621658  46.8609569 120.0759374 106.5037180
  46.7025487 119.3736626 105.1719538  35.6947823 122.9197912  92.8513747
  35.8435943 123.6033377  92.1980419  36.5014266 122.9003002  93.3663202
  44.1015326 116.2240295 106.8780964  45.0025189 116.0846759 106.5864962
  44.1763301 116.3894749 107.8179142  38.4358132 113.6007149 105.7234151
  37.5661441 113.8940715 105.4516739  38.6717612 114.1847594 106.4441414
  48.3129761 122.6606308 105.8063679  48.0214569 123.0236289 106.6427140
  47.7001892 121.9473316 105.6277011  49.5125443 120.2259188  98.3266249
  50.3472335 120.6648992  98.4903810  49.6484572 119.7497841  97.5074495
  46.5616949 117.7838923 104.2743737  47.0371071 117.9766569 103.4662589
  45.6382514 117.8398108 104.0287121  33.4500456 118.9463090  93.8574815
  33.2046498 118.0425420  94.0555026  33.6196370 118.9480240  92.9154293
  32.7196103 114.6791447  91.3560977  32.0265348 114.7535802  90.7001013
  32.4747855 113.9151791  91.8782494  39.1943228 125.4146043  90.3225494
  38.6217195 126.0336230  89.8695966  39.7676022 125.9645404  90.8565416
  43.2832998 111.7460266 102.6931444  42.6882930 112.0265279 101.9977932
  42.9982694 112.2354167 103.4648185  42.4140488 125.6983193  91.4534076
  43.3471161 125.6328754  91.6566952  42.3263701 126.5339460  90.9948609
  45.0428505 125.0149063  88.4138024  44.9642136 124.6808927  89.3073782
  45.8638172 125.5070831  88.4129496  47.7406696 117.8810802 101.6214342
  47.7083016 116.9426803 101.8074026  48.3507320 117.9594839 100.8880167
  39.5790027 116.7506855  87.6641546  40.5249131 116.6213063  87.7329965
  39.2004272 116.0121517  88.1410975  51.6398543 117.0834672 101.3594830
  50.9131706 116.9490637 100.7511322  51.2245830 117.3911500 102.1651548
  39.4628719 120.8024602 109.1242203  40.3831729 120.9803201 109.3182250
  39.4278302 119.8580647 108.9721903  37.7632944 114.6756832  87.5996432
  36.8564399 114.3789944  87.6759145  38.0408925 114.3786650  86.7330718
  28.6810884 115.9963195  98.0495478  28.3613669 115.1428503  97.7569852
  28.1344312 116.2111773  98.8053445  32.4590792 118.7125636 101.7664985
  32.6776802 119.6442744 101.7853018  32.8716566 118.3533611 102.5519788
  39.3795010 109.2193721  93.7540673  38.5695738 108.8740806  94.1295919
  40.0679427 108.9101265  94.3428285  37.3318657 114.2858842 111.1567734
  37.2315384 115.2353199 111.0879825  37.1140199 113.9577081 110.2843804
  36.5331729 111.5343767  87.7408411  37.3950893 111.8598665  88.0004228
  36.7182073 110.7475263  87.2281477  28.5499144 119.6166107 100.0188600
  27.8562616 119.2020059  99.5058554  29.2972135 119.6586643  99.4222019
  37.1949927 117.7155981 109.9732795  36.7117009 118.5156341 110.1796684
  37.2810866 117.7263926 109.0200239  30.4635887 119.5484360  97.8954615
  30.4406575 119.6472048  96.9436498  30.7736523 120.3949511  98.2171781
  33.1223265 121.6060515 102.0101229  34.0766518 121.5744458 101.9431161
  32.9235788 121.1451139 102.8251455  33.7122647 120.1761632 104.5772027
  34.5315536 120.6705710 104.6006864  33.9859455 119.2593600 104.5489594
  31.4773493 127.1480135  99.0271427  31.3427961 126.3880536  98.4609425
  31.0605556 127.8721035  98.5600216  42.6132456 122.3317058  88.0348002
  43.3168307 122.5367061  88.6505658  41.8895105 122.8993820  88.2997086
  43.4430267 118.0826920  94.1550272  43.3865468 118.5395471  93.3157905
  43.9958609 117.3217604  93.9773115  47.2535073 113.8716652  94.9800392
  46.9972007 113.4713287  95.8108600  46.6287941 114.5860446  94.8550531
  51.5647411 116.6112725  97.4871683  51.0046969 116.6805914  98.2603245
  50.9590914 116.4353709  96.7671179  34.6342619 128.0449452  99.2389870
  34.5175004 128.9894884  99.1368560  33.8135066 127.7423014  99.6275669
  44.5219154 122.7699588  90.0846462  45.3564758 122.3380786  89.9023937
  44.3603497 122.5981601  91.0123357  44.1765046 119.2731701  91.4502802
  44.1213850 119.1075972  90.5091246  43.5511101 119.9807734  91.6064991
  28.9657561 114.5099765 105.2764224  29.6116425 113.9998719 105.7651449
  28.7574712 115.2468447 105.8507649  41.4910953 121.5780613 110.7756364
  42.3602113 121.7521265 110.4142999  41.0117705 122.3975030 110.6532094
  37.4861172 108.7739810  91.0288120  37.4739841 109.7181650  91.1856391
  38.3784593 108.5909955  90.7347581  35.6597133 128.6977714 102.4545798
  36.5624380 128.7301324 102.7712293  35.4334504 127.7678165 102.4692134
  37.4150736 127.4508700  99.1155877  36.4646367 127.4510562  99.0020249
  37.7183222 126.7041435  98.5991911  41.3013291 105.3682587  95.2834057
  40.5345687 104.8141073  95.4290739  41.7123996 105.4404455  96.1448208
  33.3055052 111.6567382 109.3739238  34.1686514 111.3004187 109.5842563
  32.7320463 111.3181277 110.0614642  53.1503429 133.2869239 100.1801639
  53.7881839 133.1675986  99.4764979  53.0324272 134.2350083 100.2389591
  49.9593135 133.2396667 100.1163164  49.6211647 133.1237732  99.2283699
  50.8282903 132.8387832 100.0964170  45.8179951 135.0932143  96.1060055
  45.2544816 135.0022080  95.3376342  45.7032346 134.2732048  96.5862547
  50.4412918 134.3931519 106.0749369  50.4301559 133.9984317 105.2029873
  50.6033558 133.6597591 106.6683141  43.3644383 136.5883335  98.9444275
  44.1565675 136.2474160  98.5290574  43.6041033 136.6978310  99.8646428
  51.3979510 138.7603111  91.4174520  50.7467489 139.3457191  91.0308533
  52.1923872 139.2909306  91.4769557  45.3235137 135.8492248  91.8161654
  46.0966013 135.3021235  91.6774530  45.6760536 136.7136497  92.0276115
  47.1620179 137.1768630 105.0228553  46.8710045 138.0814261 104.9075219
  47.7977164 137.2185158 105.7372623  48.0876386 134.5545479 101.6129913
  48.6839959 134.3301501 100.8986876  48.1451358 133.8130224 102.2155361
  47.6601415 132.0084914  89.4480104  47.9126935 131.4866436  88.6863567
  46.7225974 131.8451060  89.5506787  52.7044697 131.0120693  97.2554847
  53.4907787 130.5940116  96.9045264  52.9683402 131.9166785  97.4236495
  52.8754775 136.4493543  91.9543504  52.2400608 136.5228169  92.6664408
  52.5452181 137.0387142  91.2762583  58.1053125 130.9495926  98.1587826
  58.8378297 130.3795143  98.3925655  57.3492480 130.5617526  98.5994331
  47.3797703 133.9113020  91.6504479  47.2633962 133.2357924  92.3185563
  47.4899963 133.4245394  90.8336632  49.7229244 133.3723167  95.3551168
  49.3587452 132.8453788  96.0664089  50.5796360 132.9821636  95.1817653
  55.6278545 124.6617500 102.6182434  55.2961870 125.5312911 102.3943649
  55.0324158 124.3453784 103.2976465  49.3634731 128.4013067  90.3512516
  49.5309134 129.2693303  90.7182988  49.1731900 128.5640349  89.4273806
  52.1210064 136.8630046 102.0178347  51.8210788 137.7655085 101.9094154
  51.7761124 136.5962229 102.8699500  45.5722546 133.3143843  98.0515051
  44.6473042 133.1820057  98.2592743  45.8206959 134.0938062  98.5484994
  55.5207208 129.3812586  99.6975784  54.6124086 129.3127995  99.4034545
  55.4694804 129.8584531 100.5257610  49.3423952 130.8570725  91.3359183
  49.2223577 131.3027775  92.1744664  48.6476541 131.2056042  90.7772721
  42.9331357 132.9577116  98.8858840  43.0623738 133.2111595  99.7998252
  42.2528808 133.5504824  98.5663495  49.5948074 130.8002232 107.6410681
  48.8181408 131.3596152 107.6313546  50.2338637 131.2859015 108.1625552
  57.3868855 127.5829025 101.4753658  56.7443235 127.8761558 100.8293453
  56.8823783 127.4681945 102.2806855  55.0409018 131.3292198  92.1639517
  55.9526874 131.5619584  91.9887215  54.5318665 131.9129242  91.6014596
  47.8494446 133.6087685 107.2028648  48.5909131 134.1472729 106.9263472
  47.1431432 134.2353974 107.3600200  53.3249786 135.7516826 105.8000810
  53.7333142 135.3099236 105.0555442  52.6027048 135.1769453 106.0535003
  49.6780856 130.6889432 103.1734367  50.5242051 131.1128846 103.3169016
  49.6179494 130.0323057 103.8672930  53.6478601 136.3118016  99.5553099
  53.0187463 136.4763730  98.8529167  53.2604263 136.7259626 100.3264063
  57.5267833 137.2472454  96.9097463  56.8418871 137.6271355  96.3594496
  57.6111682 137.8567781  97.6429410  52.8280301 128.3493801 104.8315541
  52.5841233 129.1035861 104.2949816  53.1040232 128.7279148 105.6662788
  54.7818764 134.8932413 103.5092806  54.9935659 135.5364173 102.8327187
  54.7348512 134.0594730 103.0414736  52.3844993 127.5050234 100.4129378
  51.5229472 127.8031487 100.7046116  52.4107428 127.7220633  99.4810411
  49.2006563 136.0492424  96.8203184  49.6644908 136.3280127  96.0307806
  48.9363361 135.1475869  96.6376275  46.0930644 135.5963906  99.7582947
  46.6632001 136.0251174  99.1200432  46.6838755 135.3146491 100.4567133
  48.1375449 132.1715577  93.6292749  48.8399492 132.6236620  94.0966675
  47.8056077 131.5299396  94.2572642  46.5855810 130.7627333 108.0043958
  45.9554471 131.4443614 108.2379355  46.4791898 130.6510415 107.0597097
  41.8800783 130.4299129  98.9309883  41.0899837 130.6856658  98.4549993
  42.3712030 131.2447467  99.0361923  55.8964592 137.7704368 101.6815163
  56.7182036 137.3684556 101.3997845  55.8926995 137.6672603 102.6331279
  43.8315528 130.7943709  95.8893359  43.0346691 130.9062403  96.4076855
  43.6041120 131.1330361  95.0234250  49.6621196 137.3188412 103.8375874
  49.7265628 137.7808819 104.6734046  48.9532119 136.6885777 103.9658184
  40.1638486 130.6829620 101.3624873  40.4146524 131.5676630 101.6282449
  40.6998034 130.5034221 100.5899965  63.9870585 134.1143117  98.0300135
  63.2334294 133.5450515  97.8744139  64.1218126 134.0805781  98.9770770
  49.3769213 138.9856519  93.7054854  49.2414888 139.8308055  94.1339702
  49.9179026 139.1875797  92.9420788  45.8636553 125.0648099 110.3669209
  45.4703498 124.5114298 111.0416854  46.6802693 125.3758678 110.7575727
  42.8298611 136.5031957  94.2782779  43.3423131 137.2975208  94.4288344
  43.4821323 135.8058248  94.2116381  48.7804514 126.4805978 107.9589466
  49.5214227 127.0813131 107.8793929  49.0122437 125.7383616 107.4007509
  43.9245852 131.6662345 106.2367696  43.8099367 130.7647603 106.5374795
  43.0690370 131.9126042 105.8852512  51.0037690 139.6080086 107.8355196
  50.5601544 138.8216464 107.5176101  51.6654903 139.7959236 107.1699087
  53.1018928 139.8882886 105.8636598  53.0837403 140.7091767 105.3716867
  54.0238848 139.7636961 106.0886739  49.5591982 137.4027015 106.7060106
  50.0920319 136.6415303 106.4759414  49.0306063 137.1100667 107.4484260
  52.7261677 122.5087081 102.2353748  52.3825946 123.3988723 102.1592858
  53.0940639 122.3188739 101.3723333  40.7947527 134.8320612  95.0542350
  41.6322749 135.2417620  94.8376058  40.9725795 133.8920054  95.0242544
  52.6911959 132.4995692  90.7426183  52.1758583 133.2700297  90.9814570
  52.4189268 131.8260828  91.3659244  50.2759071 127.3445393  95.8011421
  49.4200667 126.9552243  95.6217060  50.6886022 127.4237354  94.9411207
  51.8058217 124.8791736 100.2002981  51.3023013 124.8421871  99.3870786
  52.0988824 125.7884479 100.2599638  48.0501103 124.9630466  99.2069163
  48.9154100 124.7673275  98.8475052  48.1178612 124.7340818 100.1338519
  57.6646234 135.2528047  92.6779356  56.8875676 134.9139206  92.2334518
  58.3437715 135.2580670  92.0034321  52.4798263 130.3722784  92.5685964
  52.1748398 130.6868934  93.4196107  53.4328705 130.4504204  92.6113297
  50.9244695 136.5313008  94.2178918  50.3966056 135.7965767  93.9052155
  50.4232197 137.3087684  93.9718886  55.9037541 134.7262028  99.3345964
  55.2461215 135.4161290  99.4226093  56.7077940 135.1158460  99.6779951
  45.6563422 127.1932674  96.5785530  46.2307174 126.9707855  95.8458722
  46.2434405 127.2621368  97.3314131  54.7142999 133.0806401  97.3849906
  55.2274881 133.7136393  97.8871616  55.3644223 132.4807596  97.0193266
  45.9833009 129.2237135  90.5981415  45.1470321 129.5611822  90.9190690
  45.8437779 129.0886115  89.6608552  47.9586090 124.0673923  95.3060599
  47.3050502 123.7522940  94.6817214  47.9166564 123.4449663  96.0320422
  49.0697295 134.3493218  87.2213891  48.1624356 134.1182471  87.4205040
  49.5668327 133.5530837  87.4087873  51.1923830 130.5555856  99.6308247
  50.2746392 130.7770803  99.4729935  51.6083974 130.6302167  98.7719954
  51.9758878 131.9547272  94.7610927  52.7230697 132.4668669  94.4518049
  52.2450468 131.6331325  95.6215320  50.2485528 134.4505813  91.7437881
  49.3396747 134.1664846  91.8410351  50.2780612 134.8704891  90.8841188
  55.4804796 138.0612402  95.5129049  55.0267123 137.2203312  95.5694239
  54.8498762 138.6973801  95.8503829  54.4237715 128.9904388  96.7429716
  53.6860472 128.4781775  97.0739959  54.6764489 128.5504770  95.9312993
  53.9237735 139.8988899  96.4478867  54.2160709 140.4593956  95.7291232
  54.4336355 140.1917460  97.2032026  54.5249342 121.7680640  97.3371485
  54.8308219 120.9078004  97.0497400  55.2501947 122.3598261  97.1370479
  40.8173699 132.1711327  95.7253083  40.6198098 131.5780688  95.0004150
  40.2620363 131.8663537  96.4429022  48.7970422 132.0634433  97.8447676
  48.8519032 131.1108270  97.7690153  47.9861624 132.2193872  98.3288975
  49.9461616 135.9914556  89.0825960  49.5081046 135.2750415  88.6231597
  50.6872057 136.2190671  88.5211051  46.7362782 130.6811493  95.6038055
  45.9230648 130.9805664  96.0103247  47.2321776 130.2867182  96.3212538
  52.3336994 131.1453318 104.4352949  52.6886382 131.3724791 105.2947415
  52.9809125 131.4771694 103.8130205  58.0634731 134.2671753  95.1402278
  57.9252629 134.4573349  94.2123467  57.7070950 135.0291136  95.5970329
  46.2276857 128.2529849 101.2199290  46.8676236 128.1118608 100.5222254
  45.3954387 127.9664362 100.8437892  58.0904110 136.3348281 100.1513550
  58.5240617 136.2423570 100.9996604  58.8035691 136.3105781  99.5133566
  47.0037161 137.5532279  97.3334283  47.7977759 137.0582599  97.1316858
  46.2928853 137.0250142  96.9701988  51.8232005 139.9350375 101.6846650
  51.8769028 140.5041311 102.4524366  50.9546787 140.1052260 101.3200688
  43.3119924 131.6975361  93.4094035  42.3817512 131.6359816  93.6263998
  43.4077396 131.1751314  92.6130677  43.2305473 128.2230174  95.9972277
  43.4912291 129.1375507  95.8881438  44.0522646 127.7554616  96.1468890
  44.7030399 129.6367931 103.1671102  45.3753452 129.4285293 102.5183751
  43.8760185 129.4390017 102.7276334  58.9519660 136.3771981 102.6846435
  59.1455550 137.2817792 102.9305710  58.8520278 135.9179400 103.5185020
  50.6055971 126.2629872 105.1836763  49.9583886 126.9619821 105.0901239
  51.3756986 126.6966016 105.5513011  54.0134769 136.5278724 108.2587316
  53.8620275 136.2989276 107.3417399  54.0039448 137.4849325 108.2718661
  50.7820105 134.1010637 103.2433582  51.7112165 134.2521796 103.0702550
  50.3611135 134.1894657 102.3882229  49.5808437 138.1261301 101.0132120
  49.4419522 137.7580085 101.8858058  48.7923033 138.6408940 100.8416078
  51.1313652 137.5042904  98.4020958  50.7963485 137.4643674  99.2978608
  50.6317598 136.8387620  97.9291368  45.1057896 132.9110534 103.9273539
  44.9677694 132.1790773 104.5285078  46.0162819 132.8219434 103.6457727
  54.0672844 134.8498938  88.6758017  53.4502014 134.1245766  88.5791070
  53.5989332 135.6108298  88.3325092  47.7340197 132.6230493 103.4157218
  48.4439815 131.9823685 103.3743837  47.6909505 132.8743388 104.3383399
  55.7226975 139.5597846 106.3363798  55.6639521 138.8757067 105.6694381
  56.1246494 140.3016836 105.8844424  46.4469131 129.6095711 105.2352858
  45.9106488 129.1586449 105.8874454  45.8585839 129.7441620 104.4923322
  45.8571389 129.0684362  87.7979322  44.9800856 128.9473163  87.4341568
  46.3329143 128.2770441  87.5458210  55.7244382 137.5237430 104.5677777
  54.8371161 137.1863352 104.6904176  56.2942934 136.7920462 104.8046543
  37.3773530 133.8561522  97.8920829  38.0644569 133.5423252  97.3041844
  37.2221658 134.7602887  97.6188080  42.1808252 128.7451719 102.3205852
  42.0966440 128.1377388 101.5856262  41.3590958 129.2360737 102.3215349
  52.3531966 127.2305282  97.6876047  52.8500665 126.4775245  97.3677118
  51.5818947 127.2669599  97.1219257  60.2061723 132.9345648  99.3294339
  60.1951599 133.8170363  98.9588272  59.3379102 132.5817199  99.1348876
  53.4361746 135.9876969  95.2614471  52.5018025 136.1078432  95.0919175
  53.6138415 135.0849436  94.9974481  48.9366934 129.3722665  97.4147732
  48.5664722 128.8193706  98.1028638  49.4326027 128.7680799  96.8622732
  56.8234298 131.8294289  95.7964505  57.2894750 132.6622280  95.7224808
  57.2741798 131.3639270  96.5009764  54.8910529 138.1738110  92.7950657
  55.1670373 138.0594705  93.7044531  54.0215027 137.7755595  92.7562830
  54.7950960 124.1974876  99.8355406  53.8814040 124.4279103 100.0037613
  55.2244062 124.2813320 100.6869439  54.5657419 132.3864768 102.3355300
  53.9128869 132.6340675 101.6807753  54.9437799 131.5728906 102.0017778
  50.6144992 133.1284579 108.8221337  49.9385629 133.0278708 109.4923713
  51.4372626 132.9723792 109.2857335  36.9541506 131.9362116 100.1638296
  36.9925605 131.4025706 100.9575414  36.4481799 131.4097321  99.5449273
  44.3332268 126.7826656 103.6600838  44.3973595 127.6441487 103.2478236
  44.2699388 126.1700658 102.9273197  43.8084541 128.8549789 107.3073872
  44.4356579 128.4726866 107.9211397  42.9512459 128.6363990 107.6729565
  54.2078649 139.2612764 108.9127608  54.7518553 139.8742722 108.4182563
  53.6265494 139.8192342 109.4294621  40.5850083 130.6626218  93.2392227
  40.8803524 129.7536896  93.1859281  39.6838119 130.6413957  92.9173230
  44.1144330 128.7382214  99.2219776  43.3930916 129.3518182  99.0827249
  44.9037586 129.2739979  99.1436422  54.5571070 140.1842502 101.6722186
  53.6101406 140.0647853 101.6000512  54.9053844 139.2965000 101.7548447
  46.9170644 126.0736641 105.4960428  47.4405046 126.3198937 106.2586737
  46.6982977 126.9056676 105.0763565  42.3137925 128.3440315  93.3631552
  41.9850631 127.4637694  93.1806658  42.6677296 128.2887984  94.2507942
  51.5617504 139.9795218  97.8726538  51.4142466 139.0511925  98.0534108
  52.3870997 140.0015309  97.3883613  45.4279748 128.6313285  93.7307030
  45.7675821 129.1599206  93.0085638  45.8751869 128.9693691  94.5065597
  55.1651626 140.8023777  98.9591411  56.0898173 140.5966638  98.8215862
  54.9966929 140.5540178  99.8680752  48.1223189 127.0150336 103.1810098
  47.7820009 126.2158149 103.5830778  47.4162195 127.3152047 102.6086931
  48.7739661 124.0999648 101.6337421  49.5965730 123.6260126 101.5116311
  49.0177724 124.8790132 102.1336107  47.4147895 127.1287907  91.9300323
  48.1356258 127.5069159  91.4264040  46.7913199 127.8476784  92.0335301
  51.5579018 127.8333056  92.8658655  51.7742632 128.7157694  92.5647483
  51.0773085 127.4419269  92.1364297  46.2978239 130.7918769  99.4429400
  46.1522820 131.1059072 100.3353681  45.8203443 131.4103669  98.8900298
  48.1574622 127.7821317  99.4910289  48.1436191 126.8862410  99.1542587
  48.8747050 127.7891981 100.1248575  50.0100753 128.2158657 101.5363417
  49.7518531 129.1375728 101.5347747  49.4785793 127.8189092 102.2263881
  54.9546942 141.3209444  94.3153502  55.1283819 140.7555867  93.5627355
  55.4475833 142.1210339  94.1332992  40.7723902 133.3324113 102.3817061
  40.2277370 134.1083921 102.5137335  41.6503251 133.6794918 102.2236182
  47.5611518 126.6635697  94.7597859  47.6827429 125.7352343  94.9588747
  47.2713561 126.6774383  93.8476175  50.4302709 124.3490608  97.8964579
  50.4524405 124.4129941  96.9416559  50.8470768 123.5095116  98.0905085
  60.8086333 134.0845867  95.9343802  61.2517479 133.3353192  95.5362925
  59.9312843 134.0756004  95.5517534  55.9422114 140.6376209  91.4150400
  56.6373019 141.2582901  91.6337715  56.2845264 139.7871560  91.6902778
  41.5589923 132.4594010 105.2747218  40.8171660 132.6076645 105.8611848
  41.2382668 132.7202275 104.4113967  57.8413537 138.0875914  92.9437731
  58.3664862 138.4263187  92.2187051  57.7535890 137.1522929  92.7600866
  47.0452598 128.1767695 108.9687792  47.0940753 129.0529817 108.5865562
  47.5875112 127.6345088 108.3959435  57.5307443 138.7208818 108.2488929
  56.7402987 138.7032957 107.7093429  57.2940798 139.2597111 109.0037966
  57.6505319 135.5701284 105.5621658  57.7003323 135.4051292 106.5037180
  57.5419242 134.7028543 105.1719538  46.5341577 138.2489830  92.8513747
  46.6829698 138.9325294  92.1980419  47.3408021 138.2294920  93.3663202
  54.9409081 131.5532212 106.8780964  55.8418944 131.4138677 106.5864962
  55.0157055 131.7186667 107.8179142  49.2751886 128.9299067 105.7234151
  48.4055196 129.2232633 105.4516739  49.5111367 129.5139512 106.4441414
  59.1523515 137.9898226 105.8063679  58.8608324 138.3528206 106.6427140
  58.5395647 137.2765234 105.6277011  60.3519198 135.5551105  98.3266249
  61.1866089 135.9940910  98.4903810  60.4878326 135.0789759  97.5074495
  57.4010704 133.1130840 104.2743737  57.8764825 133.3058487 103.4662589
  56.4776269 133.1690026 104.0287121  44.2894210 134.2755007  93.8574815
  44.0440252 133.3717337  94.0555026  44.4590125 134.2772158  92.9154293
  51.9790920 125.1478684 103.2399571  52.4972864 125.8839711 102.9146060
  51.6246053 125.4542677 104.0746330  43.5589858 130.0083365  91.3560977
  42.8659103 130.0827720  90.7001013  43.3141610 129.2443709  91.8782494
  52.2303514 121.5678966  98.7600468  52.5105268 120.9002155  99.3860894
  53.0154121 121.7608062  98.2475132  56.1012373 129.9896600 102.5072043
  57.0529795 130.0894698 102.5284267  55.9315823 129.1974869 103.0170127
  54.1226752 127.0752184 102.6931444  53.5276684 127.3557196 101.9977932
  53.8376449 127.5646085 103.4648185  55.8822259 140.3440981  88.4138024
  55.8035891 140.0100844  89.3073782  56.7031926 140.8362749  88.4129496
  58.5800450 133.2102720 101.6214342  58.5476770 132.2718721 101.8074026
  59.1901074 133.2886757 100.8880167  50.4183781 132.0798773  87.6641546
  51.3642886 131.9504981  87.7329965  50.0398026 131.3413435  88.1410975
  58.7294939 130.0013764 101.6672626  58.2133988 129.2172220 101.4802554
  59.6134887 129.6732480 101.8319145  56.3905666 123.7454779  97.6268438
  56.1930487 123.4369867  98.5111770  57.0005371 124.4716418  97.7566368
  64.3977000 134.2718727 100.7620379  65.1280389 134.0104015 101.3228083
  63.7883946 133.5347449 100.8022447  62.4792297 132.4126590 101.3594830
  61.7525461 132.2782554 100.7511322  62.0639584 132.7203418 102.1651548
  50.3022474 136.1316519 109.1242203  51.2225483 136.3095118 109.3182250
  50.2672057 135.1872565 108.9721903  48.6026698 130.0048749  87.5996432
  47.6958154 129.7081862  87.6759145  48.8802679 129.7078568  86.7330718
  39.5204639 131.3255113  98.0495478  39.2007423 130.4720421  97.7569852
  38.9738067 131.5403691  98.8053445  43.2984546 134.0417554 101.7664985
  43.5170556 134.9734662 101.7853018  43.7110320 133.6825528 102.5519788
  50.2188764 124.5485639  93.7540673  49.4089492 124.2032724  94.1295919
  50.9073181 124.2393183  94.3428285  52.1479312 123.6263686  95.3764970
  52.7010351 124.0459139  96.0354993  52.3849399 122.6999434  95.4187926
  48.1712412 129.6150760 111.1567734  48.0709139 130.5645117 111.0879825
  47.9533954 129.2868999 110.2843804  47.3725483 126.8635685  87.7408411
  48.2344647 127.1890583  88.0004228  47.5575827 126.0767181  87.2281477
  39.3892899 134.9458024 100.0188600  38.6956370 134.5311977  99.5058554
  40.1365890 134.9878561  99.4222019  55.5258119 125.7364211  94.8843634
  54.9456789 126.3949015  94.5021686  55.2594052 124.9141556  94.4731051
  53.9761686 125.1369269  97.0864954  54.4761464 125.2485803  96.2779273
  54.6197294 124.8330322  97.7265763  48.0343682 133.0447898 109.9732795
  47.5510763 133.8448259 110.1796684  48.1204621 133.0555843 109.0200239
  41.3029641 134.8776278  97.8954615  41.2800329 134.9763965  96.9436498
  41.6130278 135.7241429  98.2171781  43.9617019 136.9352433 102.0101229
  44.9160273 136.9036375 101.9431161  43.7629543 136.4743057 102.8251455
  44.5516401 135.5053549 104.5772027  45.3709290 135.9997628 104.6006864
  44.8253209 134.5885517 104.5489594  54.3082998 127.8964302  93.9399982
  53.4208853 128.1813952  93.7220177  54.7236987 127.7358065  93.0927259
  57.6597534 127.9210822  97.6554321  58.4357924 128.4107275  97.9278938
  56.9345668 128.3468877  98.1126191  60.0970092 128.6338442  98.7128262
  60.6914583 128.3934178  98.0021570  60.1696676 127.9145572  99.3401798
  53.4526211 137.6608976  88.0348002  54.1562061 137.8658979  88.6505658
  52.7288860 138.2285738  88.2997086  54.2824021 133.4118837  94.1550272
  54.2259223 133.8687389  93.3157905  54.8352364 132.6509522  93.9773115
  58.0928827 129.2008569  94.9800392  57.8365761 128.8005205  95.8108600
  57.4681695 129.9152363  94.8550531  62.4041165 131.9404643  97.4871683
  61.8440723 132.0097832  98.2603245  61.7984668 131.7645627  96.7671179
  55.3612908 138.0991505  90.0846462  56.1958512 137.6672704  89.9023937
  55.1997251 137.9273519  91.0123357  55.0158801 134.6023619  91.4502802
  54.9607604 134.4367890  90.5091246  54.3904856 135.3099652  91.6064991
  39.8051316 129.8391683 105.2764224  40.4510179 129.3290637 105.7651449
  39.5968467 130.5760365 105.8507649  52.3304708 136.9072531 110.7756364
  53.1995867 137.0813183 110.4142999  51.8511459 137.7266947 110.6532094
  48.3254926 124.1031728  91.0288120  48.3133596 125.0473568  91.1856391
  49.2178348 123.9201873  90.7347581  52.1407045 120.6974504  95.2834057
  51.3739441 120.1432991  95.4290739  52.5517750 120.7696373  96.1448208
  44.1448807 126.9859300 109.3739238  45.0080268 126.6296105 109.5842563
  43.5714217 126.6473195 110.0614642  68.9446879 146.2787844  98.1587826
  69.6772051 145.7087060  98.3925655  68.1886235 145.8909444  98.5994331
  66.4672299 139.9909418 102.6182434  66.1355624 140.8604829 102.3943649
  65.8717913 139.6745702 103.2976465  66.3600963 144.7104504  99.6975784
  65.4517840 144.6419912  99.4034545  66.3088559 145.1876449 100.5257610
  68.2262609 142.9120942 101.4753658  67.5836989 143.2053475 100.8293453
  67.7217538 142.7973863 102.2806855  63.6674056 143.6785718 104.8315541
  63.4234988 144.4327779 104.2949816  63.9433986 144.0571066 105.6662788
  63.2238748 142.8342151 100.4129378  62.3623227 143.1323405 100.7046116
  63.2501182 143.0512550  99.4810411  56.7030307 140.3940017 110.3669209
  56.3097253 139.8406215 111.0416854  57.5196448 140.7050595 110.7575727
  59.6198268 141.8097896 107.9589466  60.3607982 142.4105049 107.8793929
  59.8516191 141.0675534 107.4007509  63.5655431 137.8378999 102.2353748
  63.2219701 138.7280641 102.1592858  63.9334394 137.6480656 101.3723333
  61.1152825 142.6737311  95.8011421  60.2594421 142.2844161  95.6217060
  61.5279777 142.7529272  94.9411207  62.6451972 140.2083654 100.2002981
  62.1416767 140.1713789  99.3870786  62.9382579 141.1176397 100.2599638
  58.8894858 140.2922384  99.2069163  59.7547854 140.0965192  98.8475052
  58.9572366 140.0632735 100.1338519  56.4957177 142.5224592  96.5785530
  57.0700929 142.2999773  95.8458722  57.0828159 142.5913286  97.3314131
  58.7979844 139.3965841  95.3060599  58.1444257 139.0814858  94.6817214
  58.7560318 138.7741581  96.0320422  65.2631470 144.3196306  96.7429716
  64.5254226 143.8073692  97.0739959  65.5158243 143.8796688  95.9312993
  65.3643097 137.0972558  97.3371485  65.6701974 136.2369921  97.0497400
  66.0895702 137.6890178  97.1370479  61.4449725 141.5921789 105.1836763
  60.7977640 142.2911739 105.0901239  62.2150741 142.0257933 105.5513011
  63.1925720 142.5597200  97.6876047  63.6894420 141.8067162  97.3677118
  62.4212702 142.5961517  97.1219257  65.6344715 139.5266793  99.8355406
  64.7207795 139.7571020 100.0037613  66.0637816 139.6105237 100.6869439
  57.7564398 141.4028558 105.4960428  58.2798800 141.6490855 106.2586737
  57.5376732 142.2348593 105.0763565  58.9616943 142.3442254 103.1810098
  58.6213764 141.5450067 103.5830778  58.2555950 142.6443964 102.6086931
  59.6133415 139.4291566 101.6337421  60.4359485 138.9552044 101.5116311
  59.8571479 140.2082050 102.1336107  62.3972773 143.1624973  92.8658655
  62.6136387 144.0449611  92.5647483  61.9166840 142.7711187  92.1364297
  58.9968377 143.1113235  99.4910289  58.9829946 142.2154328  99.1542587
  59.7140805 143.1183898 100.1248575  58.4005273 141.9927615  94.7597859
  58.5221184 141.0644261  94.9588747  58.1107315 142.0066301  93.8476175
  61.2696463 139.6782525  97.8964579  61.2918160 139.7421858  96.9416559
  61.6864522 138.8387034  98.0905085  62.8184675 140.4770602 103.2399571
  63.3366618 141.2131628 102.9146060  62.4639807 140.7834595 104.0746330
  63.0697269 136.8970884  98.7600468  63.3499023 136.2294073  99.3860894
  63.8547876 137.0899980  98.2475132  66.9406127 145.3188518 102.5072043
  67.8923550 145.4186616 102.5284267  66.7709578 144.5266787 103.0170127
  64.9620507 142.4044101 102.6931444  64.3670439 142.6849114 101.9977932
  64.6770203 142.8938002 103.4648185  69.5688693 145.3305681 101.6672626
  69.0527742 144.5464138 101.4802554  70.4528642 145.0024398 101.8319145
  67.2299420 139.0746697  97.6268438  67.0324241 138.7661785  98.5111770
  67.8399126 139.8008336  97.7566368  73.3186052 147.7418507 101.3594830
  72.5919215 147.6074472 100.7511322  72.9033339 148.0495336 102.1651548
  61.0582519 139.8777557  93.7540673  60.2483247 139.5324642  94.1295919
  61.7466936 139.5685101  94.3428285  62.9873067 138.9555604  95.3764970
  63.5404106 139.3751057  96.0354993  63.2243153 138.0291352  95.4187926
  58.2119238 142.1927602  87.7408411  59.0738402 142.5182501  88.0004228
  58.3969582 141.4059098  87.2281477  66.3651874 141.0656129  94.8843634
  65.7850543 141.7240933  94.5021686  66.0987807 140.2433473  94.4731051
  64.8155440 140.4661187  97.0864954  65.3155219 140.5777721  96.2779273
  65.4591048 140.1622239  97.7265763  65.1476752 143.2256219  93.9399982
  64.2602607 143.5105870  93.7220177  65.5630741 143.0649983  93.0927259
  68.4991288 143.2502740  97.6554321  69.2751678 143.7399193  97.9278938
  67.7739422 143.6760794  98.1126191  70.9363847 143.9630359  98.7128262
  71.5308338 143.7226095  98.0021570  71.0090430 143.2437490  99.3401798
  68.9322582 144.5300487  94.9800392  68.6759516 144.1297123  95.8108600
  68.3075450 145.2444281  94.8550531  73.2434920 147.2696560  97.4871683
  72.6834478 147.3389750  98.2603245  72.6378423 147.0937545  96.7671179
  59.1648681 139.4323645  91.0288120  59.1527350 140.3765485  91.1856391
  60.0572102 139.2493791  90.7347581  62.9800800 136.0266422  95.2834057
  62.2133196 135.4724909  95.4290739  63.3911505 136.0988291  96.1448208
   3.9084353  31.3098460  84.8833132   4.6409525  30.7397677  85.1170962
   3.1523709  30.9220061  85.3239638   1.4309774  25.0220034  89.3427741
   1.0993099  25.8915445  89.1188956   0.8355387  24.7056318  90.0221771
   1.3238437  29.7415120  86.4221091   0.4155314  29.6730529  86.1279852
   1.2726033  30.2187065  87.2502916   3.1900083  27.9431559  88.1998965
   2.5474464  28.2364092  87.5538759   2.6855012  27.8284479  89.0052161
   0.8440247  31.6894732  78.8884824   1.7558103  31.9222119  78.7132522
   0.3349894  32.2731776  78.3259903   3.3299061  37.6074988  83.6342769
   2.6450100  37.9873890  83.0839803   3.4142911  38.2170315  84.3674717
   0.5849993  35.2534947  90.2338113   0.7966888  35.8966707  89.5572494
   0.5379741  34.4197264  89.7660043   1.6995821  38.1306903  88.4060470
   2.5213265  37.7287090  88.1243152   1.6958224  38.0275137  89.3576586
   9.7901814  34.4745651  84.7545442   9.0365522  33.9053049  84.5989446
   9.9249355  34.4408316  85.7016076   3.4677462  35.6130581  79.4024663
   2.6906905  35.2741741  78.9579825   4.1468943  35.6183204  78.7279628
   1.7068769  35.0864562  86.0591271   1.0492444  35.7763824  86.1471400
   2.5109169  35.4760994  86.4025257   0.5174228  33.4408935  84.1095213
   1.0306110  34.0738927  84.6116922   1.1675452  32.8410131  83.7438573
   1.2836024  38.4214937  82.2374355   0.8298351  37.5805846  82.2939546
   0.6529991  39.0576335  82.5749135   0.3280571  22.1283175  84.0616792
   0.6339448  21.2680538  83.7742707   1.0533176  22.7200795  83.8615786
   3.8665960  34.6274288  81.8647585   3.7283858  34.8175884  80.9368774
   3.5102178  35.3893671  82.3215636   3.8935339  36.6950815  86.8758856
   4.3271846  36.6026104  87.7241910   4.6066920  36.6708315  86.2378872
   4.7550889  36.7374515  89.4091742   4.9486779  37.6420326  89.6551017
   4.6551507  36.2781934  90.2430327   1.5258204  39.9200381  93.0609104
   1.4670750  39.2359601  92.3939687   1.9277722  40.6619371  92.6089730
   1.5275611  37.8839965  91.2923084   0.6402390  37.5465886  91.4149483
   2.0974162  37.1522996  91.5291849   6.0092952  33.2948182  86.0539646
   5.9982828  34.1772897  85.6833579   5.1410331  32.9419733  85.8594183
   2.6265526  32.1896823  82.5209812   3.0925979  33.0224815  82.4470114
   3.0773027  31.7241805  83.2255070   0.9682854  41.1626311  85.6836717
   1.8929402  40.9569172  85.5461168   0.7998158  40.9142712  86.5926059
   0.7578171  41.6811978  81.0398809   0.9315048  41.1158401  80.2872661
   1.2507062  42.4812873  80.8578299   6.6117562  34.4448401  82.6589109
   7.0548708  33.6955727  82.2608232   5.7344072  34.4358538  82.2762840
   1.7453343  40.9978743  78.1395707   2.4404248  41.6185436  78.3583022
   2.0876493  40.1474094  78.4148085   3.6444766  38.4478448  79.6683038
   4.1696090  38.7865721  78.9432358   3.5567119  37.5125464  79.4846172
   3.3338672  39.0811352  94.9734236   2.5434216  39.0635491  94.4338735
   3.0972027  39.6199646  95.7283272   3.4536547  35.9303818  92.2866964
   3.5034552  35.7653826  93.2282487   3.3450471  35.0631077  91.8964845
   0.7440310  31.9134746  93.6026271   1.6450172  31.7741211  93.3110269
   0.8188284  32.0789201  94.5424448   4.9554744  38.3500760  92.5308986
   4.6639552  38.7130740  93.3672447   4.3426875  37.6367768  92.3522318
   6.1550426  35.9153640  85.0511556   6.9897318  36.3543444  85.2149116
   6.2909555  35.4392293  84.2319802   3.2041932  33.4733375  90.9989044
   3.6796054  33.6661021  90.1907895   2.2807498  33.5292560  90.7532428
   1.9043601  30.3499135  89.2317349   2.8561024  30.4497232  89.2529573
   1.7347052  29.5577403  89.7415434   1.6853488  40.7043515  75.1383330
   1.6067120  40.3703379  76.0319088   2.5063155  41.1965283  75.1374803
   4.3831679  33.5705254  88.3459649   4.3507999  32.6321255  88.5319333
   4.9932303  33.6489291  87.6125474   4.5326168  30.3616298  88.3917932
   4.0165216  29.5774754  88.2047861   5.4166116  30.0335014  88.5564452
   2.1936895  24.1057313  84.3513745   1.9961716  23.7972401  85.2357077
   2.8036600  24.8318952  84.4811675  10.2008229  34.6321261  87.4865686
  10.9311618  34.3706549  88.0473389   9.5915175  33.8949983  87.5267754
   8.2823526  32.7729124  88.0840137   7.5556690  32.6385089  87.4756629
   7.8670813  33.0805952  88.8896855   1.3289348  26.0966745  81.6088941
   0.7488017  26.7551549  81.2266993   1.0625281  25.2744090  81.1976358
   3.4628762  28.2813357  84.3799628   4.2389153  28.7709809  84.6524245
   2.7376897  28.7071411  84.8371498   5.9001321  28.9940976  85.4373569
   6.4945812  28.7536712  84.7266877   5.9727905  28.2748106  86.0647105
   3.8960056  29.5611104  81.7045698   3.6396990  29.1607739  82.5353906
   3.2712924  30.2754897  81.5795838   8.2072394  32.3007177  84.2116990
   7.6471952  32.3700366  84.9848552   7.6015897  32.1248161  83.4916486
   1.1644137  38.4594040  76.8091769   1.9989741  38.0275238  76.6269244
   1.0028480  38.2876053  77.7368663   9.7928412  48.9763691  86.9046946
  10.4306822  48.8570438  86.2010286   9.6749255  49.9244535  86.9634898
   6.6018119  48.9291119  86.8408470   6.2636630  48.8132184  85.9529005
   7.4707887  48.5282284  86.8209476   2.4604934  50.7826595  82.8305361
   1.8969799  50.6916532  82.0621649   2.3457329  49.9626500  83.3107854
   7.0837902  50.0825971  92.7994676   7.0726542  49.6878769  91.9275179
   7.2458541  49.3492043  93.3928447   8.0404493  54.4497563  78.1419826
   7.3892473  55.0351643  77.7553840   8.8348856  54.9803758  78.2014864
   1.9660120  51.5386700  78.5406960   2.7390996  50.9915687  78.4019836
   2.3185519  52.4030949  78.7521422   3.8045163  52.8663082  91.7473860
   3.5135029  53.7708713  91.6320526   4.4402147  52.9079610  92.4617929
   4.7301370  50.2439931  88.3375219   5.3264942  50.0195953  87.6232182
   4.7876341  49.5024676  88.9400667   4.3026398  47.6979366  76.1725410
   4.5551919  47.1760887  75.4108873   3.3650957  47.5345512  76.2752094
   9.3469681  46.7015145  83.9800154  10.1332770  46.2834568  83.6290571
   9.6108385  47.6061237  84.1481802   9.5179758  52.1387995  78.6788810
   8.8825591  52.2122621  79.3909715   9.1877165  52.7281594  78.0007890
  14.7478108  46.6390378  84.8833132  15.4803280  46.0689595  85.1170962
  13.9917464  46.2511978  85.3239638   4.0222687  49.6007472  78.3749785
   3.9058945  48.9252376  79.0430870   4.1324947  49.1139846  77.5581938
   6.3654228  49.0617619  82.0796475   6.0012435  48.5348240  82.7909396
   7.2221344  48.6716088  81.9062960  12.2703528  40.3511952  89.3427741
  11.9386853  41.2207363  89.1188956  11.6749142  40.0348236  90.0221771
   6.0059715  44.0907519  77.0757823   6.1734117  44.9587755  77.4428294
   5.8156884  44.2534801  76.1519112   8.7635048  52.5524498  88.7423653
   8.4635771  53.4549537  88.6339461   8.4186107  52.2856681  89.5944806
   2.2147529  49.0038295  84.7760358   1.2898026  48.8714509  84.9838050
   2.4631942  49.7832514  85.2730300  12.1632192  45.0707038  86.4221091
  11.2549069  45.0022446  86.1279852  12.1119787  45.5478983  87.2502916
   5.9848935  46.5465176  78.0604490   5.8648561  46.9922227  78.8989970
   5.2901524  46.8950494  77.5018028   3.7455828  59.3168818  81.7094621
   3.6679857  60.2676643  81.7883102   3.1417471  58.9714691  82.3669547
   6.2373057  46.4896684  94.3655988   5.4606391  47.0490604  94.3558853
   6.8763620  46.9753467  94.8870858  14.0293838  43.2723476  88.1998965
  13.3868218  43.5656010  87.5538759  13.5248767  43.1576397  89.0052161
  11.6834002  47.0186650  78.8884824  12.5951858  47.2514036  78.7132522
  11.1743649  47.6023694  78.3259903   4.4919430  49.2982137  93.9273955
   5.2334114  49.8367181  93.6508779   3.7856415  49.9248426  94.0845507
   9.9674769  51.4411277  92.5246117  10.3758125  50.9993688  91.7800749
   9.2452031  50.8663905  92.7780309   6.3205839  46.3783884  89.8979674
   7.1667035  46.8023298  90.0414323   6.2604477  45.7217509  90.5918237
  10.2903584  52.0012468  86.2798405   9.6612446  52.1658182  85.5774473
   9.9029246  52.4154078  87.0509369  14.1692816  52.9366906  83.6342769
  13.4843854  53.3165807  83.0839803  14.2536665  53.5462233  84.3674717
   9.4705285  44.0388253  91.5560847   9.2266217  44.7930313  91.0195123
   9.7465215  44.4173600  92.3908094  11.4243747  50.5826865  90.2338113
  11.6360643  51.2258625  89.5572494  11.3773496  49.7489182  89.7660043
   9.0269976  43.1944686  87.1374685   8.1654455  43.4925939  87.4291422
   9.0532411  43.4115084  86.2055718   5.8431546  51.7386876  83.5448491
   6.3069891  52.0174579  82.7553113   5.5788344  50.8370321  83.3621581
   2.7355627  51.2858358  86.4828254   3.3056984  51.7145626  85.8445738
   3.3263739  51.0040942  87.1812439   4.7800432  47.8610029  80.3538056
   5.4824475  48.3131072  80.8211982   4.4481060  47.2193847  80.9817949
   3.2280793  46.4521785  94.7289265   2.5979454  47.1338066  94.9624662
   3.1216881  46.3404867  93.7842403  12.5389575  53.4598820  88.4060470
  13.3607019  53.0579008  88.1243152  12.5351978  53.3567055  89.3576586
   6.3046179  53.0082864  90.5621181   6.3690611  53.4703271  91.3979352
   5.5957103  52.3780229  90.6903490  20.6295568  49.8037569  84.7545442
  19.8759277  49.2344967  84.5989446  20.7643110  49.7700233  85.7016076
   6.0194196  54.6750971  80.4300161   5.8839871  55.5202507  80.8585009
   6.5604009  54.8770249  79.6666095   2.5061536  40.7542551  97.0914516
   2.1128482  40.2008750  97.7662160   3.3227676  41.0653129  97.4821034
   1.2818479  55.3092165  83.0850839   1.4585107  56.2310130  82.8971823
   2.0775312  54.9950585  83.5145219   5.4229497  42.1700430  94.6834773
   6.1639211  42.7707583  94.6039235   5.6547420  41.4278068  94.1252815
   7.6462673  55.2974538  94.5600503   7.2026527  54.5110916  94.2421407
   8.3079886  55.4853688  93.8944394   2.4049794  56.8270339  89.0861182
   2.9557219  56.6987403  88.3138175   1.5661270  57.1265228  88.7356074
   9.7443911  55.5777338  92.5881904   9.7262386  56.3986219  92.0962173
  10.6663831  55.4531413  92.8132045   6.2016965  53.0921467  93.4305413
   6.7345302  52.3309755  93.2004721   5.6731046  52.7995119  94.1729567
   9.3686660  38.1981533  88.9599054   9.0250929  39.0883175  88.8838165
   9.7365623  38.0083191  88.0968639   9.3336943  48.1890144  77.4671489
   8.8183566  48.9594749  77.7059877   9.0614251  47.5155280  78.0904551
   6.9184054  43.0339845  82.5256728   6.0625650  42.6446695  82.3462367
   7.3311006  43.1131806  81.6656513   8.4483200  40.5686188  86.9248288
   7.9447996  40.5316323  86.1116093   8.7413807  41.4778931  86.9844944
   4.6926086  40.6524918  85.9314469   5.5579083  40.4567727  85.5720359
   4.7603595  40.4235270  86.8583826  14.3071217  50.9422499  79.4024663
  13.5300660  50.6033658  78.9579825  14.9862698  50.9475122  78.7279628
   9.1223246  46.0617236  79.2931271   8.8173382  46.3763385  80.1441414
  10.0753688  46.1398656  79.3358604   7.5669678  52.2207460  80.9424225
   7.0391039  51.4860219  80.6297462   7.0657181  52.9982136  80.6964193
  12.5462524  50.4156480  86.0591271  11.8886198  51.1055741  86.1471400
  13.3502923  50.8052912  86.4025257   2.2988405  42.8827126  83.3030836
   2.8732157  42.6602307  82.5704029   2.8859388  42.9515820  84.0559437
  11.3567983  48.7700853  84.1095213  11.8699864  49.4030845  84.6116922
  12.0069207  48.1702048  83.7438573   2.6257993  44.9131587  77.3226721
   1.7895305  45.2506273  77.6435996   2.4862762  44.7780567  76.3853858
   4.6011073  39.7568375  82.0305906   3.9475485  39.4417392  81.4062520
   4.5591547  39.1344115  82.7565729   5.7122278  50.0387670  73.9459198
   4.8049340  49.8076923  74.1450347   6.2093310  49.2425289  74.1333179
   8.6190357  58.7485177  76.8655884   7.9452056  59.0516874  77.4740842
   9.0056179  59.5514257  76.5161341   7.8348813  46.2450308  86.3553553
   6.9171375  46.4665255  86.1975241   8.2508957  46.3196619  85.4965261
   8.6183861  47.6441724  81.4856233   9.3655680  48.1563121  81.1763356
   8.8875451  47.3225777  82.3460627   6.8910511  50.1400265  78.4683188
   5.9821731  49.8559298  78.5655658   6.9205595  50.5599343  77.6086495
  12.1229779  53.7506854  82.2374355  11.6692106  52.9097764  82.2939546
  11.4923746  54.3868253  82.5749135  11.0662698  44.6798840  83.4675023
  10.3285455  44.1676226  83.7985265  11.3189472  44.2399222  82.6558300
  10.5662718  55.5883351  83.1724173  10.8585692  56.1488408  82.4536539
  11.0761339  55.8811912  83.9277333  11.1674326  37.4575092  84.0616792
  11.4733203  36.5972456  83.7742707  11.8926931  38.0492712  83.8615786
   5.4395405  47.7528885  84.5692983   5.4944015  46.8002722  84.4935460
   4.6286607  47.9088324  85.0534282   6.5886599  51.6809008  75.8071266
   6.1506029  50.9644867  75.3476904   7.3297040  51.9085123  75.2456358
   3.3787765  46.3705945  82.3283362   2.5655631  46.6700116  82.7348554
   3.8746760  45.9761634  83.0457844   5.5296343  56.3663702  84.2617627
   5.4872522  56.5924548  83.3326159   6.4459042  56.1327077  84.4103428
   8.9761977  46.8347770  91.1598256   9.3311365  47.0619243  92.0192722
   9.6234108  47.1666146  90.5375511  14.7059714  49.9566205  81.8647585
  14.5677613  50.1467801  80.9368774  14.3495933  50.7185588  82.3215636
   2.8701840  43.9424301  87.9444597   3.5101219  43.8013060  87.2467560
   2.0379371  43.6558814  87.5683199  14.7329094  52.0242732  86.8758856
  15.1665600  51.9318021  87.7241910  15.4460674  52.0000233  86.2378872
   3.6462144  53.2426731  84.0579589   4.4402743  52.7477051  83.8562164
   2.9353836  52.7144594  83.6947295   8.4656989  55.6244827  88.4091957
   8.5194011  56.1935763  89.1769673   7.5971770  55.7946712  88.0445994
   1.3455382  45.3262383  89.8916408   2.0178435  45.1179745  89.2429057
   0.5185168  45.1284469  89.4521641  15.5944643  52.0666433  89.4091742
  15.7880533  52.9712244  89.6551017  15.4945261  51.6073852  90.2430327
   7.2480954  41.9524324  91.9082069   6.6008869  42.6514273  91.8146546
   8.0181969  42.3860468  92.2758317  10.6559752  52.2173176  94.9832622
  10.5045258  51.9883727  94.0662706  10.6464431  53.1743777  94.9963967
   7.4245088  49.7905089  89.9678889   8.3537148  49.9416248  89.7947856
   7.0036118  49.8789109  89.1127535   6.2233420  53.8155753  87.7377426
   6.0844506  53.4474537  88.6103365   5.4348016  54.3303392  87.5661384
   6.8181572  58.9164849  79.0802963   6.9933328  58.4452893  79.8948586
   6.1314360  59.5430616  79.3084224   7.7738635  53.1937356  85.1266264
   7.4388468  53.1538126  86.0223914   7.2742581  52.5282072  84.6536675
   1.7482879  48.6004986  90.6518845   1.6102677  47.8685225  91.2530384
   2.6587803  48.5113886  90.3703033  10.7097827  50.5393390  75.4003324
  10.0926997  49.8140218  75.3036377  10.2414315  51.3002750  75.0570398
   4.3765180  48.3124945  90.1402525   5.0864798  47.6718137  90.0989144
   4.3334488  48.5637840  91.0628706  12.3651959  55.2492298  93.0609104
  12.3064505  54.5651518  92.3939687  12.7671477  55.9911288  92.6089730
   3.0894114  45.2990163  91.9598165   2.5531471  44.8480901  92.6119761
   2.5010822  45.4336072  91.2168629   1.3842657  62.0654212  85.8542823
   1.6239256  62.6972736  86.5321842   0.5411854  61.7142252  86.1408182
   2.4996373  44.7578814  74.5224628   1.6225839  44.6367615  74.1586875
   2.9754126  43.9664893  74.2703517  12.3669366  53.2131882  91.2923084
  11.4796145  52.8757804  91.4149483  12.9367917  52.4814914  91.5291849
   5.8970519  57.8733335  88.2584327   5.8240691  58.6788306  88.7703632
   5.4547912  58.0725300  87.4332349   5.6860299  57.1105105  81.7687149
   4.9027821  57.6526785  81.8625373   6.3853044  57.6279084  82.1681390
   8.9956949  42.9199734  84.4121354   9.4925648  42.1669696  84.0922424
   8.2243930  42.9564051  83.8464563  16.8486706  48.6240100  86.0539646
  16.8376583  49.5064815  85.6833579  15.9804086  48.2711650  85.8594183
   8.3569203  57.7720169  90.4142486   9.0697175  58.4067633  90.3418387
   7.8659231  57.8684035  89.5982488  10.0786730  51.6771421  81.9859778
   9.1443008  51.7972884  81.8164482  10.2563398  50.7743888  81.7219787
   5.5791918  45.0617117  84.1393039   5.2089705  44.5088157  84.8273944
   6.0751010  44.4575251  83.5868039  13.4659281  47.5188741  82.5209812
  13.9319733  48.3516732  82.4470114  13.9166781  47.0533722  83.2255070
   3.4081116  55.5214612  91.2348057   4.1090576  56.1551095  91.3877451
   2.9376231  55.8629344  90.4743696  11.5335512  53.8632562  79.5195964
  11.8095356  53.7489156  80.4289838  10.6640011  53.4650047  79.4808137
  11.4375944  39.8869328  86.5600713  10.5239023  40.1173554  86.7282920
  11.8669045  39.9707772  87.4114745  11.2082402  48.0759220  89.0600607
  10.5553852  48.3235127  88.4053060  11.5862782  47.2623358  88.7263084
   8.1689576  58.1118913  83.1628777   8.3511971  57.2940569  83.6256530
   8.9922562  58.3286605  82.7253667   8.5031742  57.0387098  80.4243826
   9.0319508  56.5279552  79.8113988   8.7659961  56.7229628  81.2889359
   7.2569975  48.8179031  95.5466644   6.5810612  48.7173160  96.2169019
   8.0797609  48.6618244  96.0102641   1.8587490  58.0902215  83.1841602
   1.1897865  58.5748342  82.7005642   1.7200359  58.3371435  84.0984980
   5.9992758  60.1245958  89.7824260   6.5511066  60.2877580  90.5473345
   6.3398952  60.7150396  89.1104285   0.9757251  42.4721108  90.3846145
   1.0398578  43.3335939  89.9723542   0.9124372  41.8595110  89.6518503
  10.8503632  54.9507216  95.6372915  11.3943536  55.5637174  95.1427869
  10.2690477  55.5086794  96.1539928   9.1361145  58.0727934  86.7687942
   9.0112285  57.2717673  86.2598888   9.7940236  58.5674127  86.2801912
  11.1996054  55.8736954  88.3967492  10.2526389  55.7542305  88.3245819
  11.5478827  54.9859452  88.4793754   3.5595627  41.7631093  92.2205734
   4.0830029  42.0093389  92.9832044   3.3407960  42.5951127  91.8008872
   8.2042487  55.6689670  84.5971845   8.0567449  54.7406377  84.7779415
   9.0295981  55.6909761  84.1128920   2.0704731  44.3207737  80.4552337
   2.4100804  44.8493658  79.7330945   2.5176852  44.6588143  81.2310903
  11.8076609  56.4918229  85.6836717  12.7323156  56.2861090  85.5461168
  11.6391912  56.2434630  86.5926059   4.7648172  42.7044788  89.9055405
   4.4244993  41.9052601  90.3076085   4.0587178  43.0046499  89.3332238
   5.4164644  39.7894100  88.3582728   6.2390713  39.3154578  88.2361618
   5.6602708  40.5684584  88.8581414   4.0572878  42.8182359  78.6545629
   4.7781241  43.1963611  78.1509346   3.4338183  43.5371235  78.7580607
   8.2004001  43.5227508  79.5903962   8.4167616  44.4052145  79.2892790
   7.7198069  43.1313721  78.8609604   2.9403223  46.4813221  86.1674706
   2.7947803  46.7953524  87.0598988   2.4628426  47.0998121  85.6145605
   4.7999606  43.4715769  86.2155596   4.7861174  42.5756862  85.8787894
   5.5172034  43.4786433  86.8493882   6.6525736  43.9053109  88.2608723
   6.3943514  44.8270180  88.2593054   6.1210777  43.5083544  88.9509188
  11.5971925  57.0103896  81.0398809  11.7708803  56.4450319  80.2872661
  12.0900816  57.8104791  80.8578299   4.2036502  42.3530149  81.4843166
   4.3252413  41.4246795  81.6834054   3.9138544  42.3668835  80.5721482
   7.0727692  40.0385059  84.6209886   7.0949389  40.1024393  83.6661865
   7.4895751  39.1989568  84.8150392  17.4511316  49.7740319  82.6589109
  17.8942462  49.0247644  82.2608232  16.5737827  49.7650455  82.2762840
  12.5847098  56.3270661  78.1395707  13.2798002  56.9477353  78.3583022
  12.9270248  55.4766012  78.4148085  14.4838521  53.7770366  79.6683038
  15.0089845  54.1157639  78.9432358  14.3960873  52.8417381  79.4846172
   6.1458569  57.6904440  91.7972914   6.4545696  57.4453586  92.6695614
   6.9434051  57.8951078  91.3091785   6.1679181  59.8442349  84.0278291
   5.7284172  59.3518728  84.7211148   6.9187298  59.3015317  83.7870366
   3.6153054  55.3880358  86.1000593   2.9933063  54.7251063  85.8002821
   4.2857921  55.4141490  85.4174240   3.6877581  43.8662146  95.6933099
   3.7365737  44.7424269  95.3110868   4.2300095  43.3239539  95.1204742
  14.1732427  54.4103270  94.9734236  13.3827970  54.3927409  94.4338735
  13.9365781  54.9491563  95.7283272  14.2930302  51.2595736  92.2866964
  14.3428307  51.0945743  93.2282487  14.1844225  50.3922995  91.8964845
   3.1766561  53.9384282  79.5759053   3.3254681  54.6219746  78.9225726
   3.9833004  53.9189372  80.0908509  11.5834064  47.2426664  93.6026271
  12.4843927  47.1033129  93.3110269  11.6582039  47.4081119  94.5424448
   5.9176870  44.6193519  92.4479457   5.0480179  44.9127085  92.1762046
   6.1536350  45.2033964  93.1686721  15.7948499  53.6792678  92.5308986
  15.5033307  54.0422658  93.3672447  15.1820630  52.9659686  92.3522318
  16.9944181  51.2445557  85.0511556  17.8291072  51.6835361  85.2149116
  17.1303310  50.7684211  84.2319802  14.0435687  48.8025292  90.9989044
  14.5189808  48.9952939  90.1907895  13.1201252  48.8584478  90.7532428
   0.9319194  49.9649459  80.5820122   0.6865235  49.0611789  80.7800332
   1.1015108  49.9666610  79.6399600   8.6215903  40.8373136  89.9644878
   9.1397847  41.5734163  89.6391366   8.2671036  41.1437129  90.7991637
   8.8728498  37.2573418  85.4845774   9.1530251  36.5896607  86.1106201
   9.6579104  37.4502514  84.9720438   6.6761966  56.4332412  77.0470801
   6.1035933  57.0522599  76.5941273   7.2494760  56.9831774  77.5810723
  12.7437356  45.6791052  89.2317349  13.6954779  45.7789150  89.2529573
  12.5740806  44.8869321  89.7415434  10.7651735  42.7646635  89.4176750
  10.1701667  43.0451648  88.7223239  10.4801432  43.2540536  90.1893491
   9.8959226  56.7169562  78.1779383  10.8289899  56.6515124  78.3812258
   9.8082439  57.5525829  77.7193916  12.5247243  56.0335433  75.1383330
  12.4460874  55.6995296  76.0319088  13.3456909  56.5257201  75.1374803
  15.2225434  48.8997172  88.3459649  15.1901754  47.9613173  88.5319333
  15.8326057  48.9781209  87.6125474   7.0608765  47.7693225  74.3886853
   8.0067869  47.6399433  74.4575271   6.6823010  47.0307887  74.8656281
  15.3719922  45.6908215  88.3917932  14.8558971  44.9066672  88.2047861
  16.2559871  45.3626932  88.5564452  13.0330649  39.4349231  84.3513745
  12.8355470  39.1264319  85.2357077  13.6430355  40.1610870  84.4811675
  21.0401984  49.9613179  87.4865686  21.7705372  49.6998467  88.0473389
  20.4308929  49.2241901  87.5267754  19.1217281  48.1021041  88.0840137
  18.3950444  47.9677006  87.4756629  18.7064568  48.4097870  88.8896855
   6.9447457  51.8210971  95.8487510   7.8650467  51.9989570  96.0427557
   6.9097040  50.8767016  95.6967209   5.2451682  45.6943201  74.3241738
   4.3383137  45.3976314  74.4004452   5.5227663  45.3973019  73.4576025
   6.8613747  40.2380091  80.4785980   6.0514476  39.8927176  80.8541226
   7.5498164  39.9287635  81.0673591   8.7904296  39.3158138  82.1010276
   9.3435334  39.7353591  82.7600299   9.0274382  38.3893886  82.1433232
   4.8137395  45.3045211  97.8813040   4.7134122  46.2539568  97.8125131
   4.5958937  44.9763450  97.0089110   4.0150466  42.5530137  74.4653718
   4.8769630  42.8785035  74.7249535   4.2000810  41.7661632  73.9526783
  12.1683103  41.4258663  81.6088941  11.5881772  42.0843467  81.2266993
  11.9019035  40.6036008  81.1976358  10.6186669  40.8263721  83.8110261
  11.1186448  40.9380255  83.0024580  11.2622277  40.5224774  84.4511069
   4.6768665  48.7342350  96.6978102   4.1935747  49.5342710  96.9041991
   4.7629604  48.7450295  95.7445546   0.6042002  52.6246885  88.7346536
   1.5585256  52.5930827  88.6676467   0.4054526  52.1637509  89.5496762
   1.1941385  51.1948001  91.3017333   2.0134274  51.6892080  91.3252171
   1.4678192  50.2779969  91.2734901  10.9507981  43.5858753  80.6645289
  10.0633836  43.8708404  80.4465484  11.3661970  43.4252517  79.8172566
  14.3022517  43.6105274  84.3799628  15.0782907  44.1001727  84.6524245
  13.5770651  44.0363329  84.8371498  16.7395076  44.3232894  85.4373569
  17.3339566  44.0828630  84.7266877  16.8121659  43.6040024  86.0647105
  10.0951194  53.3503428  74.7593309  10.7987044  53.5553431  75.3750964
   9.3713843  53.9180190  75.0242392  10.9249005  49.1013289  80.8795579
  10.8684206  49.5581841  80.0403211  11.4777347  48.3403974  80.7018422
  14.7353810  44.8903021  81.7045698  14.4790745  44.4899657  82.5353906
  14.1106679  45.6046815  81.5795838  19.0466148  47.6299094  84.2116990
  18.4865706  47.6992284  84.9848552  18.4409652  47.4540079  83.4916486
   2.1161357  59.0635822  85.9635176   1.9993741  60.0081254  85.8613866
   1.2953803  58.7609383  86.3520975  12.0037892  53.7885957  76.8091769
  12.8383496  53.3567156  76.6269244  11.8422235  53.6167971  77.7368663
  11.6583784  50.2918071  78.1748108  11.6032588  50.1262342  77.2336552
  11.0329839  50.9994103  78.3310298   8.9729691  52.5966982  97.5001671
   9.8420851  52.7707635  97.1388306   8.4936443  53.4161399  97.3777400
   4.9679909  39.7926180  77.7533427   4.9558579  40.7368019  77.9101697
   5.8603331  39.6096325  77.4592888   3.1415871  59.7164083  89.1791105
   4.0443118  59.7487694  89.4957600   2.9153241  58.7864534  89.1937440
   4.8969473  58.4695070  85.8401183   3.9465104  58.4696932  85.7265555
   5.2001959  57.7227805  85.3237218   8.7832029  36.3868956  82.0079363
   8.0164425  35.8327443  82.1536046   9.1942734  36.4590825  82.8693515
  20.6322167  64.3055608  86.9046946  21.2700577  64.1862356  86.2010286
  20.5143010  65.2536452  86.9634898  17.4411873  64.2583036  86.8408470
  17.1030385  64.1424101  85.9529005  18.3101641  63.8574202  86.8209476
  13.2998689  66.1118513  82.8305361  12.7363554  66.0208450  82.0621649
  13.1851084  65.2918417  83.3107854  17.9231656  65.4117888  92.7994676
  17.9120297  65.0170686  91.9275179  18.0852296  64.6783961  93.3928447
  10.8463121  67.6069704  85.6689582  11.6384413  67.2660529  85.2535881
  11.0859771  67.7164680  86.5891735  18.8798247  69.7789481  78.1419826
  18.2286227  70.3643561  77.7553840  19.6742610  70.3095676  78.2014864
  12.8053875  66.8678618  78.5406960  13.5784751  66.3207605  78.4019836
  13.1579274  67.7322867  78.7521422  14.6438917  68.1955000  91.7473860
  14.3528783  69.1000631  91.6320526  15.2795902  68.2371528  92.4617929
  15.5695124  65.5731849  88.3375219  16.1658696  65.3487871  87.6232182
  15.6270096  64.8316594  88.9400667  15.1420152  63.0271284  76.1725410
  15.3945673  62.5052805  75.4108873  14.2044712  62.8637429  76.2752094
  20.1863435  62.0307062  83.9800154  20.9726525  61.6126485  83.6290571
  20.4502140  62.9353154  84.1481802  20.3573513  67.4679913  78.6788810
  19.7219346  67.5414539  79.3909715  20.0270919  68.0573511  78.0007890
  25.5871862  61.9682295  84.8833132  26.3197034  61.3981512  85.1170962
  24.8311218  61.5803896  85.3239638  14.8616441  64.9299390  78.3749785
  14.7452699  64.2544293  79.0430870  14.9718701  64.4431764  77.5581938
  17.2047982  64.3909537  82.0796475  16.8406189  63.8640158  82.7909396
  18.0615098  64.0008006  81.9062960  23.1097283  55.6803870  89.3427741
  22.7780608  56.5499280  89.1188956  22.5142896  55.3640154  90.0221771
  16.8453469  59.4199437  77.0757823  17.0127871  60.2879673  77.4428294
  16.6550638  59.5826718  76.1519112  19.6028802  67.8816416  88.7423653
  19.3029525  68.7841454  88.6339461  19.2579862  67.6148599  89.5944806
  13.0541284  64.3330212  84.7760358  12.1291780  64.2006426  84.9838050
  13.3025697  65.1124432  85.2730300  23.0025946  60.3998956  86.4221091
  22.0942823  60.3314364  86.1279852  22.9513542  60.8770901  87.2502916
  16.8242690  61.8757094  78.0604490  16.7042315  62.3214145  78.8989970
  16.1295278  62.2242412  77.5018028  10.4150095  63.9763486  85.6104147
  10.5442476  64.2297965  86.5243559   9.7347546  64.5691194  85.2908802
  14.5849582  74.6460736  81.7094621  14.5073612  75.5968561  81.7883102
  13.9811226  74.3006608  82.3669547  17.0766812  61.8188601  94.3655988
  16.3000146  62.3782521  94.3558853  17.7157375  62.3045384  94.8870858
  24.8687592  58.6015394  88.1998965  24.2261973  58.8947927  87.5538759
  24.3642521  58.4868314  89.0052161  22.5227756  62.3478567  78.8884824
  23.4345612  62.5805954  78.7132522  22.0137403  62.9315612  78.3259903
  15.3313184  64.6274055  93.9273955  16.0727869  65.1659099  93.6508779
  14.6250170  65.2540343  94.0845507  20.8068524  66.7703195  92.5246117
  21.2151880  66.3285606  91.7800749  20.0845785  66.1955823  92.7780309
  17.1599594  61.7075802  89.8979674  18.0060789  62.1315215  90.0414323
  17.0998232  61.0509426  90.5918237  21.1297338  67.3304386  86.2798405
  20.5006201  67.4950100  85.5774473  20.7423001  67.7445995  87.0509369
  25.0086570  68.2658824  83.6342769  24.3237608  68.6457725  83.0839803
  25.0930420  68.8754150  84.3674717  20.3099039  59.3680170  91.5560847
  20.0659971  60.1222231  91.0195123  20.5858970  59.7465518  92.3908094
  22.2637502  65.9118783  90.2338113  22.4754397  66.5550543  89.5572494
  22.2167250  65.0781099  89.7660043  19.8663731  58.5236603  87.1374685
  19.0048210  58.8217857  87.4291422  19.8926166  58.7407002  86.2055718
  16.6825300  67.0678794  83.5448491  17.1463646  67.3466497  82.7553113
  16.4182098  66.1662238  83.3621581  13.5749381  66.6150275  86.4828254
  14.1450738  67.0437544  85.8445738  14.1657493  66.3332860  87.1812439
  15.6194186  63.1901946  80.3538056  16.3218230  63.6422990  80.8211982
  15.2874815  62.5485765  80.9817949  14.0674548  61.7813703  94.7289265
  13.4373208  62.4629984  94.9624662  13.9610636  61.6696784  93.7842403
   9.3619520  61.4485499  85.6555189   8.5718574  61.7043027  85.1795300
   9.8530768  62.2633837  85.7607230  23.3783330  68.7890738  88.4060470
  24.2000774  68.3870925  88.1243152  23.3745733  68.6858972  89.3576586
  11.3134266  61.8130078  82.6138666  10.5165429  61.9248772  83.1322162
  11.0859858  62.1516730  81.7479556  17.1439933  68.3374781  90.5621181
  17.2084366  68.7995189  91.3979352  16.4350857  67.7072146  90.6903490
   7.6457223  61.7015989  88.0870180   7.8965262  62.5862999  88.3527756
   8.1816772  61.5220591  87.3145272  31.4689323  65.1329487  84.7545442
  30.7153031  64.5636885  84.5989446  31.6036864  65.0992151  85.7016076
  16.8587951  70.0042889  80.4300161  16.7233626  70.8494425  80.8585009
  17.3997763  70.2062166  79.6666095  13.3455291  56.0834469  97.0914516
  12.9522236  55.5300667  97.7662160  14.1621431  56.3945047  97.4821034
  10.3117348  67.5218327  81.0028086  10.8241869  68.3161577  81.1533651
  10.9640061  66.8244617  80.9361687  12.1212233  70.6384083  83.0850839
  12.2978861  71.5602048  82.8971823  12.9169067  70.3242502  83.5145219
  16.2623252  57.4992348  94.6834773  17.0032965  58.0999501  94.6039235
  16.4941174  56.7569986  94.1252815  11.4064590  62.6848715  92.9613002
  11.2918105  61.7833972  93.2620101  10.5509107  62.9312412  92.6097819
  18.4856427  70.6266455  94.5600503  18.0420282  69.8402834  94.2421407
  19.1473641  70.8145606  93.8944394  13.2443549  72.1562257  89.0861182
  13.7950974  72.0279320  88.3138175  12.4055024  72.4557146  88.7356074
  20.5837665  70.9069255  92.5881904  20.5656141  71.7278136  92.0962173
  21.5057585  70.7823330  92.8132045  17.0410720  68.4213385  93.4305413
  17.5739056  67.6601673  93.2004721  16.5124801  68.1287037  94.1729567
  20.2080415  53.5273451  88.9599054  19.8644684  54.4175092  88.8838165
  20.5759377  53.3375108  88.0968639   8.2766265  65.8506981  81.7787657
   9.1141487  66.2603990  81.5621364   8.4544533  64.9106423  81.7487850
  20.1730697  63.5182062  77.4671489  19.6577321  64.2886666  77.7059877
  19.9008006  62.8447198  78.0904551  17.7577808  58.3631763  82.5256728
  16.9019405  57.9738613  82.3462367  18.1704760  58.4423723  81.6656513
  19.2876955  55.8978106  86.9248288  18.7841751  55.8608241  86.1116093
  19.5807562  56.8070849  86.9844944  15.5319841  55.9816836  85.9314469
  16.3972838  55.7859644  85.5720359  15.5997350  55.7527187  86.8583826
  25.1464971  66.2714416  79.4024663  24.3694414  65.9325576  78.9579825
  25.8256452  66.2767040  78.7279628  19.9617000  61.3909154  79.2931271
  19.6567136  61.7055303  80.1441414  20.9147443  61.4690574  79.3358604
  18.4063432  67.5499377  80.9424225  17.8784794  66.8152137  80.6297462
  17.9050935  68.3274054  80.6964193  23.3856278  65.7448398  86.0591271
  22.7279953  66.4347659  86.1471400  24.1896678  66.1344830  86.4025257
  13.1382160  58.2119044  83.3030836  13.7125912  57.9894225  82.5704029
  13.7253142  58.2807738  84.0559437  22.1961737  64.0992770  84.1095213
  22.7093619  64.7322762  84.6116922  22.8462961  63.4993966  83.7438573
  13.4651747  60.2423505  77.3226721  12.6289059  60.5798191  77.6435996
  13.3256517  60.1072484  76.3853858  15.4404828  55.0860292  82.0305906
  14.7869240  54.7709310  81.4062520  15.3985302  54.4636033  82.7565729
  16.5516032  65.3679587  73.9459198  15.6443094  65.1368841  74.1450347
  17.0487064  64.5717207  74.1333179  19.4584111  74.0777095  76.8655884
  18.7845810  74.3808791  77.4740842  19.8449933  74.8806175  76.5161341
  18.6742568  61.5742226  86.3553553  17.7565129  61.7957173  86.1975241
  19.0902712  61.6488536  85.4965261  19.4577616  62.9733642  81.4856233
  20.2049435  63.4855039  81.1763356  19.7269205  62.6517694  82.3460627
  17.7304266  65.4692182  78.4683188  16.8215485  65.1851215  78.5655658
  17.7599350  65.8891261  77.6086495  22.9623533  69.0798772  82.2374355
  22.5085860  68.2389682  82.2939546  22.3317500  69.7160170  82.5749135
  21.9056453  60.0090758  83.4675023  21.1679210  59.4968144  83.7985265
  22.1583226  59.5691139  82.6558300  21.4056473  70.9175269  83.1724173
  21.6979447  71.4780326  82.4536539  21.9155093  71.2103830  83.9277333
  22.0068080  52.7867010  84.0616792  22.3126957  51.9264373  83.7742707
  22.7320685  53.3784630  83.8615786   8.2992436  63.1897696  82.4498390
   8.1016836  62.5967057  81.7249457   7.7439100  62.8849907  83.1674329
  16.2789160  63.0820803  84.5692983  16.3337770  62.1294639  84.4935460
  15.4680362  63.2380242  85.0534282  17.4280354  67.0100926  75.8071266
  16.9899784  66.2936785  75.3476904  18.1690795  67.2377041  75.2456358
  14.2181520  61.6997863  82.3283362  13.4049385  61.9992033  82.7348554
  14.7140514  61.3053551  83.0457844  16.3690098  71.6955620  84.2617627
  16.3266277  71.9216466  83.3326159  17.2852797  71.4618994  84.4103428
  19.8155732  62.1639687  91.1598256  20.1705119  62.3911160  92.0192722
  20.4627863  62.4958064  90.5375511  25.5453469  65.2858123  81.8647585
  25.4071367  65.4759719  80.9368774  25.1889687  66.0477506  82.3215636
  13.7095595  59.2716218  87.9444597  14.3494974  59.1304977  87.2467560
  12.8773125  58.9850732  87.5683199  25.5722848  67.3534650  86.8758856
  26.0059355  67.2609939  87.7241910  26.2854429  67.3292151  86.2378872
  14.4855899  68.5718649  84.0579589  15.2796497  68.0768969  83.8562164
  13.7747591  68.0436512  83.6947295  19.3050743  70.9536744  88.4091957
  19.3587765  71.5227680  89.1769673  18.4365524  71.1238629  88.0445994
  10.7938662  62.7161730  80.1339342   9.8636250  62.6546186  80.3509304
  10.8896134  62.1937683  79.3375983  10.7124211  59.2416543  82.7217584
  10.9731028  60.1561876  82.6126744  11.5341383  58.7740986  82.8714197
  12.1849136  60.6554300  89.8916408  12.8572190  60.4471663  89.2429057
  11.3578923  60.4576386  89.4521641  26.4338398  67.3958351  89.4091742
  26.6274288  68.3004161  89.6551017  26.3339016  66.9365770  90.2430327
  18.0874708  57.2816241  91.9082069  17.4402623  57.9806191  91.8146546
  18.8575724  57.7152385  92.2758317  21.4953506  67.5465093  94.9832622
  21.3439013  67.3175645  94.0662706  21.4858186  68.5035695  94.9963967
  18.2638843  65.1197006  89.9678889  19.1930903  65.2708166  89.7947856
  17.8429873  65.2081027  89.1127535  17.0627175  69.1447671  87.7377426
  16.9238260  68.7766455  88.6103365  16.2741771  69.6595310  87.5661384
  17.6575327  74.2456767  79.0802963  17.8327082  73.7744810  79.8948586
  16.9708115  74.8722533  79.3084224  18.6132390  68.5229273  85.1266264
  18.2782222  68.4830043  86.0223914  18.1136335  67.8573989  84.6536675
  12.5876634  63.9296903  90.6518845  12.4496432  63.1977142  91.2530384
  13.4981557  63.8405803  90.3703033  21.5491581  65.8685308  75.4003324
  20.9320752  65.1432136  75.3036377  21.0808070  66.6294668  75.0570398
  15.2158934  63.6416863  90.1402525  15.9258553  63.0010055  90.0989144
  15.1728242  63.8929758  91.0628706  23.2045713  70.5784216  93.0609104
  23.1458259  69.8943436  92.3939687  23.6065231  71.3203206  92.6089730
  13.9287868  60.6282081  91.9598165  13.3925225  60.1772819  92.6119761
  13.3404577  60.7627989  91.2168629  12.2236412  77.3946130  85.8542823
  12.4633010  78.0264654  86.5321842  11.3805608  77.0434170  86.1408182
  13.3390127  60.0870732  74.5224628  12.4619594  59.9659533  74.1586875
  13.8147880  59.2956810  74.2703517  23.2063120  68.5423800  91.2923084
  22.3189899  68.2049722  91.4149483  23.7761671  67.8106831  91.5291849
   4.8592267  64.8747892  84.6166135   5.5463307  64.5609622  84.0287151
   4.7040396  65.7789256  84.3433387   9.6626990  59.7638088  89.0451159
   9.5785178  59.1563758  88.3101569   8.8409696  60.2547107  89.0460655
  16.7364274  73.2025252  88.2584327  16.6634445  74.0080224  88.7703632
  16.2941667  73.4017218  87.4332349  16.5254053  72.4397022  81.7687149
  15.7421575  72.9818703  81.8625373  17.2246798  72.9571002  82.1681390
  19.8350703  58.2491652  84.4121354  20.3319403  57.4961614  84.0922424
  19.0637685  58.2855968  83.8464563  27.6880461  63.9532017  86.0539646
  27.6770337  64.8356733  85.6833579  26.8197840  63.6003568  85.8594183
  19.1962957  73.1012086  90.4142486  19.9090929  73.7359551  90.3418387
  18.7052986  73.1975952  89.5982488  20.9180484  67.0063339  81.9859778
  19.9836763  67.1264801  81.8164482  21.0957153  66.1035806  81.7219787
  16.4185672  60.3909035  84.1393039  16.0483460  59.8380075  84.8273944
  16.9144765  59.7867168  83.5868039  24.3053035  62.8480658  82.5209812
  24.7713488  63.6808650  82.4470114  24.7560536  62.3825640  83.2255070
  14.2474871  70.8506530  91.2348057  14.9484330  71.4843013  91.3877451
  13.7769986  71.1921261  90.4743696  22.3729267  69.1924480  79.5195964
  22.6489110  69.0781074  80.4289838  21.5033765  68.7941964  79.4808137
  22.2769698  55.2161245  86.5600713  21.3632778  55.4465472  86.7282920
  22.7062800  55.2999689  87.4114745  22.0476157  63.4051137  89.0600607
  21.3947607  63.6527045  88.4053060  22.4256537  62.5915275  88.7263084
  19.0083331  73.4410830  83.1628777  19.1905725  72.6232486  83.6256530
  19.8316317  73.6578523  82.7253667  19.3425496  72.3679016  80.4243826
  19.8713262  71.8571470  79.8113988  19.6053716  72.0521546  81.2889359
  18.0963730  64.1470948  95.5466644  17.4204367  64.0465078  96.2169019
  18.9191364  63.9910162  96.0102641   9.8442589  70.3842885  88.1679159
  10.4296026  69.6386573  88.3007064   9.6467427  70.6946842  89.0515823
  12.6981244  73.4194132  83.1841602  12.0291619  73.9040260  82.7005642
  12.5594114  73.6663353  84.0984980   4.4360244  62.9548485  86.8883602
   4.4744343  62.4212076  87.6820721   3.9300536  62.4283691  86.2694580
  16.8386513  75.4537876  89.7824260  17.3904821  75.6169497  90.5473345
  17.1792706  76.0442314  89.1104285  11.8151006  57.8013026  90.3846145
  11.8792332  58.6627856  89.9723542  11.7518126  57.1887027  89.6518503
  11.2903278  59.8736158  94.0319179  11.9175317  59.4913235  94.6456703
  10.4331197  59.6550360  94.3974872  21.6897387  70.2799133  95.6372915
  22.2337291  70.8929092  95.1427869  21.1084232  70.8378712  96.1539928
   8.0668821  61.6812587  79.9637534   8.3622262  60.7723266  79.9104588
   7.1656857  61.6600327  79.6418536  19.9754900  73.4019851  86.7687942
  19.8506039  72.6009591  86.2598888  20.6333991  73.8966045  86.2801912
  11.5963068  59.7568584  85.9465082  10.8749654  60.3704552  85.8072556
  12.3856324  60.2926349  85.8681728  22.0389808  71.2028871  88.3967492
  21.0920144  71.0834223  88.3245819  22.3872581  70.3151369  88.4793754
  14.3989382  57.0923010  92.2205734  14.9223783  57.3385307  92.9832044
  14.1801715  57.9243045  91.8008872   9.7956663  59.3626685  80.0876859
   9.4669369  58.4824064  79.9051965  10.1496033  59.3074354  80.9753248
  19.0436242  70.9981588  84.5971845  18.8961204  70.0698295  84.7779415
  19.8689735  71.0201678  84.1128920  12.9098486  59.6499655  80.4552337
  13.2494558  60.1785576  79.7330945  13.3570606  59.9880061  81.2310903
  22.6470363  71.8210146  85.6836717  23.5716911  71.6153008  85.5461168
  22.4785667  71.5726547  86.5926059  15.6041927  58.0336705  89.9055405
  15.2638747  57.2344518  90.3076085  14.8980933  58.3338416  89.3332238
  16.2558398  55.1186018  88.3582728  17.0784468  54.6446496  88.2361618
  16.4996462  55.8976502  88.8581414  14.8966633  58.1474276  78.6545629
  15.6174995  58.5255529  78.1509346  14.2731937  58.8663153  78.7580607
  19.0397756  58.8519425  79.5903962  19.2561370  59.7344063  79.2892790
  18.5591823  58.4605639  78.8609604  13.7796977  61.8105138  86.1674706
  13.6341558  62.1245442  87.0598988  13.3022181  62.4290039  85.6145605
  15.6393360  58.8007686  86.2155596  15.6254929  57.9048780  85.8787894
  16.3565788  58.8078350  86.8493882  17.4919491  59.2345027  88.2608723
  17.2337269  60.1562097  88.2593054  16.9604531  58.8375461  88.9509188
  22.4365680  72.3395814  81.0398809  22.6102557  71.7742236  80.2872661
  22.9294571  73.1396709  80.8578299   8.2542639  64.3510483  89.1062368
   7.7096107  65.1270291  89.2382642   9.1321989  64.6981287  88.9481489
  15.0430256  57.6822067  81.4843166  15.1646167  56.7538713  81.6834054
  14.7532298  57.6960753  80.5721482  17.9121446  55.3676977  84.6209886
  17.9343143  55.4316310  83.6661865  18.3289505  54.5281486  84.8150392
  28.2905071  65.1032237  82.6589109  28.7336217  64.3539562  82.2608232
  27.4131581  65.0942373  82.2762840  23.4240852  71.6562578  78.1395707
  24.1191757  72.2769271  78.3583022  23.7664002  70.8057929  78.4148085
   9.0408661  63.4780379  91.9992524   8.2990397  63.6263014  92.5857155
   8.7201406  63.7388645  91.1359274  25.3232275  69.1062284  79.6683038
  25.8483599  69.4449556  78.9432358  25.2354628  68.1709299  79.4846172
  16.9852324  73.0196357  91.7972914  17.2939450  72.7745504  92.6695614
  17.7827806  73.2242996  91.3091785  17.0072936  75.1734267  84.0278291
  16.5677926  74.6810646  84.7211148  17.7581053  74.6307235  83.7870366
   9.4865275  71.3645808  84.0302919  10.3123295  71.0649580  83.6501563
   9.1359327  70.5953430  84.4792708  14.4546808  70.7172276  86.1000593
  13.8326817  70.0542981  85.8002821  15.1251675  70.7433408  85.4174240
   7.6873880  69.2832134  84.9891853   6.8505788  68.8554309  84.8075854
   7.6597525  69.4764578  85.9262644  14.5271336  59.1954064  95.6933099
  14.5759491  60.0716187  95.3110868  15.0693850  58.6531457  95.1204742
  25.0126181  69.7395187  94.9734236  24.2221725  69.7219326  94.4338735
  24.7759536  70.2783481  95.7283272  25.1324056  66.5887654  92.2866964
  25.1822061  66.4237661  93.2282487  25.0237980  65.7214913  91.8964845
  14.0160315  69.2676199  79.5759053  14.1648435  69.9511664  78.9225726
  14.8226758  69.2481289  80.0908509  22.4227819  62.5718582  93.6026271
  23.3237681  62.4325047  93.3110269  22.4975793  62.7373037  94.5424448
  16.7570624  59.9485437  92.4479457  15.8873933  60.2419003  92.1762046
  16.9930104  60.5325882  93.1686721  26.6342253  69.0084595  92.5308986
  26.3427061  69.3714576  93.3672447  26.0214384  68.2951604  92.3522318
  27.8337935  66.5737475  85.0511556  28.6684827  67.0127279  85.2149116
  27.9697064  66.0976128  84.2319802  24.8829441  64.1317210  90.9989044
  25.3583563  64.3244856  90.1907895  23.9595007  64.1876396  90.7532428
  11.7712948  65.2941377  80.5820122  11.5258990  64.3903707  80.7800332
  11.9408863  65.2958527  79.6399600  19.4609658  56.1665053  89.9644878
  19.9791602  56.9026080  89.6391366  19.1064791  56.4729047  90.7991637
  11.0408596  61.0269735  78.0806284  10.3477840  61.1014090  77.4246320
  10.7960347  60.2630078  78.6027801  19.7122252  52.5865336  85.4845774
  19.9924006  51.9188525  86.1106201  20.4972859  52.7794432  84.9720438
  17.5155721  71.7624330  77.0470801  16.9429688  72.3814517  76.5941273
  18.0888514  72.3123692  77.5810723  23.5831110  61.0082970  89.2317349
  24.5348533  61.1081068  89.2529573  23.4134561  60.2161239  89.7415434
  21.6045490  58.0938553  89.4176750  21.0095422  58.3743566  88.7223239
  21.3195187  58.5832454  90.1893491  20.7352980  72.0461480  78.1779383
  21.6683653  71.9807042  78.3812258  20.6476193  72.8817747  77.7193916
  23.3640997  71.3627350  75.1383330  23.2854629  71.0287214  76.0319088
  24.1850664  71.8549118  75.1374803  26.0619188  64.2289090  88.3459649
  26.0295508  63.2905090  88.5319333  26.6719812  64.3073126  87.6125474
  17.9002519  63.0985143  74.3886853  18.8461624  62.9691351  74.4575271
  17.5216764  62.3599805  74.8656281  26.2113677  61.0200133  88.3917932
  25.6952725  60.2358590  88.2047861  27.0953625  60.6918850  88.5564452
  23.8724404  54.7641149  84.3513745  23.6749225  54.4556237  85.2357077
  24.4824109  55.4902788  84.4811675  31.8795738  65.2905096  87.4865686
  32.6099127  65.0290385  88.0473389  31.2702684  64.5533818  87.5267754
  29.9611035  63.4312959  88.0840137  29.2344199  63.2968924  87.4756629
  29.5458322  63.7389788  88.8896855  17.7841212  67.1502889  95.8487510
  18.7044221  67.3281488  96.0427557  17.7490795  66.2058934  95.6967209
  16.0845436  61.0235119  74.3241738  15.1776892  60.7268232  74.4004452
  16.3621417  60.7264937  73.4576025   7.0023377  62.3441482  84.7740785
   6.6826161  61.4906791  84.4815159   6.4556805  62.5590061  85.5298752
  10.7803284  65.0603923  88.4910291  10.9989294  65.9921031  88.5098325
  11.1929058  64.7011898  89.2765095  17.7007502  55.5672009  80.4785980
  16.8908230  55.2219094  80.8541226  18.3891919  55.2579552  81.0673591
  19.6298050  54.6450056  82.1010276  20.1829089  55.0645509  82.7600299
  19.8668137  53.7185804  82.1433232  15.6531149  60.6337129  97.8813040
  15.5527876  61.5831486  97.8125131  15.4352691  60.3055368  97.0089110
  14.8544221  57.8822054  74.4653718  15.7163385  58.2076953  74.7249535
  15.0394565  57.0953550  73.9526783   6.8711637  65.9644394  86.7433906
   6.1775108  65.5498347  86.2303861   7.6184628  66.0064930  86.1467325
  23.0076857  56.7550581  81.6088941  22.4275526  57.4135385  81.2266993
  22.7412790  55.9327925  81.1976358  21.4580424  56.1555638  83.8110261
  21.9580202  56.2672173  83.0024580  22.1016032  55.8516691  84.4511069
  15.5162419  64.0634268  96.6978102  15.0329501  64.8634628  96.9041991
  15.6023359  64.0742213  95.7445546   8.7848379  65.8962648  84.6199921
   8.7619067  65.9950335  83.6681804   9.0949016  66.7427798  84.9417087
  11.4435757  67.9538803  88.7346536  12.3979011  67.9222745  88.6676467
  11.2448281  67.4929426  89.5496762  12.0335139  66.5239919  91.3017333
  12.8528028  67.0183997  91.3252171  12.3071947  65.6071887  91.2734901
  21.7901735  58.9150671  80.6645289  20.9027590  59.2000322  80.4465484
  22.2055724  58.7544434  79.8172566  25.1416271  58.9397192  84.3799628
  25.9176662  59.4293644  84.6524245  24.4164406  59.3655246  84.8371498
  27.5788830  59.6524811  85.4373569  28.1733321  59.4120547  84.7266877
  27.6515414  58.9331942  86.0647105   9.7985986  73.4958422  85.7516734
   9.6640454  72.7358823  85.1854732   9.3818048  74.2199322  85.2845522
  20.9344949  68.6795346  74.7593309  21.6380799  68.8845348  75.3750964
  20.2107598  69.2472108  75.0242392  21.7642759  64.4305207  80.8795579
  21.7077960  64.8873758  80.0403211  22.3171102  63.6695892  80.7018422
  25.5747565  60.2194939  81.7045698  25.3184499  59.8191575  82.5353906
  24.9500433  60.9338733  81.5795838  29.8859903  62.9591012  84.2116990
  29.3259461  63.0284201  84.9848552  29.2803406  62.7831997  83.4916486
  12.9555112  74.3927739  85.9635176  12.8387496  75.3373172  85.8613866
  12.1347558  74.0901301  86.3520975  22.8431646  69.1177875  76.8091769
  23.6777250  68.6859073  76.6269244  22.6815989  68.9459889  77.7368663
  22.4977538  65.6209988  78.1748108  22.4426342  65.4554260  77.2336552
  21.8723594  66.3286021  78.3310298   7.2870053  60.8578053  92.0009530
   7.9328917  60.3477007  92.4896756   7.0787204  61.5946734  92.5752956
  19.8123446  67.9258900  97.5001671  20.6814605  68.0999552  97.1388306
  19.3330197  68.7453317  97.3777400  15.8073664  55.1218097  77.7533427
  15.7952334  56.0659937  77.9101697  16.6997086  54.9388243  77.4592888
  13.9809626  75.0456001  89.1791105  14.8836872  75.0779611  89.4957600
  13.7546996  74.1156452  89.1937440  15.7363228  73.7986988  85.8401183
  14.7858859  73.7988849  85.7265555  16.0395714  73.0519722  85.3237218
  19.6225783  51.7160874  82.0079363  18.8558179  51.1619361  82.1536046
  20.0336488  51.7882743  82.8693515  11.6267544  58.0045670  96.0984545
  12.4899006  57.6482475  96.3087869  11.0532955  57.6659565  96.7859949
  31.4715921  79.6347526  86.9046946  32.1094331  79.5154273  86.2010286
  31.3536764  80.5828370  86.9634898  28.2805628  79.5874954  86.8408470
  27.9424139  79.4716019  85.9529005  29.1495396  79.1866119  86.8209476
  24.1392443  81.4410431  82.8305361  23.5757308  81.3500368  82.0621649
  24.0244838  80.6210335  83.3107854  28.7625411  80.7409806  92.7994676
  28.7514051  80.3462604  91.9275179  28.9246050  80.0075878  93.3928447
  21.6856875  82.9361622  85.6689582  22.4778167  82.5952447  85.2535881
  21.9253525  83.0456597  86.5891735  29.7192002  85.1081398  78.1419826
  29.0679982  85.6935479  77.7553840  30.5136365  85.6387593  78.2014864
  23.6447629  82.1970535  78.5406960  24.4178505  81.6499523  78.4019836
  23.9973028  83.0614785  78.7521422  25.4832672  83.5246918  91.7473860
  25.1922538  84.4292549  91.6320526  26.1189656  83.5663445  92.4617929
  26.4088879  80.9023766  88.3375219  27.0052451  80.6779789  87.6232182
  26.4663850  80.1608512  88.9400667  25.9813907  78.3563202  76.1725410
  26.2339428  77.8344723  75.4108873  25.0438466  78.1929347  76.2752094
  31.0257190  77.3598980  83.9800154  31.8120279  76.9418403  83.6290571
  31.2895894  78.2645072  84.1481802  31.1967267  82.7971830  78.6788810
  30.5613100  82.8706457  79.3909715  30.8664674  83.3865429  78.0007890
  36.4265617  77.2974213  84.8833132  37.1590789  76.7273430  85.1170962
  35.6704973  76.9095814  85.3239638  25.7010196  80.2591307  78.3749785
  25.5846454  79.5836211  79.0430870  25.8112456  79.7723681  77.5581938
  28.0441737  79.7201455  82.0796475  27.6799944  79.1932076  82.7909396
  28.9008853  79.3299924  81.9062960  33.9491037  71.0095787  89.3427741
  33.6174362  71.8791198  89.1188956  33.3536651  70.6932071  90.0221771
  27.6847224  74.7491354  77.0757823  27.8521626  75.6171591  77.4428294
  27.4944393  74.9118636  76.1519112  30.4422557  83.2108333  88.7423653
  30.1423280  84.1133372  88.6339461  30.0973616  82.9440516  89.5944806
  23.8935038  79.6622130  84.7760358  22.9685535  79.5298344  84.9838050
  24.1419451  80.4416349  85.2730300  33.8419701  75.7290873  86.4221091
  32.9336578  75.6606282  86.1279852  33.7907296  76.2062818  87.2502916
  27.6636444  77.2049012  78.0604490  27.5436070  77.6506063  78.8989970
  26.9689033  77.5534329  77.5018028  21.2543849  79.3055404  85.6104147
  21.3836230  79.5589883  86.5243559  20.5741301  79.8983112  85.2908802
  25.4243337  89.9752654  81.7094621  25.3467366  90.9260479  81.7883102
  24.8204980  89.6298526  82.3669547  27.9160566  77.1480519  94.3655988
  27.1393900  77.7074439  94.3558853  28.5551129  77.6337302  94.8870858
  35.7081347  73.9307312  88.1998965  35.0655727  74.2239845  87.5538759
  35.2036275  73.8160232  89.0052161  33.3621511  77.6770485  78.8884824
  34.2739367  77.9097872  78.7132522  32.8531158  78.2607529  78.3259903
  26.1706939  79.9565972  93.9273955  26.9121623  80.4951016  93.6508779
  25.4643924  80.5832261  94.0845507  31.6462278  82.0995113  92.5246117
  32.0545634  81.6577523  91.7800749  30.9239540  81.5247740  92.7780309
  27.9993348  77.0367720  89.8979674  28.8454544  77.4607133  90.0414323
  27.9391986  76.3801344  90.5918237  31.9691093  82.6596303  86.2798405
  31.3399955  82.8242018  85.5774473  31.5816755  83.0737913  87.0509369
  35.8480325  83.5950741  83.6342769  35.1631363  83.9749643  83.0839803
  35.9324174  84.2046068  84.3674717  31.1492794  74.6972088  91.5560847
  30.9053726  75.4514148  91.0195123  31.4252724  75.0757436  92.3908094
  33.1031256  81.2410700  90.2338113  33.3148152  81.8842460  89.5572494
  33.0561005  80.4073017  89.7660043  30.7057485  73.8528521  87.1374685
  29.8441964  74.1509775  87.4291422  30.7319920  74.0698920  86.2055718
  27.5219055  82.3970712  83.5448491  27.9857400  82.6758415  82.7553113
  27.2575853  81.4954156  83.3621581  24.4143136  81.9442193  86.4828254
  24.9844493  82.3729461  85.8445738  25.0051248  81.6624778  87.1812439
  26.4587941  78.5193864  80.3538056  27.1611984  78.9714908  80.8211982
  26.1268569  77.8777683  80.9817949  24.9068302  77.1105621  94.7289265
  24.2766963  77.7921901  94.9624662  24.8004390  76.9988702  93.7842403
  20.2013275  76.7777417  85.6555189  19.4112329  77.0334945  85.1795300
  20.6924522  77.5925754  85.7607230  34.2177084  84.1182656  88.4060470
  35.0394528  83.7162843  88.1243152  34.2139487  84.0150890  89.3576586
  22.1528020  77.1421996  82.6138666  21.3559183  77.2540690  83.1322162
  21.9253612  77.4808648  81.7479556  27.9833688  83.6666699  90.5621181
  28.0478120  84.1287106  91.3979352  27.2744612  83.0364064  90.6903490
  18.4850978  77.0307907  88.0870180  18.7359016  77.9154917  88.3527756
  19.0210526  76.8512509  87.3145272  42.3083077  80.4621404  84.7545442
  41.5546786  79.8928802  84.5989446  42.4430619  80.4284069  85.7016076
  27.6981705  85.3334807  80.4300161  27.5627380  86.1786342  80.8585009
  28.2391518  85.5354084  79.6666095  24.1849045  71.4126386  97.0914516
  23.7915991  70.8592585  97.7662160  25.0015185  71.7236965  97.4821034
  21.1511103  82.8510245  81.0028086  21.6635623  83.6453495  81.1533651
  21.8033816  82.1536535  80.9361687  22.9605988  85.9676001  83.0850839
  23.1372616  86.8893966  82.8971823  23.7562821  85.6534420  83.5145219
  27.1017006  72.8284265  94.6834773  27.8426719  73.4291419  94.6039235
  27.3334929  72.0861903  94.1252815  22.2458344  78.0140633  92.9613002
  22.1311859  77.1125890  93.2620101  21.3902862  78.2604329  92.6097819
  29.3250182  85.9558373  94.5600503  28.8814036  85.1694752  94.2421407
  29.9867395  86.1437524  93.8944394  24.0837303  87.4854175  89.0861182
  24.6344728  87.3571238  88.3138175  23.2448779  87.7849064  88.7356074
  31.4231420  86.2361173  92.5881904  31.4049895  87.0570054  92.0962173
  32.3451340  86.1115248  92.8132045  27.8804474  83.7505302  93.4305413
  28.4132811  82.9893591  93.2004721  27.3518555  83.4578954  94.1729567
  31.0474169  68.8565368  88.9599054  30.7038438  69.7467010  88.8838165
  31.4153132  68.6667026  88.0968639  19.1160020  81.1798899  81.7787657
  19.9535242  81.5895907  81.5621364  19.2938287  80.2398341  81.7487850
  31.0124452  78.8473979  77.4671489  30.4971075  79.6178584  77.7059877
  30.7401760  78.1739116  78.0904551  28.5971563  73.6923680  82.5256728
  27.7413159  73.3030531  82.3462367  29.0098515  73.7715641  81.6656513
  30.1270709  71.2270024  86.9248288  29.6235505  71.1900159  86.1116093
  30.4201316  72.1362766  86.9844944  26.3713595  71.3108753  85.9314469
  27.2366592  71.1151562  85.5720359  26.4391104  71.0819105  86.8583826
  35.9858726  81.6006334  79.4024663  35.2088169  81.2617494  78.9579825
  36.6650207  81.6058957  78.7279628  30.8010755  76.7201072  79.2931271
  30.4960891  77.0347221  80.1441414  31.7541197  76.7982491  79.3358604
  29.2457187  82.8791295  80.9424225  28.7178548  82.1444054  80.6297462
  28.7444690  83.6565971  80.6964193  34.2250033  81.0740315  86.0591271
  33.5673707  81.7639577  86.1471400  35.0290432  81.4636747  86.4025257
  23.9775914  73.5410961  83.3030836  24.5519666  73.3186143  82.5704029
  24.5646897  73.6099656  84.0559437  33.0355492  79.4284688  84.1095213
  33.5487373  80.0614680  84.6116922  33.6856715  78.8285884  83.7438573
  24.3045502  75.5715422  77.3226721  23.4682814  75.9090109  77.6435996
  24.1650271  75.4364402  76.3853858  26.2798582  70.4152210  82.0305906
  25.6262994  70.1001227  81.4062520  26.2379056  69.7927951  82.7565729
  27.3909787  80.6971505  73.9459198  26.4836849  80.4660759  74.1450347
  27.8880819  79.9009124  74.1333179  30.2977866  89.4069012  76.8655884
  29.6239565  89.7100709  77.4740842  30.6843688  90.2098093  76.5161341
  29.5136322  76.9034144  86.3553553  28.5958884  77.1249091  86.1975241
  29.9296466  76.9780454  85.4965261  30.2971370  78.3025559  81.4856233
  31.0443189  78.8146957  81.1763356  30.5662960  77.9809612  82.3460627
  28.5698020  80.7984100  78.4683188  27.6609240  80.5143133  78.5655658
  28.5993104  81.2183179  77.6086495  33.8017288  84.4090690  82.2374355
  33.3479615  83.5681599  82.2939546  33.1711255  85.0452088  82.5749135
  32.7450207  75.3382676  83.4675023  32.0072964  74.8260062  83.7985265
  32.9976981  74.8983057  82.6558300  32.2450227  86.2467186  83.1724173
  32.5373201  86.8072243  82.4536539  32.7548848  86.5395747  83.9277333
  32.8461835  68.1158928  84.0616792  33.1520712  67.2556291  83.7742707
  33.5714440  68.7076548  83.8615786  19.1386191  78.5189614  82.4498390
  18.9410591  77.9258975  81.7249457  18.5832855  78.2141824  83.1674329
  27.1182914  78.4112721  84.5692983  27.1731524  77.4586557  84.4935460
  26.3074116  78.5672160  85.0534282  28.2674108  82.3392844  75.8071266
  27.8293538  81.6228703  75.3476904  29.0084549  82.5668959  75.2456358
  25.0575274  77.0289780  82.3283362  24.2443140  77.3283951  82.7348554
  25.5534269  76.6345469  83.0457844  27.2083852  87.0247537  84.2617627
  27.1660031  87.2508384  83.3326159  28.1246551  86.7910912  84.4103428
  30.6549486  77.4931605  91.1598256  31.0098874  77.7203078  92.0192722
  31.3021617  77.8249982  90.5375511  36.3847223  80.6150041  81.8647585
  36.2465122  80.8051637  80.9368774  36.0283442  81.3769424  82.3215636
  24.5489349  74.6008136  87.9444597  25.1888728  74.4596895  87.2467560
  23.7166880  74.3142649  87.5683199  36.4116603  82.6826568  86.8758856
  36.8453109  82.5901857  87.7241910  37.1248183  82.6584068  86.2378872
  25.3249653  83.9010566  84.0579589  26.1190252  83.4060886  83.8562164
  24.6141345  83.3728429  83.6947295  30.1444498  86.2828662  88.4091957
  30.1981520  86.8519598  89.1769673  29.2759279  86.4530547  88.0445994
  21.6332417  78.0453648  80.1339342  20.7030005  77.9838104  80.3509304
  21.7289888  77.5229601  79.3375983  21.5517966  74.5708461  82.7217584
  21.8124783  75.4853794  82.6126744  22.3735138  74.1032903  82.8714197
  23.0242891  75.9846218  89.8916408  23.6965944  75.7763580  89.2429057
  22.1972677  75.7868304  89.4521641  37.2732152  82.7250268  89.4091742
  37.4668042  83.6296079  89.6551017  37.1732770  82.2657687  90.2430327
  28.9268463  72.6108159  91.9082069  28.2796378  73.3098109  91.8146546
  29.6969478  73.0444303  92.2758317  32.3347261  82.8757011  94.9832622
  32.1832767  82.6467563  94.0662706  32.3251940  83.8327613  94.9963967
  29.1032597  80.4488924  89.9678889  30.0324657  80.6000084  89.7947856
  28.6823627  80.5372945  89.1127535  27.9020929  84.4739588  87.7377426
  27.7632015  84.1058373  88.6103365  27.1135525  84.9887228  87.5661384
  28.4969081  89.5748685  79.0802963  28.6720837  89.1036728  79.8948586
  27.8101869  90.2014451  79.3084224  29.4526144  83.8521191  85.1266264
  29.1175977  83.8121961  86.0223914  28.9530090  83.1865907  84.6536675
  23.4270388  79.2588821  90.6518845  23.2890186  78.5269060  91.2530384
  24.3375312  79.1697721  90.3703033  32.3885336  81.1977225  75.4003324
  31.7714506  80.4724054  75.3036377  31.9201824  81.9586586  75.0570398
  26.0552689  78.9708780  90.1402525  26.7652307  78.3301973  90.0989144
  26.0121997  79.2221675  91.0628706  34.0439467  85.9076134  93.0609104
  33.9852014  85.2235354  92.3939687  34.4458986  86.6495124  92.6089730
  24.7681623  75.9573998  91.9598165  24.2318980  75.5064737  92.6119761
  24.1798331  76.0919907  91.2168629  23.0630166  92.7238048  85.8542823
  23.3026765  93.3556572  86.5321842  22.2199363  92.3726088  86.1408182
  24.1783882  75.4162650  74.5224628  23.3013348  75.2951450  74.1586875
  24.6541635  74.6248728  74.2703517  34.0456875  83.8715718  91.2923084
  33.1583654  83.5341639  91.4149483  34.6155426  83.1398749  91.5291849
  15.6986022  80.2039809  84.6166135  16.3857062  79.8901539  84.0287151
  15.5434151  81.1081174  84.3433387  20.5020744  75.0930006  89.0451159
  20.4178933  74.4855676  88.3101569  19.6803450  75.5839024  89.0460655
  27.5758028  88.5317170  88.2584327  27.5028200  89.3372141  88.7703632
  27.1335421  88.7309136  87.4332349  27.3647808  87.7688940  81.7687149
  26.5815330  88.3110620  81.8625373  28.0640553  88.2862920  82.1681390
  30.6744458  73.5783569  84.4121354  31.1713157  72.8253532  84.0922424
  29.9031439  73.6147886  83.8464563  38.5274215  79.2823935  86.0539646
  38.5164092  80.1648650  85.6833579  37.6591595  78.9295486  85.8594183
  30.0356712  88.4304004  90.4142486  30.7484684  89.0651469  90.3418387
  29.5446740  88.5267870  89.5982488  31.7574239  82.3355257  81.9859778
  30.8230517  82.4556719  81.8164482  31.9350907  81.4327723  81.7219787
  27.2579427  75.7200952  84.1393039  26.8877214  75.1671993  84.8273944
  27.7538519  75.1159086  83.5868039  35.1446790  78.1772576  82.5209812
  35.6107242  79.0100568  82.4470114  35.5954290  77.7117558  83.2255070
  25.0868625  86.1798447  91.2348057  25.7878085  86.8134930  91.3877451
  24.6163740  86.5213179  90.4743696  33.2123021  84.5216397  79.5195964
  33.4882865  84.4072992  80.4289838  32.3427520  84.1233882  79.4808137
  33.1163453  70.5453163  86.5600713  32.2026532  70.7757390  86.7282920
  33.5456554  70.6291607  87.4114745  32.8869911  78.7343055  89.0600607
  32.2341361  78.9818962  88.4053060  33.2650291  77.9207193  88.7263084
  29.8477085  88.7702748  83.1628777  30.0299480  87.9524404  83.6256530
  30.6710071  88.9870440  82.7253667  30.1819251  87.6970933  80.4243826
  30.7107017  87.1863388  79.8113988  30.4447470  87.3813463  81.2889359
  28.9357484  79.4762866  95.5466644  28.2598121  79.3756995  96.2169019
  29.7585118  79.3202080  96.0102641  20.6836343  85.7134803  88.1679159
  21.2689780  84.9678490  88.3007064  20.4861182  86.0238759  89.0515823
  23.5374998  88.7486050  83.1841602  22.8685374  89.2332178  82.7005642
  23.3987868  88.9955270  84.0984980  15.2753998  78.2840403  86.8883602
  15.3138098  77.7503993  87.6820721  14.7694291  77.7575608  86.2694580
  27.6780267  90.7829793  89.7824260  28.2298575  90.9461415  90.5473345
  28.0186461  91.3734231  89.1104285  22.6544760  73.1304943  90.3846145
  22.7186087  73.9919774  89.9723542  22.5911881  72.5178945  89.6518503
  22.1297033  75.2028076  94.0319179  22.7569072  74.8205153  94.6456703
  21.2724952  74.9842278  94.3974872  32.5291141  85.6091051  95.6372915
  33.0731045  86.2221009  95.1427869  31.9477986  86.1670629  96.1539928
  18.9062576  77.0104505  79.9637534  19.2016017  76.1015183  79.9104588
  18.0050611  76.9892244  79.6418536  30.8148654  88.7311769  86.7687942
  30.6899794  87.9301509  86.2598888  31.4727745  89.2257962  86.2801912
  22.4356823  75.0860501  85.9465082  21.7143408  75.6996469  85.8072556
  23.2250078  75.6218266  85.8681728  32.8783563  86.5320789  88.3967492
  31.9313898  86.4126140  88.3245819  33.2266336  85.6443287  88.4793754
  25.2383136  72.4214928  92.2205734  25.7617538  72.6677225  92.9832044
  25.0195469  73.2534963  91.8008872  20.6350417  74.6918603  80.0876859
  20.3063123  73.8115981  79.9051965  20.9889788  74.6366271  80.9753248
  29.8829996  86.3273505  84.5971845  29.7354958  85.3990213  84.7779415
  30.7083490  86.3493596  84.1128920  23.7492240  74.9791572  80.4552337
  24.0888313  75.5077494  79.7330945  24.1964361  75.3171978  81.2310903
  33.4864118  87.1502064  85.6836717  34.4110665  86.9444925  85.5461168
  33.3179421  86.9018465  86.5926059  26.4435681  73.3628623  89.9055405
  26.1032502  72.5636436  90.3076085  25.7374687  73.6630334  89.3332238
  27.0952153  70.4477935  88.3582728  27.9178222  69.9738414  88.2361618
  27.3390217  71.2268419  88.8581414  25.7360387  73.4766194  78.6545629
  26.4568750  73.8547447  78.1509346  25.1125692  74.1955071  78.7580607
  29.8791510  74.1811343  79.5903962  30.0955125  75.0635981  79.2892790
  29.3985577  73.7897556  78.8609604  24.6190732  77.1397056  86.1674706
  24.4735312  77.4537359  87.0598988  24.1415935  77.7581956  85.6145605
  26.4787115  74.1299604  86.2155596  26.4648683  73.2340697  85.8787894
  27.1959543  74.1370268  86.8493882  28.3313245  74.5636944  88.2608723
  28.0731023  75.4854015  88.2593054  27.7998286  74.1667379  88.9509188
  33.2759434  87.6687731  81.0398809  33.4496312  87.1034154  80.2872661
  33.7688325  88.4688626  80.8578299  19.0936394  79.6802401  89.1062368
  18.5489862  80.4562208  89.2382642  19.9715744  80.0273205  88.9481489
  25.8824011  73.0113984  81.4843166  26.0039922  72.0830631  81.6834054
  25.5926053  73.0252670  80.5721482  28.7515201  70.6968895  84.6209886
  28.7736898  70.7608228  83.6661865  29.1683260  69.8573403  84.8150392
  39.1298825  80.4324154  82.6589109  39.5729971  79.6831480  82.2608232
  38.2525336  80.4234291  82.2762840  34.2634607  86.9854496  78.1395707
  34.9585511  87.6061189  78.3583022  34.6057757  86.1349847  78.4148085
  19.8802416  78.8072297  91.9992524  19.1384152  78.9554932  92.5857155
  19.5595160  79.0680562  91.1359274  36.1626030  84.4354201  79.6683038
  36.6877354  84.7741474  78.9432358  36.0748382  83.5001217  79.4846172
  27.8246078  88.3488275  91.7972914  28.1333205  88.1037422  92.6695614
  28.6221560  88.5534913  91.3091785  27.8466690  90.5026185  84.0278291
  27.4071681  90.0102563  84.7211148  28.5974807  89.9599152  83.7870366
  20.3259029  86.6937726  84.0302919  21.1517049  86.3941497  83.6501563
  19.9753081  85.9245348  84.4792708  25.2940563  86.0464194  86.1000593
  24.6720572  85.3834899  85.8002821  25.9645429  86.0725326  85.4174240
  18.5267634  84.6124052  84.9891853  17.6899543  84.1846226  84.8075854
  18.4991280  84.8056495  85.9262644  25.3665090  74.5245982  95.6933099
  25.4153246  75.4008105  95.3110868  25.9087604  73.9823375  95.1204742
  35.8519936  85.0687105  94.9734236  35.0615479  85.0511244  94.4338735
  35.6153290  85.6075399  95.7283272  35.9717811  81.9179571  92.2866964
  36.0215816  81.7529579  93.2282487  35.8631734  81.0506830  91.8964845
  24.8554069  84.5968117  79.5759053  25.0042190  85.2803581  78.9225726
  25.6620513  84.5773207  80.0908509  33.2621573  77.9010499  93.6026271
  34.1631436  77.7616964  93.3110269  33.3369548  78.0664954  94.5424448
  27.5964379  75.2777354  92.4479457  26.7267688  75.5710920  92.1762046
  27.8323859  75.8617799  93.1686721  37.4736008  84.3376513  92.5308986
  37.1820816  84.7006493  93.3672447  36.8608139  83.6243521  92.3522318
  38.6731690  81.9029393  85.0511556  39.5078581  82.3419197  85.2149116
  38.8090819  81.4268046  84.2319802  35.7223196  79.4609128  90.9989044
  36.1977317  79.6536774  90.1907895  34.7988761  79.5168313  90.7532428
  22.6106702  80.6233295  80.5820122  22.3652744  79.7195625  80.7800332
  22.7802617  80.6250445  79.6399600  30.3003412  71.4956971  89.9644878
  30.8185356  72.2317998  89.6391366  29.9458545  71.8020964  90.7991637
  21.8802350  76.3561652  78.0806284  21.1871595  76.4306007  77.4246320
  21.6354102  75.5921996  78.6027801  30.5516007  67.9157254  85.4845774
  30.8317760  67.2480443  86.1106201  31.3366613  68.1086349  84.9720438
  28.3549475  87.0916248  77.0470801  27.7823442  87.7106435  76.5941273
  28.9282269  87.6415609  77.5810723  34.4224865  76.3374888  89.2317349
  35.3742288  76.4372985  89.2529573  34.2528315  75.5453156  89.7415434
  32.4439244  73.4230471  89.4176750  31.8489176  73.7035484  88.7223239
  32.1588941  73.9124372  90.1893491  31.5746735  87.3753398  78.1779383
  32.5077408  87.3098959  78.3812258  31.4869948  88.2109665  77.7193916
  34.2034751  86.6919268  75.1383330  34.1248383  86.3579132  76.0319088
  35.0244418  87.1841036  75.1374803  36.9012943  79.5581007  88.3459649
  36.8689263  78.6197008  88.5319333  37.5113566  79.6365044  87.6125474
  28.7396274  78.4277060  74.3886853  29.6855378  78.2983268  74.4575271
  28.3610518  77.6891722  74.8656281  37.0507431  76.3492051  88.3917932
  36.5346480  75.5650507  88.2047861  37.9347380  76.0210767  88.5564452
  34.7118158  70.0933066  84.3513745  34.5142979  69.7848155  85.2357077
  35.3217864  70.8194705  84.4811675  42.7189493  80.6197014  87.4865686
  43.4492881  80.3582302  88.0473389  42.1096438  79.8825736  87.5267754
  40.8004790  78.7604877  88.0840137  40.0737953  78.6260842  87.4756629
  40.3852077  79.0681705  88.8896855  28.6234966  82.4794806  95.8487510
  29.5437976  82.6573405  96.0427557  28.5884549  81.5350852  95.6967209
  26.9239191  76.3527037  74.3241738  26.0170646  76.0560149  74.4004452
  27.2015172  76.0556855  73.4576025  17.8417131  77.6733400  84.7740785
  17.5219915  76.8198708  84.4815159  17.2950559  77.8881978  85.5298752
  21.6197039  80.3895841  88.4910291  21.8383048  81.3212949  88.5098325
  22.0322812  80.0303815  89.2765095  28.5401256  70.8963926  80.4785980
  27.7301985  70.5511011  80.8541226  29.2285673  70.5871470  81.0673591
  30.4691805  69.9741973  82.1010276  31.0222843  70.3937427  82.7600299
  30.7061891  69.0477721  82.1433232  26.4924904  75.9629047  97.8813040
  26.3921631  76.9123404  97.8125131  26.2746446  75.6347286  97.0089110
  25.6937975  73.2113972  74.4653718  26.5557139  73.5368870  74.7249535
  25.8788319  72.4245468  73.9526783  17.7105391  81.2936312  86.7433906
  17.0168862  80.8790264  86.2303861  18.4578382  81.3356848  86.1467325
  33.8470612  72.0842498  81.6088941  33.2669281  72.7427302  81.2266993
  33.5806544  71.2619843  81.1976358  32.2974178  71.4847556  83.8110261
  32.7973957  71.5964091  83.0024580  32.9409786  71.1808609  84.4511069
  26.3556174  79.3926186  96.6978102  25.8723256  80.1926546  96.9041991
  26.4417113  79.4034131  95.7445546  19.6242134  81.2254565  84.6199921
  19.6012822  81.3242253  83.6681804  19.9342770  82.0719716  84.9417087
  22.2829511  83.2830720  88.7346536  23.2372765  83.2514663  88.6676467
  22.0842035  82.8221344  89.5496762  22.8728894  81.8531836  91.3017333
  23.6921783  82.3475915  91.3252171  23.1465701  80.9363805  91.2734901
  32.6295490  74.2442589  80.6645289  31.7421345  74.5292239  80.4465484
  33.0449479  74.0836352  79.8172566  35.9810026  74.2689110  84.3799628
  36.7570416  74.7585562  84.6524245  35.2558160  74.6947164  84.8371498
  38.4182585  74.9816729  85.4373569  39.0127075  74.7412465  84.7266877
  38.4909168  74.2623860  86.0647105  20.6379740  88.8250340  85.7516734
  20.5034208  88.0650741  85.1854732  20.2211803  89.5491240  85.2845522
  31.7738703  84.0087263  74.7593309  32.4774553  84.2137266  75.3750964
  31.0501352  84.5764025  75.0242392  32.6036514  79.7597125  80.8795579
  32.5471715  80.2165676  80.0403211  33.1564856  78.9987809  80.7018422
  36.4141319  75.5486857  81.7045698  36.1578254  75.1483492  82.5353906
  35.7894187  76.2630650  81.5795838  40.7253657  78.2882930  84.2116990
  40.1653215  78.3576119  84.9848552  40.1197161  78.1123914  83.4916486
  23.7948866  89.7219657  85.9635176  23.6781250  90.6665089  85.8613866
  22.9741312  89.4193218  86.3520975  33.6825401  84.4469793  76.8091769
  34.5171005  84.0150991  76.6269244  33.5209744  84.2751806  77.7368663
  33.3371293  80.9501906  78.1748108  33.2820097  80.7846177  77.2336552
  32.7117348  81.6577939  78.3310298  18.1263808  76.1869970  92.0009530
  18.7722671  75.6768924  92.4896756  17.9180959  76.9238652  92.5752956
  30.6517200  83.2550818  97.5001671  31.5208360  83.4291470  97.1388306
  30.1723952  84.0745235  97.3777400  26.6467418  70.4510015  77.7533427
  26.6346088  71.3951855  77.9101697  27.5390840  70.2680160  77.4592888
  24.8203380  90.3747919  89.1791105  25.7230627  90.4071529  89.4957600
  24.5940750  89.4448370  89.1937440  26.5756982  89.1278905  85.8401183
  25.6252613  89.1280767  85.7265555  26.8789468  88.3811640  85.3237218
  30.4619538  67.0452792  82.0079363  29.6951934  66.4911278  82.1536046
  30.8730243  67.1174660  82.8693515  22.4661299  73.3337587  96.0984545
  23.3292760  72.9774392  96.3087869  21.8926709  72.9951482  96.7859949
  42.3109676  94.9639444  86.9046946  42.9488086  94.8446191  86.2010286
  42.1930519  95.9120288  86.9634898  39.1199382  94.9166872  86.8408470
  38.7817894  94.8007937  85.9529005  39.9889150  94.5158037  86.8209476
  34.9786198  96.7702348  82.8305361  34.4151063  96.6792285  82.0621649
  34.8638593  95.9502253  83.3107854  39.6019165  96.0701724  92.7994676
  39.5907806  95.6754522  91.9275179  39.7639805  95.3367796  93.3928447
  32.5250630  98.2653540  85.6689582  33.3171922  97.9244364  85.2535881
  32.7647280  98.3748515  86.5891735  40.5585756 100.4373316  78.1419826
  39.9073736 101.0227396  77.7553840  41.3530119 100.9679511  78.2014864
  34.4841384  97.5262453  78.5406960  35.2572260  96.9791440  78.4019836
  34.8366782  98.3906702  78.7521422  36.3226426  98.8538835  91.7473860
  36.0316292  99.7584466  91.6320526  36.9583411  98.8955363  92.4617929
  37.2482633  96.2315684  88.3375219  37.8446205  96.0071706  87.6232182
  37.3057605  95.4900429  88.9400667  36.8207661  93.6855119  76.1725410
  37.0733182  93.1636640  75.4108873  35.8832221  93.5221265  76.2752094
  41.8650944  92.6890898  83.9800154  42.6514033  92.2710321  83.6290571
  42.1289649  93.5936990  84.1481802  42.0361022  98.1263748  78.6788810
  41.4006855  98.1998374  79.3909715  41.7058428  98.7157347  78.0007890
  47.2659371  92.6266131  84.8833132  47.9984543  92.0565348  85.1170962
  46.5098727  92.2387731  85.3239638  36.5403950  95.5883225  78.3749785
  36.4240208  94.9128129  79.0430870  36.6506210  95.1015599  77.5581938
  38.8835491  95.0493372  82.0796475  38.5193698  94.5223993  82.7909396
  39.7402607  94.6591841  81.9062960  44.7884792  86.3387705  89.3427741
  44.4568117  87.2083116  89.1188956  44.1930405  86.0223989  90.0221771
  38.5240978  90.0783272  77.0757823  38.6915380  90.9463508  77.4428294
  38.3338147  90.2410554  76.1519112  41.2816311  98.5400251  88.7423653
  40.9817034  99.4425290  88.6339461  40.9367371  98.2732434  89.5944806
  34.7328793  94.9914048  84.7760358  33.8079289  94.8590262  84.9838050
  34.9813206  95.7708267  85.2730300  44.6813455  91.0582791  86.4221091
  43.7730332  90.9898199  86.1279852  44.6301051  91.5354736  87.2502916
  38.5030199  92.5340929  78.0604490  38.3829824  92.9797980  78.8989970
  37.8082787  92.8826247  77.5018028  32.0937604  94.6347321  85.6104147
  32.2229985  94.8881800  86.5243559  31.4135055  95.2275029  85.2908802
  36.2637091 105.3044571  81.7094621  36.1861121 106.2552396  81.7883102
  35.6598735 104.9590444  82.3669547  38.7554321  92.4772437  94.3655988
  37.9787655  93.0366357  94.3558853  39.3944884  92.9629220  94.8870858
  46.5475101  89.2599229  88.1998965  45.9049482  89.5531763  87.5538759
  46.0430030  89.1452150  89.0052161  44.2015265  93.0062403  78.8884824
  45.1133121  93.2389789  78.7132522  43.6924912  93.5899447  78.3259903
  37.0100693  95.2857890  93.9273955  37.7515378  95.8242934  93.6508779
  36.3037679  95.9124179  94.0845507  42.4856033  97.4287030  92.5246117
  42.8939389  96.9869441  91.7800749  41.7633294  96.8539658  92.7780309
  38.8387103  92.3659637  89.8979674  39.6848298  92.7899051  90.0414323
  38.7785740  91.7093262  90.5918237  42.8084847  97.9888221  86.2798405
  42.1793710  98.1533935  85.5774473  42.4210510  98.4029831  87.0509369
  41.9886548  90.0264006  91.5560847  41.7447480  90.7806066  91.0195123
  42.2646479  90.4049353  92.3908094  43.9425011  96.5702618  90.2338113
  44.1541906  97.2134378  89.5572494  43.8954759  95.7364935  89.7660043
  41.5451240  89.1820439  87.1374685  40.6835719  89.4801692  87.4291422
  41.5713675  89.3990838  86.2055718  38.3612809  97.7262629  83.5448491
  38.8251155  98.0050332  82.7553113  38.0969607  96.8246074  83.3621581
  35.2536890  97.2734111  86.4828254  35.8238247  97.7021379  85.8445738
  35.8445002  96.9916695  87.1812439  37.2981695  93.8485782  80.3538056
  38.0005739  94.3006825  80.8211982  36.9662324  93.2069600  80.9817949
  35.7462057  92.4397538  94.7289265  35.1160717  93.1213819  94.9624662
  35.6398145  92.3280620  93.7842403  31.0407029  92.1069334  85.6555189
  30.2506083  92.3626863  85.1795300  31.5318277  92.9217672  85.7607230
  32.9921775  92.4713913  82.6138666  32.1952938  92.5832608  83.1322162
  32.7647367  92.8100566  81.7479556  38.8227442  98.9958617  90.5621181
  38.8871875  99.4579024  91.3979352  38.1138366  98.3655982  90.6903490
  29.3244732  92.3599825  88.0870180  29.5752771  93.2446835  88.3527756
  29.8604281  92.1804426  87.3145272  38.5375460 100.6626724  80.4300161
  38.4021135 101.5078260  80.8585009  39.0785272 100.8646002  79.6666095
  35.0242800  86.7418304  97.0914516  34.6309745  86.1884503  97.7662160
  35.8408940  87.0528883  97.4821034  31.9904857  98.1802162  81.0028086
  32.5029378  98.9745412  81.1533651  32.6427570  97.4828453  80.9361687
  33.7999742 101.2967919  83.0850839  33.9766370 102.2185883  82.8971823
  34.5956576 100.9826338  83.5145219  37.9410761  88.1576183  94.6834773
  38.6820474  88.7583336  94.6039235  38.1728683  87.4153821  94.1252815
  33.0852099  93.3432550  92.9613002  32.9705614  92.4417808  93.2620101
  32.2296616  93.5896247  92.6097819  40.1643936 101.2850291  94.5600503
  39.7207791 100.4986669  94.2421407  40.8261150 101.4729441  93.8944394
  34.9231058 102.8146092  89.0861182  35.4738483 102.6863156  88.3138175
  34.0842533 103.1140981  88.7356074  38.7198229  99.0797220  93.4305413
  39.2526565  98.3185508  93.2004721  38.1912310  98.7870872  94.1729567
  41.8867924  84.1857286  88.9599054  41.5432193  85.0758928  88.8838165
  42.2546886  83.9958944  88.0968639  29.9553774  96.5090817  81.7787657
  30.7928996  96.9187825  81.5621364  30.1332042  95.5690259  81.7487850
  41.8518206  94.1765897  77.4671489  41.3364830  94.9470502  77.7059877
  41.5795515  93.5031033  78.0904551  39.4365317  89.0215598  82.5256728
  38.5806914  88.6322448  82.3462367  39.8492269  89.1007559  81.6656513
  40.9664464  86.5561941  86.9248288  40.4629260  86.5192076  86.1116093
  41.2595071  87.4654684  86.9844944  37.2107350  86.6400671  85.9314469
  38.0760347  86.4443480  85.5720359  37.2784859  86.4111023  86.8583826
  46.8252480  96.9298252  79.4024663  46.0481923  96.5909411  78.9579825
  47.5043961  96.9350875  78.7279628  41.6404509  92.0492989  79.2931271
  41.3354645  92.3639138  80.1441414  42.5934952  92.1274409  79.3358604
  40.0850941  98.2083213  80.9424225  39.5572303  97.4735972  80.6297462
  39.5838444  98.9857889  80.6964193  34.8169669  88.8702879  83.3030836
  35.3913421  88.6478060  82.5704029  35.4040651  88.9391573  84.0559437
  43.8749246  94.7576606  84.1095213  44.3881128  95.3906598  84.6116922
  44.5250470  94.1577801  83.7438573  35.1439256  90.9007340  77.3226721
  34.3076568  91.2382026  77.6435996  35.0044026  90.7656320  76.3853858
  37.1192337  85.7444128  82.0305906  36.4656749  85.4293145  81.4062520
  37.0772811  85.1219868  82.7565729  38.2303541  96.0263423  73.9459198
  37.3230603  95.7952676  74.1450347  38.7274573  95.2301042  74.1333179
  41.1371620 104.7360930  76.8655884  40.4633319 105.0392627  77.4740842
  41.5237442 105.5390010  76.5161341  40.3530077  92.2326061  86.3553553
  39.4352638  92.4541008  86.1975241  40.7690221  92.3072372  85.4965261
  41.1365125  93.6317477  81.4856233  41.8836944  94.1438874  81.1763356
  41.4056714  93.3101530  82.3460627  39.4091775  96.1276018  78.4683188
  38.5002994  95.8435051  78.5655658  39.4386859  96.5475096  77.6086495
  44.6411042  99.7382607  82.2374355  44.1873369  98.8973517  82.2939546
  44.0105009 100.3744006  82.5749135  43.5843962  90.6674593  83.4675023
  42.8466719  90.1551979  83.7985265  43.8370735  90.2274975  82.6558300
  43.0843982 101.5759104  83.1724173  43.3766956 102.1364161  82.4536539
  43.5942602 101.8687665  83.9277333  43.6855589  83.4450845  84.0616792
  43.9914466  82.5848209  83.7742707  44.4108194  84.0368465  83.8615786
  29.9779945  93.8481532  82.4498390  29.7804345  93.2550893  81.7249457
  29.4226609  93.5433742  83.1674329  37.9576669  93.7404638  84.5692983
  38.0125279  92.7878475  84.4935460  37.1467871  93.8964077  85.0534282
  39.1067863  97.6684761  75.8071266  38.6687293  96.9520620  75.3476904
  39.8478304  97.8960876  75.2456358  35.8969029  92.3581698  82.3283362
  35.0836894  92.6575869  82.7348554  36.3928023  91.9637387  83.0457844
  38.0477607 102.3539455  84.2617627  38.0053786 102.5800301  83.3326159
  38.9640306 102.1202830  84.4103428  41.4943241  92.8223523  91.1598256
  41.8492628  93.0494996  92.0192722  42.1415372  93.1541899  90.5375511
  47.2240977  95.9441958  81.8647585  47.0858876  96.1343554  80.9368774
  46.8677196  96.7061341  82.3215636  35.3883104  89.9300054  87.9444597
  36.0282483  89.7888813  87.2467560  34.5560634  89.6434567  87.5683199
  36.1643408  99.2302484  84.0579589  36.9584006  98.7352804  83.8562164
  35.4535100  98.7020347  83.6947295  40.9838252 101.6120580  88.4091957
  41.0375274 102.1811516  89.1769673  40.1153033 101.7822465  88.0445994
  32.4726171  93.3745566  80.1339342  31.5423759  93.3130021  80.3509304
  32.5683643  92.8521519  79.3375983  32.3911720  89.9000379  82.7217584
  32.6518537  90.8145712  82.6126744  33.2128892  89.4324821  82.8714197
  33.8636645  91.3138136  89.8916408  34.5359699  91.1055498  89.2429057
  33.0366432  91.1160222  89.4521641  39.7662217  87.9400077  91.9082069
  39.1190132  88.6390026  91.8146546  40.5363233  88.3736221  92.2758317
  39.9426352  95.7780842  89.9678889  40.8718412  95.9292001  89.7947856
  39.5217382  95.8664862  89.1127535  38.7414684  99.8031506  87.7377426
  38.6025769  99.4350290  88.6103365  37.9529280 100.3179145  87.5661384
  39.3362835 104.9040602  79.0802963  39.5114591 104.4328646  79.8948586
  38.6495624 105.5306369  79.3084224  40.2919899  99.1813109  85.1266264
  39.9569731  99.1413879  86.0223914  39.7923844  98.5157825  84.6536675
  34.2664143  94.5880739  90.6518845  34.1283941  93.8560978  91.2530384
  35.1769066  94.4989639  90.3703033  43.2279090  96.5269143  75.4003324
  42.6108261  95.8015971  75.3036377  42.7595579  97.2878503  75.0570398
  36.8946443  94.3000698  90.1402525  37.6046062  93.6593890  90.0989144
  36.8515751  94.5513593  91.0628706  35.6075377  91.2865916  91.9598165
  35.0712734  90.8356654  92.6119761  35.0192086  91.4211825  91.2168629
  33.9023921 108.0529965  85.8542823  34.1420519 108.6848489  86.5321842
  33.0593117 107.7018005  86.1408182  35.0177636  90.7454567  74.5224628
  34.1407103  90.6243368  74.1586875  35.4935389  89.9540646  74.2703517
  26.5379776  95.5331727  84.6166135  27.2250816  95.2193457  84.0287151
  26.3827905  96.4373092  84.3433387  31.3414499  90.4221924  89.0451159
  31.2572687  89.8147593  88.3101569  30.5197205  90.9130942  89.0460655
  38.4151783 103.8609088  88.2584327  38.3421954 104.6664059  88.7703632
  37.9729176 104.0601053  87.4332349  38.2041562 103.0980858  81.7687149
  37.4209084 103.6402538  81.8625373  38.9034307 103.6154837  82.1681390
  41.5138212  88.9075487  84.4121354  42.0106912  88.1545449  84.0922424
  40.7425194  88.9439804  83.8464563  40.8750466 103.7595922  90.4142486
  41.5878438 104.3943387  90.3418387  40.3840495 103.8559788  89.5982488
  42.5967993  97.6647174  81.9859778  41.6624272  97.7848637  81.8164482
  42.7744662  96.7619641  81.7219787  38.0973181  91.0492870  84.1393039
  37.7270969  90.4963911  84.8273944  38.5932274  90.4451004  83.5868039
  45.9840544  93.5064494  82.5209812  46.4500997  94.3392485  82.4470114
  46.4348045  93.0409475  83.2255070  35.9262380 101.5090365  91.2348057
  36.6271839 102.1426848  91.3877451  35.4557495 101.8505097  90.4743696
  44.0516776  99.8508315  79.5195964  44.3276619  99.7364910  80.4289838
  43.1821274  99.4525800  79.4808137  43.9557207  85.8745081  86.5600713
  43.0420287  86.1049307  86.7282920  44.3850309  85.9583525  87.4114745
  43.7263666  94.0634973  89.0600607  43.0735116  94.3110880  88.4053060
  44.1044046  93.2499111  88.7263084  40.6870840 104.0994666  83.1628777
  40.8693234 103.2816322  83.6256530  41.5103826 104.3162358  82.7253667
  41.0213005 103.0262851  80.4243826  41.5500771 102.5155306  79.8113988
  41.2841225 102.7105381  81.2889359  39.7751239  94.8054784  95.5466644
  39.0991876  94.7048913  96.2169019  40.5978873  94.6493997  96.0102641
  31.5230098 101.0426720  88.1679159  32.1083535 100.2970408  88.3007064
  31.3254936 101.3530677  89.0515823  34.3768753 104.0777968  83.1841602
  33.7079128 104.5624095  82.7005642  34.2381623 104.3247188  84.0984980
  26.1147752  93.6132320  86.8883602  26.1531852  93.0795911  87.6820721
  25.6088045  93.0867526  86.2694580  38.5174022 106.1121711  89.7824260
  39.0692330 106.2753333  90.5473345  38.8580215 106.7026149  89.1104285
  33.4938515  88.4596861  90.3846145  33.5579841  89.3211692  89.9723542
  33.4305635  87.8470863  89.6518503  32.9690787  90.5319993  94.0319179
  33.5962826  90.1497071  94.6456703  32.1118706  90.3134195  94.3974872
  29.7456330  92.3396423  79.9637534  30.0409771  91.4307101  79.9104588
  28.8444366  92.3184162  79.6418536  41.6542409 104.0603687  86.7687942
  41.5293548 103.2593426  86.2598888  42.3121500 104.5549880  86.2801912
  33.2750577  90.4152419  85.9465082  32.5537163  91.0288387  85.8072556
  34.0643833  90.9510184  85.8681728  43.7177317 101.8612707  88.3967492
  42.7707653 101.7418058  88.3245819  44.0660090 100.9735205  88.4793754
  36.0776891  87.7506846  92.2205734  36.6011292  87.9969142  92.9832044
  35.8589224  88.5826880  91.8008872  31.4744172  90.0210520  80.0876859
  31.1456878  89.1407899  79.9051965  31.8283542  89.9658189  80.9753248
  40.7223751 101.6565423  84.5971845  40.5748713 100.7282130  84.7779415
  41.5477244 101.6785514  84.1128920  34.5885995  90.3083490  80.4552337
  34.9282067  90.8369411  79.7330945  35.0358115  90.6463896  81.2310903
  44.3257872 102.4793982  85.6836717  45.2504420 102.2736843  85.5461168
  44.1573176 102.2310383  86.5926059  37.2829436  88.6920541  89.9055405
  36.9426256  87.8928354  90.3076085  36.5768442  88.9922252  89.3332238
  37.9345907  85.7769853  88.3582728  38.7571977  85.3030331  88.2361618
  38.1783971  86.5560337  88.8581414  36.5754142  88.8058112  78.6545629
  37.2962504  89.1839364  78.1509346  35.9519446  89.5246988  78.7580607
  40.7185265  89.5103261  79.5903962  40.9348879  90.3927898  79.2892790
  40.2379332  89.1189474  78.8609604  35.4584486  92.4688974  86.1674706
  35.3129067  92.7829277  87.0598988  34.9809690  93.0873874  85.6145605
  37.3180869  89.4591522  86.2155596  37.3042438  88.5632615  85.8787894
  38.0353297  89.4662186  86.8493882  39.1707000  89.8928862  88.2608723
  38.9124778  90.8145933  88.2593054  38.6392040  89.4959297  88.9509188
  44.1153189 102.9979649  81.0398809  44.2890066 102.4326072  80.2872661
  44.6082080 103.7980544  80.8578299  29.9330148  95.0094318  89.1062368
  29.3883616  95.7854126  89.2382642  30.8109498  95.3565123  88.9481489
  36.7217765  88.3405902  81.4843166  36.8433676  87.4122548  81.6834054
  36.4319807  88.3544588  80.5721482  39.5908955  86.0260813  84.6209886
  39.6130652  86.0900146  83.6661865  40.0077014  85.1865321  84.8150392
  49.9692580  95.7616072  82.6589109  50.4123726  95.0123397  82.2608232
  49.0919090  95.7526208  82.2762840  45.1028361 102.3146414  78.1395707
  45.7979266 102.9353106  78.3583022  45.4451511 101.4641765  78.4148085
  30.7196170  94.1364214  91.9992524  29.9777906  94.2846850  92.5857155
  30.3988915  94.3972480  91.1359274  47.0019784  99.7646119  79.6683038
  47.5271108 100.1033392  78.9432358  46.9142137  98.8293134  79.4846172
  38.6639833 103.6780193  91.7972914  38.9726959 103.4329339  92.6695614
  39.4615315 103.8826831  91.3091785  38.6860445 105.8318102  84.0278291
  38.2465435 105.3394481  84.7211148  39.4368562 105.2891070  83.7870366
  31.1652784 102.0229643  84.0302919  31.9910804 101.7233415  83.6501563
  30.8146836 101.2537266  84.4792708  36.1334317 101.3756111  86.1000593
  35.5114326 100.7126816  85.8002821  36.8039184 101.4017243  85.4174240
  29.3661389  99.9415970  84.9891853  28.5293297  99.5138144  84.8075854
  29.3385034 100.1348413  85.9262644  36.2058845  89.8537899  95.6933099
  36.2547000  90.7300022  95.3110868  36.7481359  89.3115293  95.1204742
  35.6947824  99.9260035  79.5759053  35.8435944 100.6095499  78.9225726
  36.5014267  99.9065125  80.0908509  38.4358133  90.6069272  92.4479457
  37.5661442  90.9002838  92.1762046  38.6717613  91.1909717  93.1686721
  33.4500457  95.9525212  80.5820122  33.2046499  95.0487542  80.7800332
  33.6196372  95.9542363  79.6399600  41.1397167  86.8248889  89.9644878
  41.6579111  87.5609916  89.6391366  40.7852300  87.1312882  90.7991637
  32.7196105  91.6853570  78.0806284  32.0265349  91.7597925  77.4246320
  32.4747856  90.9213914  78.6027801  41.3909761  83.2449171  85.4845774
  41.6711515  82.5772360  86.1106201  42.1760368  83.4378267  84.9720438
  39.1943230 102.4208165  77.0470801  38.6217197 103.0398352  76.5941273
  39.7676023 102.9707527  77.5810723  45.2618619  91.6666805  89.2317349
  46.2136042  91.7664903  89.2529573  45.0922070  90.8745074  89.7415434
  43.2832999  88.7522389  89.4176750  42.6882931  89.0327401  88.7223239
  42.9982696  89.2416289  90.1893491  42.4140489 102.7045315  78.1779383
  43.3471162 102.6390877  78.3812258  42.3263702 103.5401582  77.7193916
  45.0428506 102.0211186  75.1383330  44.9642138 101.6871049  76.0319088
  45.8638173 102.5132954  75.1374803  39.5790028  93.7568978  74.3886853
  40.5249133  93.6275186  74.4575271  39.2004273  93.0183640  74.8656281
  45.5511913  85.4224984  84.3513745  45.3536734  85.1140072  85.2357077
  46.1611618  86.1486623  84.4811675  39.4628721  97.8086724  95.8487510
  40.3831730  97.9865323  96.0427557  39.4278304  96.8642769  95.6967209
  37.7632945  91.6818954  74.3241738  36.8564401  91.3852067  74.4004452
  38.0408926  91.3848772  73.4576025  28.6810886  93.0025318  84.7740785
  28.3613670  92.1490626  84.4815159  28.1344314  93.2173896  85.5298752
  32.4590793  95.7187759  88.4910291  32.6776803  96.6504867  88.5098325
  32.8716567  95.3595733  89.2765095  39.3795011  86.2255844  80.4785980
  38.5695739  85.8802929  80.8541226  40.0679428  85.9163388  81.0673591
  41.3085559  85.3033891  82.1010276  41.8616598  85.7229344  82.7600299
  41.5455646  84.3769639  82.1433232  37.3318658  91.2920965  97.8813040
  37.2315385  92.2415321  97.8125131  37.1140200  90.9639203  97.0089110
  36.5331730  88.5405890  74.4653718  37.3950894  88.8660788  74.7249535
  36.7182074  87.7537385  73.9526783  28.5499146  96.6228229  86.7433906
  27.8562617  96.2082182  86.2303861  29.2972137  96.6648766  86.1467325
  44.6864366  87.4134416  81.6088941  44.1063035  88.0719220  81.2266993
  44.4200299  86.5911761  81.1976358  43.1367933  86.8139474  83.8110261
  43.6367711  86.9256008  83.0024580  43.7803541  86.5100527  84.4511069
  37.1949928  94.7218103  96.6978102  36.7117010  95.5218463  96.9041991
  37.2810868  94.7326048  95.7445546  30.4635888  96.5546483  84.6199921
  30.4406576  96.6534170  83.6681804  30.7736525  97.4011634  84.9417087
  33.1223266  98.6122638  88.7346536  34.0766520  98.5806580  88.6676467
  32.9235790  98.1513262  89.5496762  33.7122648  97.1823754  91.3017333
  34.5315537  97.6767833  91.3252171  33.9859456  96.2655722  91.2734901
  43.4689244  89.5734506  80.6645289  42.5815099  89.8584157  80.4465484
  43.8843233  89.4128270  79.8172566  46.8203780  89.5981027  84.3799628
  47.5964171  90.0877480  84.6524245  46.0951915  90.0239082  84.8371498
  49.2576339  90.3108647  85.4373569  49.8520830  90.0704383  84.7266877
  49.3302923  89.5915777  86.0647105  31.4773495 104.1542258  85.7516734
  31.3427963 103.3942658  85.1854732  31.0605557 104.8783157  85.2845522
  42.6132458  99.3379181  74.7593309  43.3168308  99.5429184  75.3750964
  41.8895107  99.9055943  75.0242392  43.4430268  95.0889042  80.8795579
  43.3865469  95.5457594  80.0403211  43.9958610  94.3279727  80.7018422
  47.2535074  90.8778774  81.7045698  46.9972008  90.4775410  82.5353906
  46.6287942  91.5922568  81.5795838  51.5647412  93.6174847  84.2116990
  51.0046970  93.6868037  84.9848552  50.9590915  93.4415832  83.4916486
  34.6342621 105.0511575  85.9635176  34.5175005 105.9957007  85.8613866
  33.8135067 104.7485136  86.3520975  44.5219155  99.7761710  76.8091769
  45.3564759  99.3442909  76.6269244  44.3603498  99.6043724  77.7368663
  44.1765047  96.2793824  78.1748108  44.1213851  96.1138095  77.2336552
  43.5511103  96.9869857  78.3310298  28.9657562  91.5161888  92.0009530
  29.6116426  91.0060842  92.4896756  28.7574713  92.2530570  92.5752956
  37.4861173  85.7801933  77.7533427  37.4739843  86.7243773  77.9101697
  38.3784595  85.5972078  77.4592888  35.6597135 105.7039836  89.1791105
  36.5624381 105.7363447  89.4957600  35.4334505 104.7740287  89.1937440
  37.4150737 104.4570823  85.8401183  36.4646368 104.4572685  85.7265555
  37.7183223 103.7103558  85.3237218  41.3013292  82.3744709  82.0079363
  40.5345688  81.8203196  82.1536046  41.7123997  82.4466578  82.8693515
  33.3055053  88.6629505  96.0984545  34.1686515  88.3066310  96.3087869
  32.7320464  88.3243400  96.7859949  45.8179952 112.0994266  82.8305361
  45.2544817 112.0084203  82.0621649  45.7032347 111.2794170  83.3107854
  43.3644384 113.5945458  85.6689582  44.1565676 113.2536282  85.2535881
  43.6041034 113.7040433  86.5891735  51.3979511 115.7665234  78.1419826
  50.7467491 116.3519314  77.7553840  52.1923874 116.2971429  78.2014864
  45.3235138 112.8554371  78.5406960  46.0966014 112.3083358  78.4019836
  45.6760537 113.7198620  78.7521422  47.6601416 109.0147037  76.1725410
  47.9126937 108.4928558  75.4108873  46.7225975 108.8513182  76.2752094
  52.7044699 108.0182815  83.9800154  53.4907788 107.6002238  83.6290571
  52.9683403 108.9228907  84.1481802  52.8754776 113.4555666  78.6788810
  52.2400609 113.5290292  79.3909715  52.5452183 114.0449264  78.0007890
  58.1053126 107.9558048  84.8833132  58.8378298 107.3857265  85.1170962
  57.3492482 107.5679649  85.3239638  47.3797705 110.9175143  78.3749785
  47.2633963 110.2420046  79.0430870  47.4899965 110.4307517  77.5581938
  49.7229246 110.3785290  82.0796475  49.3587453 109.8515911  82.7909396
  50.5796362 109.9883759  81.9062960  49.3634733 105.4075190  77.0757823
  49.5309135 106.2755426  77.4428294  49.1731902 105.5702471  76.1519112
  52.1210066 113.8692169  88.7423653  51.8210789 114.7717207  88.6339461
  51.7761125 113.6024352  89.5944806  45.5722547 110.3205965  84.7760358
  44.6473044 110.1882180  84.9838050  45.8206960 111.1000185  85.2730300
  55.5207210 106.3874709  86.4221091  54.6124087 106.3190117  86.1279852
  55.4694805 106.8646654  87.2502916  49.3423953 107.8632847  78.0604490
  49.2223579 108.3089898  78.8989970  48.6476542 108.2118165  77.5018028
  42.9331358 109.9639239  85.6104147  43.0623739 110.2173718  86.5243559
  42.2528810 110.5566947  85.2908802  47.1030846 120.6336489  81.7094621
  47.0254875 121.5844314  81.7883102  46.4992489 120.2882361  82.3669547
  57.3868856 104.5891147  88.1998965  56.7443236 104.8823680  87.5538759
  56.8823784 104.4744067  89.0052161  55.0409020 108.3354320  78.8884824
  55.9526876 108.5681707  78.7132522  54.5318667 108.9191365  78.3259903
  53.3249787 112.7578948  92.5246117  53.7333143 112.3161359  91.7800749
  52.6027049 112.1831576  92.7780309  53.6478602 113.3180139  86.2798405
  53.0187464 113.4825853  85.5774473  53.2604264 113.7321748  87.0509369
  57.5267834 114.2534577  83.6342769  56.8418872 114.6333478  83.0839803
  57.6111683 114.8629903  84.3674717  54.7818765 111.8994536  90.2338113
  54.9935661 112.5426296  89.5572494  54.7348514 111.0656852  89.7660043
  52.3844994 104.5112356  87.1374685  51.5229473 104.8093610  87.4291422
  52.4107429 104.7282755  86.2055718  49.2006564 113.0554547  83.5448491
  49.6644909 113.3342250  82.7553113  48.9363362 112.1537991  83.3621581
  48.1375450 109.1777699  80.3538056  48.8399493 109.6298743  80.8211982
  47.8056078 108.5361518  80.9817949  41.8800784 107.4361252  85.6555189
  41.0899838 107.6918780  85.1795300  42.3712031 108.2509590  85.7607230
  55.8964593 114.7766491  88.4060470  56.7182037 114.3746678  88.1243152
  55.8926996 114.6734725  89.3576586  43.8315529 107.8005831  82.6138666
  43.0346692 107.9124525  83.1322162  43.6041121 108.1392483  81.7479556
  40.1638487 107.6891742  88.0870180  40.4146525 108.5738752  88.3527756
  40.6998035 107.5096344  87.3145272  63.9870586 111.1205240  84.7545442
  63.2334295 110.5512638  84.5989446  64.1218128 111.0867904  85.7016076
  49.3769214 115.9918642  80.4300161  49.2414889 116.8370178  80.8585009
  49.9179027 116.1937920  79.6666095  42.8298612 113.5094080  81.0028086
  43.3423132 114.3037330  81.1533651  43.4821325 112.8120370  80.9361687
  44.6393497 116.6259836  83.0850839  44.8160125 117.5477801  82.8971823
  45.4350330 116.3118255  83.5145219  51.0037691 116.6142208  94.5600503
  50.5601545 115.8278587  94.2421407  51.6654904 116.8021359  93.8944394
  45.7624812 118.1438010  89.0861182  46.3132237 118.0155073  88.3138175
  44.9236288 118.4432899  88.7356074  53.1018929 116.8945008  92.5881904
  53.0837404 117.7153889  92.0962173  54.0238849 116.7699084  92.8132045
  49.5591983 114.4089138  93.4305413  50.0920320 113.6477426  93.2004721
  49.0306064 114.1162790  94.1729567  40.7947529 111.8382734  81.7787657
  41.6322751 112.2479743  81.5621364  40.9725796 110.8982176  81.7487850
  52.6911961 109.5057815  77.4671489  52.1758584 110.2762419  77.7059877
  52.4189269 108.8322951  78.0904551  50.2759072 104.3507516  82.5256728
  49.4200668 103.9614366  82.3462367  50.6886024 104.4299476  81.6656513
  57.6646235 112.2590169  79.4024663  56.8875678 111.9201329  78.9579825
  58.3437716 112.2642793  78.7279628  52.4798264 107.3784907  79.2931271
  52.1748400 107.6931056  80.1441414  53.4328706 107.4566327  79.3358604
  50.9244696 113.5375130  80.9424225  50.3966057 112.8027890  80.6297462
  50.4232198 114.3149807  80.6964193  55.9037542 111.7324151  86.0591271
  55.2461216 112.4223412  86.1471400  56.7077941 112.1220583  86.4025257
  54.7143001 110.0868523  84.1095213  55.2274882 110.7198515  84.6116922
  55.3644224 109.4869719  83.7438573  45.9833010 106.2299258  77.3226721
  45.1470323 106.5673944  77.6435996  45.8437780 106.0948237  76.3853858
  47.9586091 101.0736045  82.0305906  47.3050503 100.7585063  81.4062520
  47.9166565 100.4511786  82.7565729  49.0697296 111.3555341  73.9459198
  48.1624358 111.1244594  74.1450347  49.5668328 110.5592960  74.1333179
  51.9765375 120.0652848  76.8655884  51.3027074 120.3684544  77.4740842
  52.3631197 120.8681928  76.5161341  51.9758879 108.9609395  81.4856233
  52.7230698 109.4730792  81.1763356  52.2450469 108.6393447  82.3460627
  50.2485529 111.4567935  78.4683188  49.3396749 111.1726968  78.5655658
  50.2780613 111.8767014  77.6086495  55.4804797 115.0674525  82.2374355
  55.0267124 114.2265435  82.2939546  54.8498764 115.7035923  82.5749135
  54.4237716 105.9966511  83.4675023  53.6860473 105.4843897  83.7985265
  54.6764490 105.5566893  82.6558300  53.9237736 116.9051022  83.1724173
  54.2160710 117.4656079  82.4536539  54.4336357 117.1979583  83.9277333
  40.8173700 109.1773450  82.4498390  40.6198100 108.5842810  81.7249457
  40.2620364 108.8725660  83.1674329  48.7970423 109.0696556  84.5692983
  48.8519033 108.1170392  84.4935460  47.9861625 109.2255995  85.0534282
  49.9461617 112.9976679  75.8071266  49.5081047 112.2812538  75.3476904
  50.6872058 113.2252794  75.2456358  46.7362783 107.6873616  82.3283362
  45.9230649 107.9867786  82.7348554  47.2321778 107.2929305  83.0457844
  48.8871361 117.6831373  84.2617627  48.8447540 117.9092219  83.3326159
  49.8034060 117.4494747  84.4103428  58.0634732 111.2733876  81.8647585
  57.9252631 111.4635472  80.9368774  57.7070951 112.0353259  82.3215636
  46.2276858 105.2591971  87.9444597  46.8676237 105.1180730  87.2467560
  45.3954389 104.9726485  87.5683199  58.0904112 113.3410403  86.8758856
  58.5240618 113.2485692  87.7241910  58.8035692 113.3167904  86.2378872
  47.0037162 114.5594402  84.0579589  47.7977761 114.0644722  83.8562164
  46.2928854 114.0312265  83.6947295  51.8232006 116.9412497  88.4091957
  51.8769029 117.5103434  89.1769673  50.9546788 117.1114382  88.0445994
  43.3119925 108.7037483  80.1339342  42.3817514 108.6421939  80.3509304
  43.4077397 108.1813436  79.3375983  43.2305475 105.2292296  82.7217584
  43.4912292 106.1437629  82.6126744  44.0522647 104.7616739  82.8714197
  58.9519661 113.3834104  89.4091742  59.1455551 114.2879914  89.6551017
  58.8520279 112.9241523  90.2430327  54.0134770 113.5340847  94.9832622
  53.8620276 113.3051398  94.0662706  54.0039449 114.4911448  94.9963967
  49.5808438 115.1323424  87.7377426  49.4419524 114.7642208  88.6103365
  48.7923034 115.6471063  87.5661384  50.1756590 120.2332520  79.0802963
  50.3508346 119.7620563  79.8948586  49.4889378 120.8598286  79.3084224
  51.1313653 114.5105026  85.1266264  50.7963486 114.4705796  86.0223914
  50.6317599 113.8449742  84.6536675  54.0672845 111.8561061  75.4003324
  53.4502015 111.1307889  75.3036377  53.5989333 112.6170421  75.0570398
  55.7226976 116.5659969  93.0609104  55.6639523 115.8819189  92.3939687
  56.1246495 117.3078959  92.6089730  44.7417675 123.3821883  85.8542823
  44.9814273 124.0140407  86.5321842  43.8986872 123.0309923  86.1408182
  45.8571391 106.0746485  74.5224628  44.9800857 105.9535286  74.1586875
  46.3329144 105.2832563  74.2703517  55.7244384 114.5299553  91.2923084
  54.8371162 114.1925475  91.4149483  56.2942935 113.7982584  91.5291849
  37.3773531 110.8623645  84.6166135  38.0644571 110.5485375  84.0287151
  37.2221660 111.7665009  84.3433387  42.1808253 105.7513841  89.0451159
  42.0966442 105.1439511  88.3101569  41.3590959 106.2422860  89.0460655
  49.2545537 119.1901005  88.2584327  49.1815709 119.9955977  88.7703632
  48.8122930 119.3892971  87.4332349  49.0435317 118.4272775  81.7687149
  48.2602839 118.9694456  81.8625373  49.7428062 118.9446755  82.1681390
  52.3531967 104.2367405  84.4121354  52.8500666 103.4837367  84.0922424
  51.5818948 104.2731721  83.8464563  60.2061724 109.9407770  86.0539646
  60.1951601 110.8232486  85.6833579  59.3379104 109.5879321  85.8594183
  51.7144221 119.0887839  90.4142486  52.4272193 119.7235304  90.3418387
  51.2234249 119.1851705  89.5982488  53.4361748 112.9939092  81.9859778
  52.5018026 113.1140555  81.8164482  53.6138416 112.0911559  81.7219787
  48.9366936 106.3784788  84.1393039  48.5664723 105.8255828  84.8273944
  49.4326028 105.7742921  83.5868039  56.8234299 108.8356411  82.5209812
  57.2894751 109.6684403  82.4470114  57.2741799 108.3701393  83.2255070
  46.7656134 116.8382283  91.2348057  47.4665594 117.4718766  91.3877451
  46.2951249 117.1797014  90.4743696  54.8910530 115.1800233  79.5195964
  55.1670374 115.0656827  80.4289838  54.0215029 114.7817717  79.4808137
  54.5657420 109.3926890  89.0600607  53.9128870 109.6402798  88.4053060
  54.9437800 108.5791028  88.7263084  51.5264594 119.4286583  83.1628777
  51.7086989 118.6108239  83.6256530  52.3497580 119.6454276  82.7253667
  51.8606760 118.3554769  80.4243826  52.3894526 117.8447223  79.8113988
  52.1234979 118.0397299  81.2889359  42.3623852 116.3718638  88.1679159
  42.9477289 115.6262326  88.3007064  42.1648691 116.6822595  89.0515823
  45.2162507 119.4069885  83.1841602  44.5472883 119.8916013  82.7005642
  45.0775377 119.6539106  84.0984980  36.9541507 108.9424238  86.8883602
  36.9925606 108.4087829  87.6820721  36.4481800 108.4159444  86.2694580
  49.3567776 121.4413629  89.7824260  49.9086084 121.6045250  90.5473345
  49.6973970 122.0318067  89.1104285  54.2078650 116.2674886  95.6372915
  54.7518554 116.8804845  95.1427869  53.6265495 116.8254465  96.1539928
  40.5850085 107.6688340  79.9637534  40.8803526 106.7599019  79.9104588
  39.6838120 107.6476080  79.6418536  52.4936163 119.3895604  86.7687942
  52.3687303 118.5885344  86.2598888  53.1515254 119.8841798  86.2801912
  44.1144332 105.7444337  85.9465082  43.3930917 106.3580305  85.8072556
  44.9037587 106.2802102  85.8681728  54.5571072 117.1904624  88.3967492
  53.6101407 117.0709976  88.3245819  54.9053845 116.3027122  88.4793754
  42.3137926 105.3502438  80.0876859  41.9850632 104.4699817  79.9051965
  42.6677297 105.2950107  80.9753248  51.5617505 116.9857341  84.5971845
  51.4142467 116.0574048  84.7779415  52.3870999 117.0077431  84.1128920
  45.4279749 105.6375408  80.4552337  45.7675822 106.1661329  79.7330945
  45.8751870 105.9755814  81.2310903  55.1651627 117.8085899  85.6836717
  56.0898174 117.6028761  85.5461168  54.9966930 117.5602301  86.5926059
  47.4147896 104.1350029  78.6545629  48.1356259 104.5131282  78.1509346
  46.7913201 104.8538906  78.7580607  51.5579019 104.8395178  79.5903962
  51.7742634 105.7219816  79.2892790  51.0773086 104.4481392  78.8609604
  46.2978241 107.7980891  86.1674706  46.1522821 108.1121195  87.0598988
  45.8203444 108.4165792  85.6145605  48.1574624 104.7883439  86.2155596
  48.1436192 103.8924533  85.8787894  48.8747052 104.7954103  86.8493882
  54.9546943 118.3271567  81.0398809  55.1283821 117.7617989  80.2872661
  55.4475834 119.1272462  80.8578299  40.7723903 110.3386236  89.1062368
  40.2277371 111.1146044  89.2382642  41.6503253 110.6857040  88.9481489
  47.5611520 103.6697820  81.4843166  47.6827431 102.7414466  81.6834054
  47.2713562 103.6836506  80.5721482  60.8086334 111.0907990  82.6589109
  61.2517480 110.3415315  82.2608232  59.9312845 111.0818126  82.2762840
  55.9422116 117.6438331  78.1395707  56.6373020 118.2645024  78.3583022
  56.2845266 116.7933682  78.4148085  41.5589925 109.4656132  91.9992524
  40.8171661 109.6138768  92.5857155  41.2382669 109.7264398  91.1359274
  57.8413539 115.0938037  79.6683038  58.3664863 115.4325310  78.9432358
  57.7535891 114.1585052  79.4846172  49.5033587 119.0072110  91.7972914
  49.8120714 118.7621257  92.6695614  50.3009069 119.2118749  91.3091785
  49.5254199 121.1610020  84.0278291  49.0859190 120.6686399  84.7211148
  50.2762316 120.6182988  83.7870366  42.0046538 117.3521561  84.0302919
  42.8304558 117.0525333  83.6501563  41.6540590 116.5829183  84.4792708
  46.9728072 116.7048029  86.1000593  46.3508081 116.0418734  85.8002821
  47.6432938 116.7309161  85.4174240  40.2055143 115.2707887  84.9891853
  39.3687052 114.8430062  84.8075854  40.1778789 115.4640331  85.9262644
  57.5307445 115.7270940  94.9734236  56.7402988 115.7095079  94.4338735
  57.2940799 116.2659234  95.7283272  57.6505320 112.5763407  92.2866964
  57.7003325 112.4113414  93.2282487  57.5419243 111.7090666  91.8964845
  46.5341578 115.2551952  79.5759053  46.6829699 115.9387417  78.9225726
  47.3408022 115.2357043  80.0908509  59.1523517 114.9960348  92.5308986
  58.8608325 115.3590329  93.3672447  58.5395648 114.2827357  92.3522318
  60.3519199 112.5613228  85.0511556  61.1866090 113.0003032  85.2149116
  60.4878328 112.0851881  84.2319802  57.4010705 110.1192963  90.9989044
  57.8764826 110.3120609  90.1907895  56.4776270 110.1752149  90.7532428
  44.2894211 111.2817130  80.5820122  44.0440253 110.3779460  80.7800332
  44.4590126 111.2834281  79.6399600  43.5589859 107.0145488  78.0806284
  42.8659104 107.0889843  77.4246320  43.3141611 106.2505831  78.6027801
  50.0336984 117.7500083  77.0470801  49.4610951 118.3690270  76.5941273
  50.6069778 118.2999445  77.5810723  56.1012374 106.9958723  89.2317349
  57.0529797 107.0956821  89.2529573  55.9315824 106.2036992  89.7415434
  54.1226753 104.0814306  89.4176750  53.5276685 104.3619319  88.7223239
  53.8376450 104.5708207  90.1893491  53.2534244 118.0337233  78.1779383
  54.1864917 117.9682795  78.3812258  53.1657457 118.8693500  77.7193916
  55.8822260 117.3503103  75.1383330  55.8035892 117.0162967  76.0319088
  56.7031927 117.8424871  75.1374803  58.5800452 110.2164843  88.3459649
  58.5476772 109.2780843  88.5319333  59.1901075 110.2948879  87.6125474
  50.4183783 109.0860896  74.3886853  51.3642887 108.9567104  74.4575271
  50.0398027 108.3475558  74.8656281  58.7294940 107.0075886  88.3917932
  58.2133989 106.2234343  88.2047861  59.6134889 106.6794603  88.5564452
  56.3905667 100.7516902  84.3513745  56.1930488 100.4431990  85.2357077
  57.0005373 101.4778541  84.4811675  64.3977001 111.2780850  87.4865686
  65.1280390 111.0166138  88.0473389  63.7883947 110.5409571  87.5267754
  62.4792299 109.4188712  88.0840137  61.7525462 109.2844677  87.4756629
  62.0639585 109.7265541  88.8896855  50.3022475 113.1378642  95.8487510
  51.2225485 113.3157241  96.0427557  50.2672058 112.1934687  95.6967209
  48.6026700 107.0110872  74.3241738  47.6958155 106.7143985  74.4004452
  48.8802681 106.7140690  73.4576025  39.5204640 108.3317235  84.7740785
  39.2007424 107.4782544  84.4815159  38.9738068 108.5465814  85.5298752
  50.2188765 101.5547762  80.4785980  49.4089494 101.2094847  80.8541226
  50.9073182 101.2455305  81.0673591  47.3725484 103.8697807  74.4653718
  48.2344648 104.1952706  74.7249535  47.5575828 103.0829303  73.9526783
  39.3892900 111.9520147  86.7433906  38.6956371 111.5374100  86.2303861
  40.1365891 111.9940683  86.1467325  55.5258121 102.7426334  81.6088941
  54.9456790 103.4011138  81.2266993  55.2594053 101.9203678  81.1976358
  41.3029643 111.8838401  84.6199921  41.2800331 111.9826088  83.6681804
  41.6130279 112.7303552  84.9417087  43.9617020 113.9414556  88.7346536
  44.9160274 113.9098498  88.6676467  43.7629544 113.4805179  89.5496762
  54.3082999 104.9026424  80.6645289  53.4208854 105.1876075  80.4465484
  54.7236988 104.7420187  79.8172566  57.6597535 104.9272945  84.3799628
  58.4357925 105.4169398  84.6524245  56.9345669 105.3530999  84.8371498
  60.0970094 105.6400564  85.4373569  60.6914584 105.3996300  84.7266877
  60.1696677 104.9207695  86.0647105  42.3167249 119.4834175  85.7516734
  42.1821717 118.7234576  85.1854732  41.8999312 120.2075075  85.2845522
  53.4526212 114.6671099  74.7593309  54.1562062 114.8721101  75.3750964
  52.7288861 115.2347861  75.0242392  54.2824023 110.4180960  80.8795579
  54.2259224 110.8749511  80.0403211  54.8352365 109.6571645  80.7018422
  58.0928828 106.2070692  81.7045698  57.8365763 105.8067328  82.5353906
  57.4681696 106.9214486  81.5795838  62.4041166 108.9466765  84.2116990
  61.8440724 109.0159954  84.9848552  61.7984670 108.7707750  83.4916486
  45.4736375 120.3803492  85.9635176  45.3568759 121.3248925  85.8613866
  44.6528821 120.0777054  86.3520975  55.3612910 115.1053628  76.8091769
  56.1958514 114.6734826  76.6269244  55.1997253 114.9335642  77.7368663
  55.0158802 111.6085741  78.1748108  54.9607606 111.4430013  77.2336552
  54.3904857 112.3161774  78.3310298  39.8051317 106.8453806  92.0009530
  40.4510180 106.3352760  92.4896756  39.5968468 107.5822487  92.5752956
  52.3304709 113.9134653  97.5001671  53.1995869 114.0875305  97.1388306
  51.8511460 114.7329070  97.3777400  48.3254927 101.1093850  77.7533427
  48.3133597 102.0535690  77.9101697  49.2178349 100.9263996  77.4592888
  46.4990889 121.0331754  89.1791105  47.4018136 121.0655364  89.4957600
  46.2728259 120.1032205  89.1937440  48.2544491 119.7862741  85.8401183
  47.3040122 119.7864602  85.7265555  48.5576977 119.0395475  85.3237218
  63.9897185 125.6223279  86.9046946  64.6275595 125.5030026  86.2010286
  63.8718028 126.5704123  86.9634898  60.7986891 125.5750707  86.8408470
  60.4605403 125.4591772  85.9529005  61.6676659 125.1741872  86.8209476
  56.6573707 127.4286184  82.8305361  56.0938572 127.3376121  82.0621649
  56.5426102 126.6086088  83.3107854  61.2806674 126.7285559  92.7994676
  61.2695315 126.3338357  91.9275179  61.4427313 125.9951632  93.3928447
  54.2038139 128.9237375  85.6689582  54.9959431 128.5828200  85.2535881
  54.4434789 129.0332350  86.5891735  62.2373265 131.0957151  78.1419826
  61.5861245 131.6811232  77.7553840  63.0317628 131.6263346  78.2014864
  56.1628893 128.1846288  78.5406960  56.9359769 127.6375276  78.4019836
  56.5154291 129.0490538  78.7521422  58.0013935 129.5122671  91.7473860
  57.7103801 130.4168302  91.6320526  58.6370920 129.5539198  92.4617929
  58.9270142 126.8899519  88.3375219  59.5233714 126.6655542  87.6232182
  58.9845114 126.1484265  88.9400667  58.4995170 124.3438955  76.1725410
  58.7520691 123.8220476  75.4108873  57.5619730 124.1805100  76.2752094
  63.5438453 123.3474733  83.9800154  64.3301542 122.9294156  83.6290571
  63.8077158 124.2520825  84.1481802  63.7148531 128.7847583  78.6788810
  63.0794364 128.8582210  79.3909715  63.3845937 129.3741182  78.0007890
  68.9446880 123.2849966  84.8833132  69.6772052 122.7149183  85.1170962
  68.1886236 122.8971567  85.3239638  58.2191459 126.2467061  78.3749785
  58.1027717 125.5711964  79.0430870  58.3293719 125.7599434  77.5581938
  60.5623000 125.7077208  82.0796475  60.1981207 125.1807829  82.7909396
  61.4190116 125.3175677  81.9062960  66.4672301 116.9971540  89.3427741
  66.1355625 117.8666951  89.1188956  65.8717914 116.6807824  90.0221771
  60.2028487 120.7367107  77.0757823  60.3702889 121.6047344  77.4428294
  60.0125656 120.8994389  76.1519112  62.9603820 129.1984086  88.7423653
  62.6604543 130.1009125  88.6339461  62.6154880 128.9316269  89.5944806
  56.4116302 125.6497883  84.7760358  55.4866798 125.5174097  84.9838050
  56.6600715 126.4292102  85.2730300  66.3600964 121.7166626  86.4221091
  65.4517841 121.6482035  86.1279852  66.3088560 122.1938571  87.2502916
  60.1817708 123.1924765  78.0604490  60.0617333 123.6381816  78.8989970
  59.4870296 123.5410083  77.5018028  53.7725113 125.2931157  85.6104147
  53.9017494 125.5465636  86.5243559  53.0922564 125.8858865  85.2908802
  57.9424600 135.9628407  81.7094621  57.8648630 136.9136232  81.7883102
  57.3386244 135.6174279  82.3669547  60.4341830 123.1356272  94.3655988
  59.6575164 123.6950192  94.3558853  61.0732393 123.6213055  94.8870858
  68.2262610 119.9183065  88.1998965  67.5836991 120.2115598  87.5538759
  67.7217539 119.8035985  89.0052161  65.8802774 123.6646238  78.8884824
  66.7920630 123.8973625  78.7132522  65.3712421 124.2483282  78.3259903
  58.6888202 125.9441725  93.9273955  59.4302886 126.4826769  93.6508779
  57.9825188 126.5708014  94.0845507  64.1643542 128.0870866  92.5246117
  64.5726898 127.6453276  91.7800749  63.4420803 127.5123493  92.7780309
  60.5174612 123.0243473  89.8979674  61.3635807 123.4482886  90.0414323
  60.4573249 122.3677097  90.5918237  64.4872356 128.6472056  86.2798405
  63.8581219 128.8117771  85.5774473  64.0998018 129.0613666  87.0509369
  68.3661588 129.5826494  83.6342769  67.6812626 129.9625396  83.0839803
  68.4505438 130.1921821  84.3674717  63.6674057 120.6847841  91.5560847
  63.4234989 121.4389901  91.0195123  63.9433988 121.0633189  92.3908094
  65.6212520 127.2286453  90.2338113  65.8329415 127.8718213  89.5572494
  65.5742268 126.3948770  89.7660043  63.2238749 119.8404274  87.1374685
  62.3623228 120.1385528  87.4291422  63.2501184 120.0574673  86.2055718
  60.0400318 128.3846465  83.5448491  60.5038664 128.6634168  82.7553113
  59.7757116 127.4829909  83.3621581  56.9324399 127.9317946  86.4828254
  57.5025756 128.3605214  85.8445738  57.5232511 127.6500531  87.1812439
  58.9769204 124.5069617  80.3538056  59.6793248 124.9590661  80.8211982
  58.6449833 123.8653436  80.9817949  57.4249566 123.0981374  94.7289265
  56.7948226 123.7797654  94.9624662  57.3185654 122.9864455  93.7842403
  52.7194538 122.7653170  85.6555189  51.9293592 123.0210698  85.1795300
  53.2105786 123.5801507  85.7607230  66.7358348 130.1058409  88.4060470
  67.5575792 129.7038596  88.1243152  66.7320751 130.0026643  89.3576586
  54.6709284 123.1297749  82.6138666  53.8740447 123.2416443  83.1322162
  54.4434876 123.4684401  81.7479556  60.5014951 129.6542452  90.5621181
  60.5659384 130.1162859  91.3979352  59.7925875 129.0239817  90.6903490
  51.0032241 123.0183660  88.0870180  51.2540280 123.9030670  88.3527756
  51.5391790 122.8388262  87.3145272  74.8264341 126.4497157  84.7545442
  74.0728049 125.8804555  84.5989446  74.9611882 126.4159822  85.7016076
  60.2162969 131.3210560  80.4300161  60.0808644 132.1662095  80.8585009
  60.7572781 131.5229837  79.6666095  53.6692366 128.8385998  81.0028086
  54.1816887 129.6329248  81.1533651  54.3215079 128.1412288  80.9361687
  55.4787251 131.9551754  83.0850839  55.6553879 132.8769719  82.8971823
  56.2744085 131.6410173  83.5145219  59.6198270 118.8160018  94.6834773
  60.3607983 119.4167172  94.6039235  59.8516192 118.0737656  94.1252815
  54.7639608 124.0016386  92.9613002  54.6493123 123.1001643  93.2620101
  53.9084125 124.2480083  92.6097819  61.8431445 131.9434126  94.5600503
  61.3995300 131.1570505  94.2421407  62.5048659 132.1313277  93.8944394
  56.6018567 133.4729928  89.0861182  57.1525992 133.3446991  88.3138175
  55.7630042 133.7724817  88.7356074  63.9412683 132.2236926  92.5881904
  63.9231159 133.0445807  92.0962173  64.8632603 132.0991001  92.8132045
  60.3985738 129.7381055  93.4305413  60.9314074 128.9769344  93.2004721
  59.8699819 129.4454707  94.1729567  63.5655433 114.8441121  88.9599054
  63.2219702 115.7342763  88.8838165  63.9334395 114.6542779  88.0968639
  51.6341283 127.1674652  81.7787657  52.4716505 127.5771660  81.5621364
  51.8119551 126.2274094  81.7487850  63.5305715 124.8349733  77.4671489
  63.0152339 125.6054337  77.7059877  63.2583024 124.1614869  78.0904551
  61.1152826 119.6799433  82.5256728  60.2594423 119.2906284  82.3462367
  61.5279778 119.7591394  81.6656513  62.6451973 117.2145777  86.9248288
  62.1416769 117.1775912  86.1116093  62.9382580 118.1238519  86.9844944
  58.8894859 117.2984506  85.9314469  59.7547856 117.1027315  85.5720359
  58.9572368 117.0694858  86.8583826  68.5039989 127.5882087  79.4024663
  67.7269432 127.2493247  78.9579825  69.1831470 127.5934710  78.7279628
  63.3192018 122.7076825  79.2931271  63.0142154 123.0222974  80.1441414
  64.2722461 122.7858245  79.3358604  61.7638450 128.8667048  80.9424225
  61.2359812 128.1319808  80.6297462  61.2625953 129.6441724  80.6964193
  66.7431296 127.0616068  86.0591271  66.0854971 127.7515330  86.1471400
  67.5471695 127.4512500  86.4025257  56.4957178 119.5286714  83.3030836
  57.0700930 119.3061896  82.5704029  57.0828160 119.5975409  84.0559437
  65.5536755 125.4160441  84.1095213  66.0668637 126.0490433  84.6116922
  66.2037979 124.8161637  83.7438573  56.8226765 121.5591175  77.3226721
  55.9864077 121.8965862  77.6435996  56.6831535 121.4240155  76.3853858
  58.7979846 116.4027963  82.0305906  58.1444258 116.0876980  81.4062520
  58.7560320 115.7803704  82.7565729  59.9091050 126.6847258  73.9459198
  59.0018112 126.4536512  74.1450347  60.4062082 125.8884877  74.1333179
  62.8159129 135.3944765  76.8655884  62.1420828 135.6976462  77.4740842
  63.2024951 136.1973846  76.5161341  62.0317586 122.8909897  86.3553553
  61.1140147 123.1124844  86.1975241  62.4477730 122.9656207  85.4965261
  62.8152634 124.2901312  81.4856233  63.5624453 124.8022710  81.1763356
  63.0844223 123.9685365  82.3460627  61.0879284 126.7859853  78.4683188
  60.1790503 126.5018886  78.5655658  61.1174368 127.2058932  77.6086495
  66.3198551 130.3966443  82.2374355  65.8660878 129.5557352  82.2939546
  65.6892518 131.0327841  82.5749135  65.2631471 121.3258429  83.4675023
  64.5254228 120.8135815  83.7985265  65.5158244 120.8858810  82.6558300
  64.7631491 132.2342939  83.1724173  65.0554465 132.7947996  82.4536539
  65.2730111 132.5271500  83.9277333  65.3643098 114.1034681  84.0616792
  65.6701975 113.2432044  83.7742707  66.0895703 114.6952301  83.8615786
  51.6567454 124.5065367  82.4498390  51.4591854 123.9134728  81.7249457
  51.1014118 124.2017577  83.1674329  59.6364178 124.3988474  84.5692983
  59.6912788 123.4462310  84.4935460  58.8255380 124.5547913  85.0534282
  60.7855372 128.3268597  75.8071266  60.3474802 127.6104456  75.3476904
  61.5265813 128.5544712  75.2456358  57.5756538 123.0165533  82.3283362
  56.7624403 123.3159704  82.7348554  58.0715532 122.6221222  83.0457844
  59.7265116 133.0123290  84.2617627  59.6841295 133.2384137  83.3326159
  60.6427815 132.7786665  84.4103428  63.1730750 123.4807358  91.1598256
  63.5280137 123.7078831  92.0192722  63.8202881 123.8125735  90.5375511
  68.9028486 126.6025794  81.8647585  68.7646385 126.7927390  80.9368774
  68.5464705 127.3645177  82.3215636  57.0670613 120.5883889  87.9444597
  57.7069992 120.4472648  87.2467560  56.2348143 120.3018402  87.5683199
  68.9297866 128.6702321  86.8758856  69.3634373 128.5777610  87.7241910
  69.6429447 128.6459821  86.2378872  57.8430917 129.8886319  84.0579589
  58.6371515 129.3936639  83.8562164  57.1322609 129.3604182  83.6947295
  62.6625761 132.2704415  88.4091957  62.7162783 132.8395351  89.1769673
  61.7940542 132.4406300  88.0445994  54.1513680 124.0329401  80.1339342
  53.2211268 123.9713857  80.3509304  54.2471152 123.5105354  79.3375983
  54.0699229 120.5584214  82.7217584  54.3306046 121.4729547  82.6126744
  54.8916401 120.0908656  82.8714197  55.5424154 121.9721971  89.8916408
  56.2147208 121.7639333  89.2429057  54.7153941 121.7744057  89.4521641
  69.7913416 128.7126021  89.4091742  69.9849306 129.6171832  89.6551017
  69.6914034 128.2533441  90.2430327  61.4449726 118.5983912  91.9082069
  60.7977641 119.2973862  91.8146546  62.2150742 119.0320056  92.2758317
  64.8528524 128.8632764  94.9832622  64.7014031 128.6343316  94.0662706
  64.8433204 129.8203366  94.9963967  61.6213861 126.4364677  89.9678889
  62.5505921 126.5875837  89.7947856  61.2004891 126.5248698  89.1127535
  60.4202193 130.4615341  87.7377426  60.2813278 130.0934126  88.6103365
  59.6316789 130.9762981  87.5661384  61.0150344 135.5624438  79.0802963
  61.1902100 135.0912481  79.8948586  60.3283133 136.1890204  79.3084224
  61.9707408 129.8396944  85.1266264  61.6357240 129.7997714  86.0223914
  61.4711353 129.1741660  84.6536675  55.9451652 125.2464574  90.6518845
  55.8071450 124.5144813  91.2530384  56.8556575 125.1573474  90.3703033
  64.9066599 127.1852978  75.4003324  64.2895770 126.4599807  75.3036377
  64.4383088 127.9462339  75.0570398  58.5733952 124.9584533  90.1402525
  59.2833571 124.3177726  90.0989144  58.5303260 125.2097428  91.0628706
  66.5620731 131.8951887  93.0609104  66.5033277 131.2111107  92.3939687
  66.9640249 132.6370877  92.6089730  57.2862886 121.9449751  91.9598165
  56.7500243 121.4940490  92.6119761  56.6979595 122.0795660  91.2168629
  55.5811430 138.7113801  85.8542823  55.8208028 139.3432325  86.5321842
  54.7380626 138.3601841  86.1408182  56.6965145 121.4038403  74.5224628
  55.8194612 121.2827203  74.1586875  57.1722898 120.6124481  74.2703517
  66.5638138 129.8591471  91.2923084  65.6764917 129.5217392  91.4149483
  67.1336689 129.1274502  91.5291849  48.2167285 126.1915562  84.6166135
  48.9038325 125.8777292  84.0287151  48.0615414 127.0956927  84.3433387
  53.0202007 121.0805759  89.0451159  52.9360196 120.4731429  88.3101569
  52.1984714 121.5714777  89.0460655  60.0939292 134.5192923  88.2584327
  60.0209463 135.3247895  88.7703632  59.6516685 134.7184889  87.4332349
  59.8829071 133.7564693  81.7687149  59.0996593 134.2986373  81.8625373
  60.5821816 134.2738673  82.1681390  63.1925721 119.5659323  84.4121354
  63.6894421 118.8129285  84.0922424  62.4212703 119.6023639  83.8464563
  71.0455479 125.2699688  86.0539646  71.0345355 126.1524403  85.6833579
  70.1772858 124.9171239  85.8594183  62.5537975 134.4179757  90.4142486
  63.2665947 135.0527222  90.3418387  62.0628004 134.5143623  89.5982488
  64.2755502 128.3231010  81.9859778  63.3411781 128.4432472  81.8164482
  64.4532171 127.4203477  81.7219787  59.7760690 121.7076706  84.1393039
  59.4058478 121.1547746  84.8273944  60.2719783 121.1034839  83.5868039
  67.6628053 124.1648329  82.5209812  68.1288506 124.9976321  82.4470114
  68.1135554 123.6993311  83.2255070  57.6049889 132.1674201  91.2348057
  58.3059348 132.8010683  91.3877451  57.1345004 132.5088932  90.4743696
  65.7304285 130.5092150  79.5195964  66.0064128 130.3948745  80.4289838
  64.8608783 130.1109635  79.4808137  65.6344716 116.5328916  86.5600713
  64.7207796 116.7633143  86.7282920  66.0637818 116.6167360  87.4114745
  65.4051175 124.7218808  89.0600607  64.7522625 124.9694715  88.4053060
  65.7831555 123.9082946  88.7263084  62.3658349 134.7578501  83.1628777
  62.5480743 133.9400157  83.6256530  63.1891335 134.9746193  82.7253667
  62.7000514 133.6846686  80.4243826  63.2288280 133.1739141  79.8113988
  62.9628734 133.3689216  81.2889359  61.4538748 125.4638619  95.5466644
  60.7779385 125.3632748  96.2169019  62.2766382 125.3077833  96.0102641
  53.2017607 131.7010556  88.1679159  53.7871044 130.9554243  88.3007064
  53.0042445 132.0114512  89.0515823  56.0556262 134.7361803  83.1841602
  55.3866637 135.2207931  82.7005642  55.9169132 134.9831023  84.0984980
  47.7935261 124.2716156  86.8883602  47.8319361 123.7379746  87.6820721
  47.2875554 123.7451361  86.2694580  60.1961531 136.7705546  89.7824260
  60.7479839 136.9337168  90.5473345  60.5367724 137.3609984  89.1104285
  55.1726024 119.1180696  90.3846145  55.2367350 119.9795527  89.9723542
  55.1093144 118.5054698  89.6518503  54.6478296 121.1903829  94.0319179
  55.2750335 120.8080906  94.6456703  53.7906215 120.9718031  94.3974872
  65.0472405 131.5966804  95.6372915  65.5912309 132.2096762  95.1427869
  64.4659250 132.1546382  96.1539928  51.4243839 122.9980258  79.9637534
  51.7197280 122.0890936  79.9104588  50.5231875 122.9767997  79.6418536
  63.3329918 134.7187522  86.7687942  63.2081057 133.9177262  86.2598888
  63.9909009 135.2133715  86.2801912  54.9538086 121.0736254  85.9465082
  54.2324672 121.6872222  85.8072556  55.7431342 121.6094019  85.8681728
  65.3964826 132.5196542  88.3967492  64.4495162 132.4001893  88.3245819
  65.7447599 131.6319040  88.4793754  57.7564400 118.4090681  92.2205734
  58.2798801 118.6552978  92.9832044  57.5376733 119.2410716  91.8008872
  53.1531681 120.6794356  80.0876859  52.8244387 119.7991735  79.9051965
  53.5071051 120.6242024  80.9753248  62.4011260 132.3149258  84.5971845
  62.2536222 131.3865966  84.7779415  63.2264753 132.3369349  84.1128920
  56.2673504 120.9667325  80.4552337  56.6069576 121.4953247  79.7330945
  56.7145624 121.3047732  81.2310903  66.0045381 133.1377817  85.6836717
  66.9291929 132.9320678  85.5461168  65.8360685 132.8894218  86.5926059
  58.9616945 119.3504376  89.9055405  58.6213765 118.5512189  90.3076085
  58.2555951 119.6506087  89.3332238  59.6133416 116.4353689  88.3582728
  60.4359486 115.9614167  88.2361618  59.8571480 117.2144172  88.8581414
  58.2541651 119.4641947  78.6545629  58.9750013 119.8423200  78.1509346
  57.6306955 120.1830824  78.7580607  62.3972774 120.1687096  79.5903962
  62.6136388 121.0511734  79.2892790  61.9166841 119.7773309  78.8609604
  57.1371995 123.1272809  86.1674706  56.9916576 123.4413112  87.0598988
  56.6597199 123.7457710  85.6145605  58.9968378 120.1175357  86.2155596
  58.9829947 119.2216450  85.8787894  59.7140806 120.1246021  86.8493882
  60.8494509 120.5512697  88.2608723  60.5912287 121.4729768  88.2593054
  60.3179549 120.1543132  88.9509188  65.7940698 133.6563484  81.0398809
  65.9677575 133.0909907  80.2872661  66.2869589 134.4564379  80.8578299
  51.6117657 125.6678154  89.1062368  51.0671125 126.4437962  89.2382642
  52.4897007 126.0148958  88.9481489  58.4005274 118.9989737  81.4843166
  58.5221185 118.0706384  81.6834054  58.1107316 119.0128423  80.5721482
  61.2696464 116.6844648  84.6209886  61.2918161 116.7483981  83.6661865
  61.6864523 115.8449157  84.8150392  71.6480089 126.4199907  82.6589109
  72.0911235 125.6707233  82.2608232  70.7706599 126.4110044  82.2762840
  66.7815870 132.9730249  78.1395707  67.4766775 133.5936942  78.3583022
  67.1239020 132.1225600  78.4148085  52.3983679 124.7948050  91.9992524
  51.6565415 124.9430685  92.5857155  52.0776424 125.0556315  91.1359274
  68.6807293 130.4229954  79.6683038  69.2058617 130.7617227  78.9432358
  68.5929646 129.4876970  79.4846172  60.3427342 134.3364028  91.7972914
  60.6514468 134.0913175  92.6695614  61.1402824 134.5410667  91.3091785
  60.3647954 136.4901938  84.0278291  59.9252944 135.9978316  84.7211148
  61.1156071 135.9474905  83.7870366  52.8440293 132.6813479  84.0302919
  53.6698313 132.3817250  83.6501563  52.4934345 131.9121101  84.4792708
  57.8121826 132.0339947  86.1000593  57.1901835 131.3710652  85.8002821
  58.4826693 132.0601079  85.4174240  51.0448898 130.5999805  84.9891853
  50.2080806 130.1721979  84.8075854  51.0172543 130.7932248  85.9262644
  57.8846354 120.5121735  95.6933099  57.9334509 121.3883858  95.3110868
  58.4268868 119.9699128  95.1204742  68.3701199 131.0562858  94.9734236
  67.5796743 131.0386997  94.4338735  68.1334554 131.5951152  95.7283272
  68.4899074 127.9055324  92.2866964  68.5397079 127.7405332  93.2282487
  68.3812998 127.0382583  91.8964845  57.3735333 130.5843870  79.5759053
  57.5223453 131.2679335  78.9225726  58.1801776 130.5648960  80.0908509
  65.7802837 123.8886252  93.6026271  66.6812699 123.7492717  93.3110269
  65.8550811 124.0540707  94.5424448  60.1145642 121.2653107  92.4479457
  59.2448951 121.5586673  92.1762046  60.3505122 121.8493552  93.1686721
  69.9917271 130.3252266  92.5308986  69.7002079 130.6882246  93.3672447
  69.3789402 129.6119274  92.3522318  71.1912953 127.8905146  85.0511556
  72.0259845 128.3294950  85.2149116  71.3272082 127.4143799  84.2319802
  68.2404459 125.4484881  90.9989044  68.7158581 125.6412527  90.1907895
  67.3170025 125.5044066  90.7532428  55.1287966 126.6109048  80.5820122
  54.8834008 125.7071378  80.7800332  55.2983880 126.6126198  79.6399600
  62.8184676 117.4832724  89.9644878  63.3366620 118.2193751  89.6391366
  62.4639809 117.7896717  90.7991637  54.3983613 122.3437405  78.0806284
  53.7052858 122.4181760  77.4246320  54.1535365 121.5797749  78.6027801
  63.0697270 113.9033007  85.4845774  63.3499024 113.2356196  86.1106201
  63.8547877 114.0962102  84.9720438  60.8730738 133.0792001  77.0470801
  60.3004706 133.6982188  76.5941273  61.4463532 133.6291362  77.5810723
  66.9406128 122.3250641  89.2317349  67.8923551 122.4248738  89.2529573
  66.7709579 121.5328909  89.7415434  64.9620508 119.4106224  89.4176750
  64.3670440 119.6911237  88.7223239  64.6770205 119.9000125  90.1893491
  64.0927998 133.3629151  78.1779383  65.0258671 133.2974712  78.3812258
  64.0051211 134.1985418  77.7193916  66.7216015 132.6795021  75.1383330
  66.6429646 132.3454885  76.0319088  67.5425682 133.1716789  75.1374803
  69.4194206 125.5456760  88.3459649  69.3870526 124.6072761  88.5319333
  70.0294830 125.6240797  87.6125474  61.2577537 124.4152813  74.3886853
  62.2036642 124.2859021  74.4575271  60.8791782 123.6767475  74.8656281
  69.5688695 122.3367804  88.3917932  69.0527743 121.5526260  88.2047861
  70.4528643 122.0086520  88.5564452  67.2299422 116.0808819  84.3513745
  67.0324243 115.7723908  85.2357077  67.8399127 116.8070458  84.4811675
  75.2370756 126.6072767  87.4865686  75.9674144 126.3458055  88.0473389
  74.6277701 125.8701489  87.5267754  73.3186053 124.7480630  88.0840137
  72.5919217 124.6136595  87.4756629  72.9033340 125.0557458  88.8896855
  61.1416230 128.4670559  95.8487510  62.0619239 128.6449158  96.0427557
  61.1065813 127.5226605  95.6967209  59.4420454 122.3402790  74.3241738
  58.5351910 122.0435902  74.4004452  59.7196435 122.0432608  73.4576025
  50.3598395 123.6609153  84.7740785  50.0401179 122.8074461  84.4815159
  49.8131823 123.8757731  85.5298752  54.1378302 126.3771594  88.4910291
  54.3564312 127.3088702  88.5098325  54.5504076 126.0179569  89.2765095
  61.0582520 116.8839679  80.4785980  60.2483248 116.5386764  80.8541226
  61.7466937 116.5747223  81.0673591  62.9873068 115.9617726  82.1010276
  63.5404107 116.3813180  82.7600299  63.2243155 115.0353474  82.1433232
  59.0106167 121.9504800  97.8813040  58.9102894 122.8999157  97.8125131
  58.7927709 121.6223039  97.0089110  58.2119239 119.1989725  74.4653718
  59.0738403 119.5244623  74.7249535  58.3969583 118.4121221  73.9526783
  50.2286655 127.2812065  86.7433906  49.5350126 126.8666017  86.2303861
  50.9759646 127.3232601  86.1467325  66.3651875 118.0718251  81.6088941
  65.7850544 118.7303055  81.2266993  66.0987808 117.2495596  81.1976358
  64.8155442 117.4723309  83.8110261  65.3155220 117.5839844  83.0024580
  65.4591050 117.1684362  84.4511069  58.8737437 125.3801939  96.6978102
  58.3904519 126.1802299  96.9041991  58.9598376 125.3909884  95.7445546
  52.1423397 127.2130318  84.6199921  52.1194085 127.3118006  83.6681804
  52.4524034 128.0595469  84.9417087  54.8010775 129.2706473  88.7346536
  55.7554028 129.2390416  88.6676467  54.6023299 128.8097097  89.5496762
  55.3910157 127.8407589  91.3017333  56.2103046 128.3351668  91.3252171
  55.6646965 126.9239558  91.2734901  65.1476753 120.2318342  80.6645289
  64.2602608 120.5167992  80.4465484  65.5630742 120.0712105  79.8172566
  68.4991289 120.2564863  84.3799628  69.2751680 120.7461315  84.6524245
  67.7739424 120.6822917  84.8371498  70.9363848 120.9692482  85.4373569
  71.5308339 120.7288218  84.7266877  71.0090432 120.2499613  86.0647105
  53.1561004 134.8126093  85.7516734  53.0215472 134.0526494  85.1854732
  52.7393066 135.5366993  85.2845522  64.2919967 129.9963016  74.7593309
  64.9955817 130.2013019  75.3750964  63.5682616 130.5639778  75.0242392
  65.1217777 125.7472878  80.8795579  65.0652978 126.2041429  80.0403211
  65.6746119 124.9863562  80.7018422  68.9322583 121.5362610  81.7045698
  68.6759517 121.1359245  82.5353906  68.3075451 122.2506404  81.5795838
  73.2434921 124.2758683  84.2116990  72.6834479 124.3451872  84.9848552
  72.6378424 124.0999667  83.4916486  56.3130130 135.7095410  85.9635176
  56.1962514 136.6540842  85.8613866  55.4922576 135.4068971  86.3520975
  66.2006664 130.4345546  76.8091769  67.0352268 130.0026744  76.6269244
  66.0391007 130.2627559  77.7368663  65.8552556 126.9377659  78.1748108
  65.8001360 126.7721930  77.2336552  65.2298612 127.6453692  78.3310298
  50.6445071 122.1745723  92.0009530  51.2903935 121.6644677  92.4896756
  50.4362222 122.9114405  92.5752956  63.1698464 129.2426571  97.5001671
  64.0389623 129.4167223  97.1388306  62.6905215 130.0620988  97.3777400
  59.1648682 116.4385768  77.7533427  59.1527352 117.3827608  77.9101697
  60.0572104 116.2555913  77.4592888  57.3384644 136.3623672  89.1791105
  58.2411890 136.3947282  89.4957600  57.1122014 135.4324123  89.1937440
  59.0938246 135.1154658  85.8401183  58.1433877 135.1156520  85.7265555
  59.3970732 134.3687393  85.3237218  62.9800801 113.0328545  82.0079363
  62.2133197 112.4787031  82.1536046  63.3911506 113.1050413  82.8693515
  54.9842562 119.3213340  96.0984545  55.8474024 118.9650145  96.3087869
  54.4107973 118.9827235  96.7859949  74.8290939 140.9515197  86.9046946
  75.4669349 140.8321944  86.2010286  74.7111782 141.8996041  86.9634898
  71.6380646 140.9042625  86.8408470  71.2999157 140.7883690  85.9529005
  72.5070414 140.5033790  86.8209476  67.4967461 142.7578101  82.8305361
  66.9332326 142.6668038  82.0621649  67.3819856 141.9378006  83.3107854
  72.1200429 142.0577477  92.7994676  72.1089069 141.6630275  91.9275179
  72.2821068 141.3243549  93.3928447  65.0431893 144.2529293  85.6689582
  65.8353185 143.9120118  85.2535881  65.2828543 144.3624268  86.5891735
  73.0767020 146.4249069  78.1419826  72.4255000 147.0103149  77.7553840
  73.8711383 146.9555264  78.2014864  67.0022647 143.5138206  78.5406960
  67.7753523 142.9667193  78.4019836  67.3548046 144.3782455  78.7521422
  68.8407690 144.8414588  91.7473860  68.5497556 145.7460219  91.6320526
  69.4764674 144.8831116  92.4617929  69.7663897 142.2191437  88.3375219
  70.3627469 141.9947459  87.6232182  69.8238868 141.4776182  88.9400667
  69.3388925 139.6730872  76.1725410  69.5914446 139.1512394  75.4108873
  68.4013484 139.5097018  76.2752094  74.3832208 138.6766651  83.9800154
  75.1695297 138.2586074  83.6290571  74.6470912 139.5812743  84.1481802
  74.5542285 144.1139501  78.6788810  73.9188118 144.1874127  79.3909715
  74.2239691 144.7033100  78.0007890  79.7840635 138.6141884  84.8833132
  80.5165807 138.0441101  85.1170962  79.0279991 138.2263484  85.3239638
  69.0585214 141.5758978  78.3749785  68.9421472 140.9003882  79.0430870
  69.1687474 141.0891352  77.5581938  71.4016755 141.0369125  82.0796475
  71.0374962 140.5099746  82.7909396  72.2583870 140.6467594  81.9062960
  77.3066055 132.3263458  89.3427741  76.9749380 133.1958869  89.1188956
  76.7111669 132.0099742  90.0221771  71.0422242 136.0659025  77.0757823
  71.2096644 136.9339261  77.4428294  70.8519411 136.2286307  76.1519112
  73.7997575 144.5276004  88.7423653  73.4998298 145.4301043  88.6339461
  73.4548634 144.2608187  89.5944806  67.2510056 140.9789801  84.7760358
  66.3260553 140.8466015  84.9838050  67.4994469 141.7584020  85.2730300
  77.1994719 137.0458544  86.4221091  76.2911596 136.9773953  86.1279852
  77.1482314 137.5230489  87.2502916  71.0211462 138.5216682  78.0604490
  70.9011088 138.9673733  78.8989970  70.3264051 138.8702000  77.5018028
  64.6118867 140.6223074  85.6104147  64.7411248 140.8757553  86.5243559
  63.9316319 141.2150782  85.2908802  71.2735584 138.4648190  94.3655988
  70.4968918 139.0242110  94.3558853  71.9126147 138.9504973  94.8870858
  79.0656365 135.2474982  88.1998965  78.4230745 135.5407516  87.5538759
  78.5611293 135.1327903  89.0052161  76.7196529 138.9938156  78.8884824
  77.6314385 139.2265542  78.7132522  76.2106176 139.5775200  78.3259903
  69.5281957 141.2733643  93.9273955  70.2696641 141.8118687  93.6508779
  68.8218942 141.8999932  94.0845507  75.0037296 143.4162784  92.5246117
  75.4120652 142.9745194  91.7800749  74.2814558 142.8415411  92.7780309
  71.3568366 138.3535390  89.8979674  72.2029561 138.7774804  90.0414323
  71.2967004 137.6969015  90.5918237  75.3266111 143.9763974  86.2798405
  74.6974973 144.1409688  85.5774473  74.9391773 144.3905584  87.0509369
  79.2055343 144.9118412  83.6342769  78.5206381 145.2917313  83.0839803
  79.2899192 145.5213739  84.3674717  74.5067812 136.0139759  91.5560847
  74.2628744 136.7681819  91.0195123  74.7827742 136.3925106  92.3908094
  76.4606274 142.5578371  90.2338113  76.6723170 143.2010131  89.5572494
  76.4136023 141.7240688  89.7660043  74.0632503 135.1696192  87.1374685
  73.2016982 135.4677445  87.4291422  74.0894938 135.3866591  86.2055718
  70.8794073 143.7138382  83.5448491  71.3432418 143.9926085  82.7553113
  70.6150871 142.8121827  83.3621581  67.7718154 143.2609864  86.4828254
  68.3419511 143.6897132  85.8445738  68.3626266 142.9792448  87.1812439
  69.8162959 139.8361535  80.3538056  70.5187002 140.2882578  80.8211982
  69.4843587 139.1945353  80.9817949  68.2643320 138.4273291  94.7289265
  67.6341981 139.1089572  94.9624662  68.1579408 138.3156373  93.7842403
  63.5588293 138.0945087  85.6555189  62.7687347 138.3502616  85.1795300
  64.0499540 138.9093425  85.7607230  77.5752102 145.4350326  88.4060470
  78.3969546 145.0330514  88.1243152  77.5714505 145.3318561  89.3576586
  65.5103038 138.4589667  82.6138666  64.7134201 138.5708361  83.1322162
  65.2828630 138.7976319  81.7479556  71.3408706 144.9834370  90.5621181
  71.4053138 145.4454777  91.3979352  70.6319630 144.3531735  90.6903490
  61.8425996 138.3475578  88.0870180  62.0934034 139.2322588  88.3527756
  62.3785544 138.1680179  87.3145272  85.6658095 141.7789075  84.7545442
  84.9121804 141.2096473  84.5989446  85.8005637 141.7451739  85.7016076
  71.0556723 146.6502477  80.4300161  70.9202398 147.4954013  80.8585009
  71.5966536 146.8521755  79.6666095  67.5424063 132.7294057  97.0914516
  67.1491009 132.1760256  97.7662160  68.3590203 133.0404636  97.4821034
  64.5086121 144.1677915  81.0028086  65.0210641 144.9621166  81.1533651
  65.1608834 143.4704206  80.9361687  70.4592024 134.1451936  94.6834773
  71.2001737 134.7459089  94.6039235  70.6909947 133.4029574  94.1252815
  65.6033362 139.3308303  92.9613002  65.4886877 138.4293561  93.2620101
  64.7477880 139.5772000  92.6097819  72.6825200 147.2726044  94.5600503
  72.2389054 146.4862422  94.2421407  73.3442413 147.4605194  93.8944394
  74.7806438 147.5528844  92.5881904  74.7624913 148.3737725  92.0962173
  75.7026358 147.4282919  92.8132045  71.2379492 145.0672973  93.4305413
  71.7707829 144.3061261  93.2004721  70.7093573 144.7746625  94.1729567
  74.4049187 130.1733039  88.9599054  74.0613456 131.0634681  88.8838165
  74.7728150 129.9834697  88.0968639  62.4735038 142.4966570  81.7787657
  63.3110260 142.9063578  81.5621364  62.6513305 141.5566012  81.7487850
  74.3699470 140.1641650  77.4671489  73.8546093 140.9346255  77.7059877
  74.0976778 139.4906786  78.0904551  71.9546581 135.0091351  82.5256728
  71.0988177 134.6198201  82.3462367  72.3673533 135.0883312  81.6656513
  73.4845727 132.5437694  86.9248288  72.9810523 132.5067829  86.1116093
  73.7776334 133.4530437  86.9844944  69.7288613 132.6276424  85.9314469
  70.5941610 132.4319233  85.5720359  69.7966122 132.3986776  86.8583826
  79.3433744 142.9174005  79.4024663  78.5663187 142.5785164  78.9579825
  80.0225225 142.9226628  78.7279628  74.1585773 138.0368742  79.2931271
  73.8535908 138.3514891  80.1441414  75.1116215 138.1150162  79.3358604
  72.6032205 144.1958966  80.9424225  72.0753566 143.4611725  80.6297462
  72.1019707 144.9733642  80.6964193  77.5825051 142.3907986  86.0591271
  76.9248725 143.0807247  86.1471400  78.3865450 142.7804418  86.4025257
  67.3350932 134.8578632  83.3030836  67.9094684 134.6353813  82.5704029
  67.9221915 134.9267326  84.0559437  76.3930510 140.7452359  84.1095213
  76.9062391 141.3782351  84.6116922  77.0431733 140.1453554  83.7438573
  67.6620519 136.8883093  77.3226721  66.8257832 137.2257779  77.6435996
  67.5225289 136.7532073  76.3853858  69.6373600 131.7319881  82.0305906
  68.9838012 131.4168898  81.4062520  69.5954074 131.1095621  82.7565729
  70.7484805 142.0139176  73.9459198  69.8411867 141.7828429  74.1450347
  71.2455837 141.2176795  74.1333179  72.8711340 138.2201814  86.3553553
  71.9533902 138.4416761  86.1975241  73.2871484 138.2948125  85.4965261
  73.6546388 139.6193230  81.4856233  74.4018207 140.1314627  81.1763356
  73.9237978 139.2977283  82.3460627  71.9273038 142.1151771  78.4683188
  71.0184258 141.8310804  78.5655658  71.9568122 142.5350849  77.6086495
  77.1592306 145.7258360  82.2374355  76.7054633 144.8849270  82.2939546
  76.5286272 146.3619759  82.5749135  76.1025225 136.6550346  83.4675023
  75.3647982 136.1427732  83.7985265  76.3551999 136.2150728  82.6558300
  75.6025245 147.5634857  83.1724173  75.8948219 148.1239914  82.4536539
  76.1123866 147.8563418  83.9277333  76.2036853 129.4326598  84.0616792
  76.5095729 128.5723962  83.7742707  76.9289457 130.0244218  83.8615786
  62.4961209 139.8357285  82.4498390  62.2985609 139.2426646  81.7249457
  61.9407873 139.5309495  83.1674329  70.4757932 139.7280391  84.5692983
  70.5306542 138.7754228  84.4935460  69.6649134 139.8839830  85.0534282
  71.6249126 143.6560514  75.8071266  71.1868556 142.9396373  75.3476904
  72.3659567 143.8836629  75.2456358  68.4150292 138.3457451  82.3283362
  67.6018158 138.6451622  82.7348554  68.9109287 137.9513140  83.0457844
  74.0124504 138.8099276  91.1598256  74.3673892 139.0370749  92.0192722
  74.6596635 139.1417652  90.5375511  79.7422241 141.9317711  81.8647585
  79.6040140 142.1219307  80.9368774  79.3858460 142.6937094  82.3215636
  67.9064367 135.9175807  87.9444597  68.5463746 135.7764566  87.2467560
  67.0741898 135.6310320  87.5683199  79.7691621 143.9994238  86.8758856
  80.2028127 143.9069528  87.7241910  80.4823201 143.9751739  86.2378872
  68.6824671 145.2178237  84.0579589  69.4765269 144.7228557  83.8562164
  67.9716363 144.6896100  83.6947295  73.5019515 147.5996333  88.4091957
  73.5556538 148.1687269  89.1769673  72.6334297 147.7698218  88.0445994
  64.9907434 139.3621319  80.1339342  64.0605023 139.3005774  80.3509304
  65.0864906 138.8397272  79.3375983  64.9092984 135.8876132  82.7217584
  65.1699801 136.8021465  82.6126744  65.7310156 135.4200574  82.8714197
  66.3817909 137.3013889  89.8916408  67.0540962 137.0931251  89.2429057
  65.5547695 137.1035975  89.4521641  80.6307170 144.0417939  89.4091742
  80.8243060 144.9463750  89.6551017  80.5307788 143.5825358  90.2430327
  72.2843481 133.9275830  91.9082069  71.6371396 134.6265779  91.8146546
  73.0544496 134.3611974  92.2758317  75.6922279 144.1924682  94.9832622
  75.5407785 143.9635234  94.0662706  75.6826958 145.1495283  94.9963967
  72.4607615 141.7656595  89.9678889  73.3899675 141.9167754  89.7947856
  72.0398645 141.8540615  89.1127535  71.2595947 145.7907259  87.7377426
  71.1207033 145.4226043  88.6103365  70.4710543 146.3054898  87.5661384
  72.8101162 145.1688862  85.1266264  72.4750995 145.1289632  86.0223914
  72.3105108 144.5033578  84.6536675  66.7845406 140.5756492  90.6518845
  66.6465204 139.8436731  91.2530384  67.6950330 140.4865392  90.3703033
  75.7460354 142.5144896  75.4003324  75.1289524 141.7891724  75.3036377
  75.2776842 143.2754256  75.0570398  69.4127707 140.2876451  90.1402525
  70.1227325 139.6469643  90.0989144  69.3697015 140.5389346  91.0628706
  77.4014485 147.2243804  93.0609104  77.3427032 146.5403025  92.3939687
  77.8034004 147.9662794  92.6089730  68.1256641 137.2741669  91.9598165
  67.5893998 136.8232407  92.6119761  67.5373349 137.4087578  91.2168629
  67.5358900 136.7330320  74.5224628  66.6588366 136.6119121  74.1586875
  68.0116653 135.9416399  74.2703517  77.4031893 145.1883388  91.2923084
  76.5158671 144.8509310  91.4149483  77.9730444 144.4566420  91.5291849
  59.0561040 141.5207480  84.6166135  59.7432080 141.2069210  84.0287151
  58.9009169 142.4248845  84.3433387  63.8595762 136.4097677  89.0451159
  63.7753951 135.8023346  88.3101569  63.0378468 136.9006695  89.0460655
  74.0319476 134.8951240  84.4121354  74.5288175 134.1421203  84.0922424
  73.2606457 134.9315557  83.8464563  81.8849233 140.5991606  86.0539646
  81.8739109 141.4816321  85.6833579  81.0166613 140.2463157  85.8594183
  75.1149257 143.6522927  81.9859778  74.1805535 143.7724390  81.8164482
  75.2925925 142.7495394  81.7219787  70.6154445 137.0368623  84.1393039
  70.2452232 136.4839664  84.8273944  71.1113537 136.4326757  83.5868039
  78.5021808 139.4940247  82.5209812  78.9682260 140.3268238  82.4470114
  78.9529308 139.0285228  83.2255070  76.5698039 145.8384068  79.5195964
  76.8457883 145.7240663  80.4289838  75.7002538 145.4401553  79.4808137
  76.4738471 131.8620834  86.5600713  75.5601550 132.0925061  86.7282920
  76.9031572 131.9459278  87.4114745  76.2444929 140.0510726  89.0600607
  75.5916379 140.2986633  88.4053060  76.6225309 139.2374864  88.7263084
  72.2932502 140.7930537  95.5466644  71.6173139 140.6924666  96.2169019
  73.1160136 140.6369750  96.0102641  58.6329016 139.6008073  86.8883602
  58.6713115 139.0671664  87.6820721  58.1269309 139.0743279  86.2694580
  66.0119778 134.4472614  90.3846145  66.0761105 135.3087445  89.9723542
  65.9486899 133.8346616  89.6518503  65.4872051 136.5195746  94.0319179
  66.1144090 136.1372824  94.6456703  64.6299970 136.3009948  94.3974872
  75.8866159 146.9258722  95.6372915  76.4306063 147.5388680  95.1427869
  75.3053004 147.4838300  96.1539928  62.2637594 138.3272176  79.9637534
  62.5591035 137.4182854  79.9104588  61.3625629 138.3059915  79.6418536
  65.7931841 136.4028172  85.9465082  65.0718426 137.0164140  85.8072556
  66.5825096 136.9385937  85.8681728  76.2358581 147.8488460  88.3967492
  75.2888916 147.7293811  88.3245819  76.5841354 146.9610958  88.4793754
  68.5958154 133.7382599  92.2205734  69.1192556 133.9844895  92.9832044
  68.3770487 134.5702633  91.8008872  63.9925435 136.0086273  80.0876859
  63.6638141 135.1283652  79.9051965  64.3464806 135.9533942  80.9753248
  73.2405014 147.6441176  84.5971845  73.0929976 146.7157883  84.7779415
  74.0658508 147.6661267  84.1128920  67.1067258 136.2959243  80.4552337
  67.4463331 136.8245164  79.7330945  67.5539379 136.6339649  81.2310903
  76.8439136 148.4669735  85.6836717  77.7685683 148.2612596  85.5461168
  76.6754439 148.2186136  86.5926059  69.8010699 134.6796294  89.9055405
  69.4607519 133.8804107  90.3076085  69.0949705 134.9798005  89.3332238
  70.4527171 131.7645606  88.3582728  71.2753240 131.2906084  88.2361618
  70.6965234 132.5436090  88.8581414  69.0935405 134.7933865  78.6545629
  69.8143768 135.1715117  78.1509346  68.4700710 135.5122741  78.7580607
  73.2366528 135.4979014  79.5903962  73.4530143 136.3803651  79.2892790
  72.7560595 135.1065227  78.8609604  67.9765750 138.4564727  86.1674706
  67.8310330 138.7705030  87.0598988  67.4990953 139.0749627  85.6145605
  69.8362133 135.4467275  86.2155596  69.8223701 134.5508368  85.8787894
  70.5534561 135.4537939  86.8493882  71.6888263 135.8804615  88.2608723
  71.4306041 136.8021686  88.2593054  71.1573304 135.4835050  88.9509188
  76.6334452 148.9855402  81.0398809  76.8071330 148.4201825  80.2872661
  77.1263343 149.7856297  80.8578299  62.4511412 140.9970071  89.1062368
  61.9064880 141.7729879  89.2382642  63.3290762 141.3440876  88.9481489
  69.2399029 134.3281655  81.4843166  69.3614940 133.3998301  81.6834054
  68.9501071 134.3420341  80.5721482  72.1090219 132.0136566  84.6209886
  72.1311916 132.0775899  83.6661865  72.5258278 131.1741074  84.8150392
  82.4873843 141.7491825  82.6589109  82.9304989 140.9999150  82.2608232
  81.6100354 141.7401961  82.2762840  77.6209625 148.3022167  78.1395707
  78.3160529 148.9228859  78.3583022  77.9632775 147.4517518  78.4148085
  63.2377434 140.1239968  91.9992524  62.4959170 140.2722603  92.5857155
  62.9170178 140.3848233  91.1359274  79.5201048 145.7521872  79.6683038
  80.0452372 146.0909145  78.9432358  79.4323400 144.8168887  79.4846172
  68.7240108 135.8413652  95.6933099  68.7728264 136.7175775  95.3110868
  69.2662622 135.2991046  95.1204742  79.2094954 146.3854776  94.9734236
  78.4190497 146.3678915  94.4338735  78.9728308 146.9243069  95.7283272
  79.3292829 143.2347242  92.2866964  79.3790834 143.0697250  93.2282487
  79.2206752 142.3674501  91.8964845  68.2129087 145.9135788  79.5759053
  68.3617208 146.5971252  78.9225726  69.0195531 145.8940878  80.0908509
  76.6196591 139.2178170  93.6026271  77.5206454 139.0784635  93.3110269
  76.6944566 139.3832625  94.5424448  70.9539396 136.5945025  92.4479457
  70.0842706 136.8878591  92.1762046  71.1898877 137.1785470  93.1686721
  80.8311026 145.6544184  92.5308986  80.5395834 146.0174164  93.3672447
  80.2183157 144.9411192  92.3522318  82.0306708 143.2197063  85.0511556
  82.8653599 143.6586867  85.2149116  82.1665837 142.7435717  84.2319802
  79.0798214 140.7776798  90.9989044  79.5552335 140.9704445  90.1907895
  78.1563779 140.8335984  90.7532428  65.9681720 141.9400965  80.5820122
  65.7227762 141.0363295  80.7800332  66.1377635 141.9418116  79.6399600
  73.6578430 132.8124642  89.9644878  74.1760374 133.5485669  89.6391366
  73.3033563 133.1188635  90.7991637  65.2377368 137.6729323  78.0806284
  64.5446613 137.7473678  77.4246320  64.9929120 136.9089667  78.6027801
  73.9091024 129.2324924  85.4845774  74.1892778 128.5648113  86.1106201
  74.6941631 129.4254020  84.9720438  77.7799883 137.6542558  89.2317349
  78.7317306 137.7540656  89.2529573  77.6103333 136.8620827  89.7415434
  75.8014262 134.7398142  89.4176750  75.2064194 135.0203154  88.7223239
  75.5163959 135.2292042  90.1893491  77.5609769 148.0086939  75.1383330
  77.4823401 147.6746802  76.0319088  78.3819436 148.5008707  75.1374803
  80.2587961 140.8748678  88.3459649  80.2264281 139.9364679  88.5319333
  80.8688584 140.9532715  87.6125474  72.0971291 139.7444731  74.3886853
  73.0430396 139.6150939  74.4575271  71.7185536 139.0059393  74.8656281
  80.4082449 137.6659721  88.3917932  79.8921498 136.8818178  88.2047861
  81.2922398 137.3378438  88.5564452  78.0693176 131.4100737  84.3513745
  77.8717997 131.1015825  85.2357077  78.6792882 132.1362376  84.4811675
  86.0764510 141.9364685  87.4865686  86.8067899 141.6749973  88.0473389
  85.4671456 141.1993407  87.5267754  84.1579808 140.0772547  88.0840137
  83.4312971 139.9428512  87.4756629  83.7427094 140.3849376  88.8896855
  71.9809984 143.7962477  95.8487510  72.9012993 143.9741076  96.0427557
  71.9459567 142.8518522  95.6967209  70.2814209 137.6694707  74.3241738
  69.3745664 137.3727820  74.4004452  70.5590190 137.3724525  73.4576025
  61.1992149 138.9901071  84.7740785  60.8794933 138.1366379  84.4815159
  60.6525577 139.2049649  85.5298752  64.9772057 141.7063512  88.4910291
  65.1958066 142.6380620  88.5098325  65.3897830 141.3471486  89.2765095
  71.8976274 132.2131597  80.4785980  71.0877003 131.8678682  80.8541226
  72.5860691 131.9039141  81.0673591  73.8266823 131.2909644  82.1010276
  74.3797861 131.7105097  82.7600299  74.0636909 130.3645392  82.1433232
  69.8499922 137.2796718  97.8813040  69.7496649 138.2291075  97.8125131
  69.6321464 136.9514956  97.0089110  69.0512993 134.5281643  74.4653718
  69.9132157 134.8536541  74.7249535  69.2363337 133.7413139  73.9526783
  61.0680409 142.6103982  86.7433906  60.3743880 142.1957935  86.2303861
  61.8153400 142.6524519  86.1467325  77.2045630 133.4010169  81.6088941
  76.6244299 134.0594973  81.2266993  76.9381562 132.5787514  81.1976358
  75.6549196 132.8015227  83.8110261  76.1548974 132.9131761  83.0024580
  76.2984804 132.4976280  84.4511069  69.7131192 140.7093856  96.6978102
  69.2298274 141.5094217  96.9041991  69.7992131 140.7201801  95.7445546
  62.9817152 142.5422236  84.6199921  62.9587840 142.6409923  83.6681804
  63.2917788 143.3887387  84.9417087  65.6404529 144.5998391  88.7346536
  66.5947783 144.5682333  88.6676467  65.4417053 144.1389015  89.5496762
  66.2303912 143.1699507  91.3017333  67.0496801 143.6643586  91.3252171
  66.5040719 142.2531475  91.2734901  75.9870508 135.5610259  80.6645289
  75.0996363 135.8459910  80.4465484  76.4024497 135.4004023  79.8172566
  79.3385044 135.5856780  84.3799628  80.1145434 136.0753233  84.6524245
  78.6133178 136.0114835  84.8371498  81.7757603 136.2984400  85.4373569
  82.3702093 136.0580136  84.7266877  81.8484186 135.5791530  86.0647105
  75.1313721 145.3254934  74.7593309  75.8349571 145.5304937  75.3750964
  74.4076370 145.8931696  75.0242392  75.9611532 141.0764795  80.8795579
  75.9046733 141.5333347  80.0403211  76.5139874 140.3155480  80.7018422
  79.7716337 136.8654527  81.7045698  79.5153272 136.4651163  82.5353906
  79.1469205 137.5798321  81.5795838  84.0828675 139.6050600  84.2116990
  83.5228233 139.6743790  84.9848552  83.4772179 139.4291585  83.4916486
  77.0400419 145.7637463  76.8091769  77.8746023 145.3318662  76.6269244
  76.8784762 145.5919477  77.7368663  76.6946311 142.2669577  78.1748108
  76.6395115 142.1013848  77.2336552  76.0692366 142.9745610  78.3310298
  61.4838826 137.5037641  92.0009530  62.1297689 136.9936595  92.4896756
  61.2755977 138.2406323  92.5752956  74.0092218 144.5718488  97.5001671
  74.8783378 144.7459141  97.1388306  73.5298969 145.3912905  97.3777400
  70.0042436 131.7677686  77.7533427  69.9921106 132.7119526  77.9101697
  70.8965858 131.5847831  77.4592888  73.8194556 128.3620462  82.0079363
  73.0526952 127.8078949  82.1536046  74.2305261 128.4342331  82.8693515
  65.8236317 134.6505258  96.0984545  66.6867778 134.2942063  96.3087869
  65.2501727 134.3119153  96.7859949  90.6234389 153.9433801  84.8833132
  91.3559561 153.3733018  85.1170962  89.8673745 153.5555402  85.3239638
  88.1459810 147.6555376  89.3427741  87.8143134 148.5250787  89.1188956
  87.5505423 147.3391660  90.0221771  88.0388473 152.3750462  86.4221091
  87.1305350 152.3065870  86.1279852  87.9876069 152.8522407  87.2502916
  89.9050119 150.5766900  88.1998965  89.2624500 150.8699433  87.5538759
  89.4005048 150.4619821  89.0052161  85.3461566 151.3431676  91.5560847
  85.1022498 152.0973737  91.0195123  85.6221497 151.7217024  92.3908094
  84.9026258 150.4988109  87.1374685  84.0410737 150.7969363  87.4291422
  84.9288693 150.7158508  86.2055718  78.3817818 148.0585975  97.0914516
  77.9884763 147.5052173  97.7662160  79.1983958 148.3696553  97.4821034
  81.2985779 149.4743854  94.6834773  82.0395492 150.0751007  94.6039235
  81.5303701 148.7321492  94.1252815  85.2442942 145.5024957  88.9599054
  84.9007211 146.3926598  88.8838165  85.6121904 145.3126614  88.0968639
  82.7940335 150.3383269  82.5256728  81.9381932 149.9490119  82.3462367
  83.2067287 150.4175229  81.6656513  84.3239482 147.8729612  86.9248288
  83.8204277 147.8359747  86.1116093  84.6170089 148.7822355  86.9844944
  80.5682368 147.9568342  85.9314469  81.4335365 147.7611150  85.5720359
  80.6359877 147.7278693  86.8583826  78.1744687 150.1870550  83.3030836
  78.7488439 149.9645731  82.5704029  78.7615669 150.2559244  84.0559437
  80.4767355 147.0611798  82.0305906  79.8231767 146.7460816  81.4062520
  80.4347829 146.4387539  82.7565729  86.9418980 151.9842264  83.4675023
  86.2041737 151.4719650  83.7985265  87.1945753 151.5442646  82.6558300
  87.0430607 144.7618516  84.0616792  87.3489484 143.9015879  83.7742707
  87.7683212 145.3536136  83.8615786  83.1237235 149.2567747  91.9082069
  82.4765150 149.9557697  91.8146546  83.8938251 149.6903891  92.2758317
  84.8713230 150.2243158  84.4121354  85.3681930 149.4713120  84.0922424
  84.1000212 150.2607475  83.8464563  87.3132225 147.1912751  86.5600713
  86.3995305 147.4216978  86.7282920  87.7425327 147.2751195  87.4114745
  79.4351909 149.0674516  92.2205734  79.9586310 149.3136813  92.9832044
  79.2164242 149.8994551  91.8008872  80.6404454 150.0088211  89.9055405
  80.3001274 149.2096025  90.3076085  79.9343460 150.3089922  89.3332238
  81.2920925 147.0937524  88.3582728  82.1146995 146.6198002  88.2361618
  81.5358989 147.8728008  88.8581414  84.0760283 150.8270931  79.5903962
  84.2923897 151.7095569  79.2892790  83.5954350 150.4357145  78.8609604
  80.6755887 150.7759193  86.2155596  80.6617456 149.8800286  85.8787894
  81.3928315 150.7829856  86.8493882  80.0792783 149.6573573  81.4843166
  80.2008694 148.7290219  81.6834054  79.7894825 149.6712259  80.5721482
  82.9483973 147.3428483  84.6209886  82.9705670 147.4067816  83.6661865
  83.3652032 146.5032992  84.8150392  84.4972185 148.1416559  89.9644878
  85.0154129 148.8777586  89.6391366  84.1427318 148.4480553  90.7991637
  84.7484779 144.5616842  85.4845774  85.0286533 143.8940031  86.1106201
  85.5335386 144.7545938  84.9720438  88.6193637 152.9834476  89.2317349
  89.5711060 153.0832574  89.2529573  88.4497088 152.1912745  89.7415434
  86.6408017 150.0690059  89.4176750  86.0457949 150.3495072  88.7223239
  86.3557714 150.5583960  90.1893491  91.2476204 152.9951639  88.3917932
  90.7315252 152.2110096  88.2047861  92.1316152 152.6670356  88.5564452
  88.9086931 146.7392655  84.3513745  88.7111752 146.4307743  85.2357077
  89.5186636 147.4654294  84.4811675  94.9973562 155.4064465  88.0840137
  94.2706726 155.2720430  87.4756629  94.5820849 155.7141294  88.8896855
  82.7370029 147.5423515  80.4785980  81.9270757 147.1970600  80.8541226
  83.4254446 147.2331059  81.0673591  84.6660577 146.6201562  82.1010276
  85.2191616 147.0397015  82.7600299  84.9030664 145.6937310  82.1433232
  79.8906748 149.8573560  74.4653718  80.7525912 150.1828459  74.7249535
  80.0757092 149.0705056  73.9526783  88.0439384 148.7302087  81.6088941
  87.4638053 149.3886891  81.2266993  87.7775317 147.9079431  81.1976358
  86.4942951 148.1307144  83.8110261  86.9942729 148.2423679  83.0024580
  87.1378559 147.8268197  84.4511069  86.8264262 150.8902177  80.6645289
  85.9390117 151.1751828  80.4465484  87.2418251 150.7295941  79.8172566
  90.1778798 150.9148698  84.3799628  90.9539189 151.4045151  84.6524245
  89.4526933 151.3406752  84.8371498  92.6151357 151.6276317  85.4373569
  93.2095848 151.3872053  84.7266877  92.6877941 150.9083448  86.0647105
  90.6110092 152.1946445  81.7045698  90.3547026 151.7943081  82.5353906
  89.9862960 152.9090239  81.5795838  94.9222430 154.9342518  84.2116990
  94.3621988 155.0035707  84.9848552  94.3165933 154.7583503  83.4916486
  80.8436191 147.0969603  77.7533427  80.8314861 148.0411443  77.9101697
  81.7359613 146.9139749  77.4592888  84.6588310 143.6912380  82.0079363
  83.8920706 143.1370867  82.1536046  85.0699015 143.7634249  82.8693515
   9.7928414  25.9825813  73.6292252  10.4306824  25.8632561  72.9255592
   9.6749256  26.9306657  73.6880204   6.6018120  25.9353241  73.5653777
   6.2636631  25.8194306  72.6774312   7.4707888  25.5344406  73.5454783
   2.4604936  27.7888718  69.5550668   1.8969801  27.6978655  68.7866956
   2.3457331  26.9688622  70.0353160   7.0837903  27.0888093  79.5239982
   7.0726544  26.6940891  78.6520486   7.2458542  26.3554166  80.1173754
   8.0404494  31.4559686  64.8665133   7.3892474  32.0413766  64.4799147
   8.8348857  31.9865880  64.9260170   1.9660121  28.5448823  65.2652267
   2.7390997  27.9977810  65.1265143   2.3185520  29.4093072  65.4766729
   3.8045164  29.8725205  78.4719166   3.5135030  30.7770836  78.3565833
   4.4402148  29.9141733  79.1863236   4.7301371  27.2502053  75.0620526
   5.3264943  27.0258076  74.3477489   4.7876342  26.5086799  75.6645974
   4.3026399  24.7041489  62.8970717   4.5551920  24.1823010  62.1354180
   3.3650958  24.5407634  62.9997401   9.3469682  23.7077267  70.7045460
  10.1332771  23.2896690  70.3535877   9.6108386  24.6123359  70.8727109
   9.5179759  29.1450117  65.4034117   8.8825592  29.2184744  66.1155022
   9.1877166  29.7343716  64.7253196  14.7478109  23.6452500  71.6078439
  15.4803281  23.0751717  71.8416268  13.9917465  23.2574101  72.0484944
   4.0222688  26.6069595  65.0995092   3.9058946  25.9314498  65.7676176
   4.1324948  26.1201969  64.2827245   6.3654229  26.0679742  68.8041781
   6.0012436  25.5410363  69.5154703   7.2221345  25.6778211  68.6308267
  12.2703530  17.3574074  76.0673047  11.9386854  18.2269485  75.8434262
  11.6749143  17.0410358  76.7467078   6.0059716  21.0969642  63.8003130
   6.1734118  21.9649878  64.1673601   5.8156885  21.2596923  62.8764419
   8.7635049  29.5586620  75.4668960   8.4635772  30.4611659  75.3584767
   8.4186109  29.2918804  76.3190113   2.2147531  26.0100417  71.5005665
   1.2898027  25.8776631  71.7083356   2.4631944  26.7894637  71.9975607
  12.1632193  22.0769161  73.1466397  11.2549070  22.0084569  72.8525158
  12.1119789  22.5541106  73.9748223   5.9848937  23.5527299  64.7849797
   5.8648562  23.9984350  65.6235277   5.2901525  23.9012617  64.2263335
   3.7455829  36.3230941  68.4339928   3.6679859  37.2738766  68.5128408
   3.1417472  35.9776813  69.0914854   6.2373059  23.4958806  81.0901295
   5.4606393  24.0552726  81.0804159   6.8763622  23.9815589  81.6116165
  14.0293839  20.2785599  74.9244271  13.3868219  20.5718132  74.2784066
  13.5248768  20.1638519  75.7297468  11.6834003  24.0248772  65.6130131
  12.5951859  24.2576159  65.4377828  11.1743650  24.6085816  65.0505209
   4.4919431  26.3044260  80.6519262   5.2334115  26.8429304  80.3754085
   3.7856416  26.9310548  80.8090814   9.9674771  28.4473400  79.2491423
  10.3758127  28.0055811  78.5046056   9.2452032  27.8726028  79.5025616
   6.3205841  23.3846007  76.6224980   7.1667036  23.8085420  76.7659629
   6.2604478  22.7279631  77.3163543  10.2903585  29.0074591  73.0043712
   9.6612448  29.1720305  72.3019780   9.9029247  29.4216200  73.7754676
  14.1692817  29.9429029  70.3588076  13.4843855  30.3227930  69.8085109
  14.2536666  30.5524355  71.0920024   9.4705286  21.0450375  78.2806154
   9.2266218  21.7992436  77.7440429   9.7465216  21.4235723  79.1153401
  11.4243749  27.5888988  76.9583419  11.6360644  28.2320747  76.2817800
  11.3773497  26.7551304  76.4905349   9.0269978  20.2006808  73.8619992
   8.1654457  20.4988062  74.1536729   9.0532412  20.4177207  72.9301024
   5.8431547  28.7448999  70.2693797   6.3069893  29.0236702  69.4798420
   5.5788345  27.8432443  70.0866888   2.7355628  28.2920480  73.2073560
   3.3056985  28.7207749  72.5691045   3.3263740  28.0103065  73.9057746
   4.7800433  24.8672151  67.0783362   5.4824476  25.3193195  67.5457289
   4.4481062  24.2255970  67.7063255   3.2280795  23.4583908  81.4534572
   2.5979455  24.1400189  81.6869969   3.1216883  23.3466989  80.5087710
  12.5389577  30.4660943  75.1305777  13.3607020  30.0641130  74.8488458
  12.5351980  30.3629177  76.0821893   6.3046180  30.0144986  77.2866487
   6.3690613  30.4765393  78.1224659   5.5957104  29.3842351  77.4148797
  20.6295570  26.8099691  71.4790748  19.8759278  26.2407090  71.3234753
  20.7643111  26.7762356  72.4261383   6.0194198  31.6813094  67.1545468
   5.8839873  32.5264629  67.5830315   6.5604010  31.8832371  66.3911401
   1.2818480  32.3154288  69.8096146   1.4585108  33.2372253  69.6217130
   2.0775313  32.0012707  70.2390526   5.4229498  19.1762553  81.4080079
   6.1639212  19.7769706  81.3284542   5.6547421  18.4340190  80.8498122
   7.6462674  32.3036660  81.2845810   7.2026528  31.5173039  80.9666714
   8.3079888  32.4915811  80.6189700   2.4049795  33.8332462  75.8106488
   2.9557220  33.7049525  75.0383482   1.5661271  34.1327351  75.4601381
   9.7443912  32.5839460  79.3127211   9.7262388  33.4048341  78.8207480
  10.6663832  32.4593535  79.5377352   6.2016966  30.0983590  80.1550719
   6.7345303  29.3371878  79.9250027   5.6731047  29.8057241  80.8974874
   9.3686661  15.2043656  75.6844361   9.0250931  16.0945297  75.6083472
   9.7365624  15.0145313  74.8213946   9.3336944  25.1952267  64.1916796
   8.8183567  25.9656871  64.4305184   9.0614252  24.5217403  64.8149858
   6.9184055  20.0401968  69.2502035   6.0625651  19.6508818  69.0707673
   7.3311007  20.1193928  68.3901820   8.4483202  17.5748311  73.6493594
   7.9447997  17.5378446  72.8361400   8.7413809  18.4841054  73.7090251
  14.3071218  27.9484621  66.1269970  13.5300661  27.6095781  65.6825132
  14.9862699  27.9537245  65.4524935   9.1223247  23.0679359  66.0176577
   8.8173383  23.3825508  66.8686720  10.0753689  23.1460779  66.0603910
   7.5669679  29.2269582  67.6669531   7.0391041  28.4922342  67.3542769
   7.0657182  30.0044258  67.4209500  12.5462525  27.4218603  72.7836578
  11.8886200  28.1117864  72.8716706  13.3502924  27.8115035  73.1270564
  11.3567984  25.7762975  70.8340519  11.8699866  26.4092967  71.3362229
  12.0069208  25.1764171  70.4683879   2.6257994  21.9193709  64.0472028
   1.7895306  22.2568396  64.3681303   2.4862763  21.7842689  63.1099165
   5.7122279  27.0449792  60.6704504   4.8049341  26.8139046  60.8695653
   6.2093311  26.2487412  60.8578486   8.6190358  35.7547300  63.5901190
   7.9452057  36.0578996  64.1986148   9.0056180  36.5576380  63.2406648
   7.8348815  23.2512431  73.0798860   6.9171376  23.4727378  72.9220548
   8.2508958  23.3258741  72.2210567   8.6183863  24.6503847  68.2101540
   9.3655681  25.1625244  67.9008662   8.8875452  24.3287899  69.0705934
   6.8910513  27.1462387  65.1928494   5.9821732  26.8621420  65.2900964
   6.9205596  27.5661466  64.3331801  12.1229780  30.7568977  68.9619662
  11.6692107  29.9159887  69.0184852  11.4923747  31.3930375  69.2994442
  11.0662700  21.6860963  70.1920329  10.3285456  21.1738349  70.5230572
  11.3189473  21.2461344  69.3803606  10.5662719  32.5945473  69.8969480
  10.8585694  33.1550531  69.1781846  11.0761340  32.8874034  70.6522639
  11.1674327  14.4637215  70.7862099  11.4733204  13.6034578  70.4988014
  11.8926932  15.0554835  70.5861093   5.4395407  24.7591008  71.2938290
   5.4944017  23.8064844  71.2180766   4.6286609  24.9150447  71.7779588
   6.5886600  28.6871131  62.5316573   6.1506030  27.9706990  62.0722210
   7.3297041  28.9147246  61.9701664   3.3787767  23.3768068  69.0528669
   2.5655632  23.6762238  69.4593861   3.8746761  22.9823756  69.7703151
   5.5296345  33.3725825  70.9862933   5.4872523  33.5986671  70.0571465
   6.4459043  33.1389199  71.1348734   8.9761978  23.8409892  77.8843563
   9.3311366  24.0681365  78.7438028   9.6234110  24.1728269  77.2620818
  14.7059715  26.9628328  68.5892892  14.5677614  27.1529924  67.6614081
  14.3495934  27.7247711  69.0460943   2.8701841  20.9486423  74.6689904
   3.5101221  20.8075182  73.9712867   2.0379372  20.6620937  74.2928506
  14.7329095  29.0304855  73.6004163  15.1665602  28.9380144  74.4487217
  15.4460676  29.0062355  72.9624179   3.6462145  30.2488854  70.7824896
   4.4402744  29.7539174  70.5807471   2.9353838  29.7206717  70.4192602
   8.4656990  32.6306949  75.1337264   8.5194012  33.1997885  75.9014980
   7.5971771  32.8008834  74.7691301   1.3455383  22.3324505  76.6161715
   2.0178437  22.1241867  75.9674364   0.5185170  22.1346591  76.1766947
  15.5944644  29.0728556  76.1337048  15.7880535  29.9774366  76.3796323
  15.4945263  28.6135975  76.9675633   7.2480955  18.9586446  78.6327376
   6.6008870  19.6576396  78.5391852   8.0181971  19.3922590  79.0003624
  10.6559753  29.2235298  81.7077929  10.5045260  28.9945850  80.7908013
  10.6464433  30.1805900  81.7209274   7.4245090  26.7967211  76.6924196
   8.3537150  26.9478371  76.5193163   7.0036120  26.8851232  75.8372842
   6.2233421  30.8217876  74.4622733   6.0844507  30.4536660  75.3348671
   5.4348018  31.3365515  74.2906691   6.8181573  35.9226972  65.8048270
   6.9933329  35.4515015  66.6193892   6.1314361  36.5492738  66.0329530
   7.7738636  30.1999478  71.8511571   7.4388469  30.1600248  72.7469221
   7.2742582  29.5344194  71.3781981   1.7482880  25.6067108  77.3764152
   1.6102678  24.8747347  77.9775691   2.6587804  25.5176008  77.0948340
  10.7097828  27.5455513  62.1248631  10.0926999  26.8202341  62.0281683
  10.2414317  28.3064873  61.7815705   4.3765181  25.3187068  76.8647832
   5.0864800  24.6780260  76.8234450   4.3334489  25.5699962  77.7874013
  12.3651960  32.2554421  79.7854411  12.3064506  31.5713641  79.1184994
  12.7671478  32.9973411  79.3335037   3.0894115  22.3052285  78.6843471
   2.5531472  21.8543024  79.3365068   2.5010824  22.4398194  77.9413936
   1.3842659  39.0716335  72.5788130   1.6239257  39.7034859  73.2567148
   0.5411855  38.7204375  72.8653489   2.4996374  21.7640937  61.2469935
   1.6225840  21.6429738  60.8832182   2.9754127  20.9727015  60.9948824
  12.3669367  30.2194005  78.0168391  11.4796146  29.8819927  78.1394789
  12.9367918  29.4877036  78.2537156   5.8970520  34.8795457  74.9829634
   5.8240692  35.6850429  75.4948938   5.4547914  35.0787423  74.1577655
   5.6860300  34.1167227  68.4932455   4.9027822  34.6588907  68.5870680
   6.3853045  34.6341207  68.8926697   8.9956950  19.9261857  71.1366661
   9.4925650  19.1731819  70.8167731   8.2243932  19.9626173  70.5709870
  16.8486708  25.6302222  72.7784952  16.8376584  26.5126938  72.4078885
  15.9804087  25.2773773  72.5839489   8.3569204  34.7782291  77.1387792
   9.0697176  35.4129756  77.0663694   7.8659233  34.8746157  76.3227794
  10.0786731  28.6833544  68.7105084   9.1443010  28.8035006  68.5409788
  10.2563399  27.7806011  68.4465094   5.5791919  22.0679240  70.8638345
   5.2089706  21.5150280  71.5519251   6.0751011  21.4637373  70.3113345
  13.4659282  24.5250863  69.2455118  13.9319734  25.3578855  69.1715421
  13.9166783  24.0595845  69.9500377   3.4081117  32.5276735  77.9593363
   4.1090577  33.1613218  78.1122758   2.9376232  32.8691466  77.1989003
  11.5335513  30.8694685  66.2441270  11.8095357  30.7551279  67.1535144
  10.6640012  30.4712169  66.2053443  11.4375945  16.8931450  73.2846020
  10.5239025  17.1235677  73.4528227  11.8669046  16.9769894  74.1360052
  11.2082403  25.0821342  75.7845914  10.5553854  25.3297250  75.1298366
  11.5862783  24.2685480  75.4508391   8.1689577  35.1181035  69.8874084
   8.3511972  34.3002691  70.3501836   8.9922563  35.3348728  69.4498974
   8.5031743  34.0449220  67.1489132   9.0319509  33.5341675  66.5359295
   8.7659962  33.7291751  68.0134665   7.2569976  25.8241153  82.2711951
   6.5810613  25.7235283  82.9414326   8.0797610  25.6680367  82.7347948
   1.8587491  35.0964337  69.9086908   1.1897866  35.5810465  69.4250948
   1.7200360  35.3433558  70.8230287   5.9992759  37.1308081  76.5069567
   6.5511067  37.2939702  77.2718652   6.3398953  37.7212519  75.8349592
  10.8503634  31.9569338  82.3618221  11.3943538  32.5699296  81.8673176
  10.2690479  32.5148917  82.8785234   9.1361147  35.0790056  73.4933249
   9.0112286  34.2779796  72.9844194   9.7940238  35.5736250  73.0047219
  11.1996055  32.8799076  75.1212799  10.2526391  32.7604427  75.0491126
  11.5478828  31.9921574  75.2039060   8.2042488  32.6751793  71.3217151
   8.0567451  31.7468500  71.5024721   9.0295982  32.6971883  70.8374226
   2.0704733  21.3269860  67.1797643   2.4100805  21.8555781  66.4576252
   2.5176853  21.6650266  67.9556210  11.8076610  33.4980351  72.4082024
  12.7323158  33.2923213  72.2706475  11.6391914  33.2496752  73.3171365
   4.7648173  19.7106910  76.6300711   4.4244994  18.9114723  77.0321391
   4.0587180  20.0108621  76.0577545   4.0572880  19.8244481  65.3790936
   4.7781242  20.2025734  64.8754653   3.4338184  20.5433358  65.4825914
   8.2004003  20.5289630  66.3149268   8.4167617  21.4114268  66.0138097
   7.7198070  20.1375844  65.5854910   2.9403224  23.4875343  72.8920013
   2.7947805  23.8015646  73.7844295   2.4628428  24.1060244  72.3390912
   4.7999607  20.4777891  72.9400903   4.7861176  19.5818985  72.6033201
   5.5172035  20.4848555  73.5739189   6.6525738  20.9115232  74.9854030
   6.3943515  21.8332302  74.9838360   6.1210778  20.5145666  75.6754494
  11.5971926  34.0166019  67.7644115  11.7708804  33.4512441  67.0117968
  12.0900818  34.8166914  67.5823605  17.4511318  26.7802442  69.3834415
  17.8942464  26.0309767  68.9853538  16.5737828  26.7712578  69.0008147
  12.5847099  33.3332783  64.8641014  13.2798003  33.9539476  65.0828328
  12.9270249  32.4828134  65.1393392  14.4838522  30.7832489  66.3928344
  15.0089846  31.1219761  65.6677664  14.3960875  29.8479504  66.2091479
   6.1458571  34.6966562  78.5218221   6.4545697  34.4515709  79.3940921
   6.9434053  34.9013201  78.0337091   6.1679183  36.8504472  70.7523598
   5.7284173  36.3580851  71.4456454   6.9187300  36.3077440  70.5115673
   3.6153055  32.3942481  72.8245899   2.9933064  31.7313186  72.5248127
   4.2857922  32.4203613  72.1419547   3.6877582  20.8724269  82.4178405
   3.7365738  21.7486392  82.0356175   4.2300097  20.3301662  81.8450049
  14.1732428  31.4165392  81.6979542  13.3827972  31.3989531  81.1584042
  13.9365783  31.9553686  82.4528579  14.2930303  28.2657859  79.0112271
  14.3428308  28.1007866  79.9527794  14.1844226  27.3985118  78.6210152
   3.1766562  30.9446404  66.3004360   3.3254682  31.6281869  65.6471033
   3.9833005  30.9251494  66.8153816  11.5834065  24.2488787  80.3271578
  12.4843928  24.1095252  80.0355575  11.6582040  24.4143242  81.2669755
   5.9176871  21.6255641  79.1724764   5.0480180  21.9189207  78.9007353
   6.1536351  22.2096086  79.8932028  15.7948500  30.6854800  79.2554292
  15.5033308  31.0484781  80.0917753  15.1820631  29.9721808  79.0767625
  16.9944182  28.2507680  71.7756863  17.8291074  28.6897484  71.9394423
  17.1303311  27.7746333  70.9565108  14.0435688  25.8087415  77.7234350
  14.5189810  26.0015061  76.9153202  13.1201254  25.8646601  77.4777734
   0.9319195  26.9711582  67.3065429   0.6865237  26.0673912  67.5045639
   1.1015109  26.9728732  66.3644907   8.6215905  17.8435258  76.6890184
   9.1397849  18.5796285  76.3636673   8.2671037  18.1499252  77.5236943
   6.6761967  33.4394535  63.7716107   6.1035934  34.0584722  63.3186579
   7.2494761  33.9893896  64.3056029  12.7437357  22.6853175  75.9562656
  13.6954780  22.7851273  75.9774880  12.5740808  21.8931443  76.4660740
  10.7651737  19.7708758  76.1422057  10.1701669  20.0513771  75.4468546
  10.4801433  20.2602659  76.9138798   9.8959227  33.7231685  64.9024690
  10.8289900  33.6577247  65.1057565   9.8082440  34.5587952  64.4439222
  12.5247244  33.0397555  61.8628637  12.4460875  32.7057419  62.7564395
  13.3456911  33.5319323  61.8620109  15.2225435  25.9059295  75.0704956
  15.1901755  24.9675295  75.2564640  15.8326059  25.9843331  74.3370781
   7.0608766  24.7755348  61.1132160   8.0067871  24.6461556  61.1820578
   6.6823011  24.0370009  61.5901588  15.3719923  22.6970338  75.1163239
  14.8558972  21.9128795  74.9293168  16.2559872  22.3689055  75.2809758
  13.0330650  16.4411354  71.0759052  12.8355471  16.1326442  71.9602384
  13.6430356  17.1672992  71.2056981  21.0401985  26.9675301  74.2110993
  21.7705373  26.7060590  74.7718696  20.4308930  26.2304023  74.2513060
  19.1217282  25.1083164  74.8085444  18.3950445  24.9739129  74.2001935
  18.7064569  25.4159993  75.6142162   6.9447458  28.8273094  82.5732817
   7.8650468  29.0051693  82.7672863   6.9097041  27.8829139  82.4212516
   5.2451683  22.7005324  61.0487045   4.3383138  22.4038437  61.1249759
   5.5227664  22.4035142  60.1821331   8.7904297  16.3220260  68.8255583
   9.3435336  16.7415714  69.4845606   9.0274383  15.3956009  68.8678539
   4.8137396  22.3107334  84.6058347   4.7134123  23.2601691  84.5370438
   4.5958938  21.9825573  83.7334417   4.0150468  19.5592259  61.1899024
   4.8769632  19.8847157  61.4494842   4.2000812  18.7723755  60.6772090
  12.1683104  18.4320786  68.3334247  11.5881773  19.0905590  67.9512300
  11.9019037  17.6098130  67.9221665  10.6186670  17.8325843  70.5355568
  11.1186449  17.9442378  69.7269886  11.2622278  17.5286896  71.1756376
   4.6768666  25.7404473  83.4223408   4.1935748  26.5404833  83.6287298
   4.7629605  25.7512418  82.4690852   0.6042004  29.6309008  75.4591842
   1.5585257  29.5992950  75.3921774   0.4054527  29.1699631  76.2742068
   1.1941386  28.2010124  78.0262640   2.0134275  28.6954202  78.0497477
   1.4678194  27.2842092  77.9980207  10.9507982  20.5920876  67.3890595
  10.0633837  20.8770527  67.1710790  11.3661971  20.4314639  66.5417872
  14.3022518  20.6167397  71.1044935  15.0782908  21.1063849  71.3769552
  13.5770652  21.0425451  71.5616804  16.7395077  21.3295016  72.1618875
  17.3339568  21.0890752  71.4512184  16.8121661  20.6102147  72.7892412
  10.0951196  30.3565551  61.4838615  10.7987046  30.5615553  62.0996271
   9.3713844  30.9242313  61.7487699  10.9249006  26.1075412  67.6040886
  10.8684207  26.5643963  66.7648518  11.4777348  25.3466097  67.4263728
  14.7353812  21.8965144  68.4291005  14.4790746  21.4961779  69.2599213
  14.1106680  22.6108938  68.3041144  19.0466150  24.6361217  70.9362297
  18.4865708  24.7054406  71.7093859  18.4409653  24.4602202  70.2161793
   2.1161358  36.0697944  72.6880483   1.9993743  37.0143377  72.5859173
   1.2953805  35.7671506  73.0766282  12.0037893  30.7948080  63.5337075
  12.8383497  30.3629278  63.3514550  11.8422236  30.6230094  64.4613970
  11.6583785  27.2980193  64.8993415  11.6032589  27.1324465  63.9581859
  11.0329840  28.0056226  65.0555605   8.9729692  29.6029105  84.2246978
   9.8420852  29.7769757  83.8633612   8.4936444  30.4223522  84.1022707
   3.1415873  36.7226206  75.9036411   4.0443119  36.7549816  76.2202906
   2.9153243  35.7926657  75.9182747   4.8969475  35.4757193  72.5646490
   3.9465106  35.4759054  72.4510862   5.2001961  34.7289927  72.0482524
  20.6322168  41.3117731  73.6292252  21.2700578  41.1924478  72.9255592
  20.5143011  42.2598575  73.6880204  17.4411874  41.2645159  73.5653777
  17.1030386  41.1486224  72.6774312  18.3101643  40.8636324  73.5454783
  13.2998690  43.1180635  69.5550668  12.7363555  43.0270572  68.7866956
  13.1851085  42.2980540  70.0353160  17.9231657  42.4180011  79.5239982
  17.9120298  42.0232809  78.6520486  18.0852297  41.6846083  80.1173754
  10.8463122  44.6131827  72.3934888  11.6384414  44.2722652  71.9781188
  11.0859772  44.7226802  73.3137042  18.8798249  46.7851603  64.8665133
  18.2286228  47.3705684  64.4799147  19.6742612  47.3157798  64.9260170
  12.8053876  43.8740740  65.2652267  13.5784752  43.3269727  65.1265143
  13.1579275  44.7384990  65.4766729  14.6438918  45.2017123  78.4719166
  14.3528784  46.1062753  78.3565833  15.2795903  45.2433650  79.1863236
  15.5695125  42.5793971  75.0620526  16.1658698  42.3549994  74.3477489
  15.6270097  41.8378717  75.6645974  15.1420154  40.0333406  62.8970717
  15.3945674  39.5114928  62.1354180  14.2044713  39.8699552  62.9997401
  20.1863437  39.0369185  70.7045460  20.9726526  38.6188608  70.3535877
  20.4502141  39.9415277  70.8727109  20.3573514  44.4742035  65.4034117
  19.7219347  44.5476662  66.1155022  20.0270920  45.0635634  64.7253196
  25.5871864  38.9744418  71.6078439  26.3197036  38.4043635  71.8416268
  24.8311219  38.5866018  72.0484944  14.8616442  41.9361512  65.0995092
  14.7452701  41.2606416  65.7676176  14.9718702  41.4493886  64.2827245
  17.2047983  41.3971660  68.8041781  16.8406191  40.8702280  69.5154703
  18.0615099  41.0070129  68.6308267  23.1097284  32.6865992  76.0673047
  22.7780609  33.5561403  75.8434262  22.5142897  32.3702276  76.7467078
  16.8453470  36.4261559  63.8003130  17.0127873  37.2941796  64.1673601
  16.6550639  36.5888841  62.8764419  19.6028804  44.8878538  75.4668960
  19.3029527  45.7903577  75.3584767  19.2579863  44.6210721  76.3190113
  13.0541285  41.3392335  71.5005665  12.1291781  41.2068549  71.7083356
  13.3025698  42.1186554  71.9975607  23.0025947  37.4061078  73.1466397
  22.0942825  37.3376487  72.8525158  22.9513543  37.8833023  73.9748223
  16.8242691  38.8819217  64.7849797  16.7042316  39.3276267  65.6235277
  16.1295280  39.2304534  64.2263335  10.4150096  40.9825609  72.3349454
  10.5442477  41.2360087  73.2488865   9.7347547  41.5753317  72.0154109
  14.5849583  51.6522858  68.4339928  14.5073613  52.6030684  68.5128408
  13.9811227  51.3068731  69.0914854  17.0766813  38.8250724  81.0901295
  16.3000147  39.3844644  81.0804159  17.7157376  39.3107507  81.6116165
  24.8687594  35.6077517  74.9244271  24.2261974  35.9010050  74.2784066
  24.3642522  35.4930437  75.7297468  22.5227757  39.3540690  65.6130131
  23.4345614  39.5868077  65.4377828  22.0137404  39.9377734  65.0505209
  15.3313185  41.6336177  80.6519262  16.0727870  42.1721221  80.3754085
  14.6250171  42.2602466  80.8090814  20.8068525  43.7765318  79.2491423
  21.2151881  43.3347728  78.5046056  20.0845787  43.2017945  79.5025616
  17.1599595  38.7137924  76.6224980  18.0060790  39.1377338  76.7659629
  17.0998233  38.0571549  77.3163543  21.1297340  44.3366508  73.0043712
  20.5006202  44.5012222  72.3019780  20.7423002  44.7508118  73.7754676
  25.0086572  45.2720946  70.3588076  24.3237610  45.6519848  69.8085109
  25.0930421  45.8816273  71.0920024  20.3099040  36.3742293  78.2806154
  20.0659972  37.1284353  77.7440429  20.5858971  36.7527640  79.1153401
  22.2637503  42.9180905  76.9583419  22.4754398  43.5612665  76.2817800
  22.2167251  42.0843222  76.4905349  19.8663732  35.5298726  73.8619992
  19.0048211  35.8279979  74.1536729  19.8926167  35.7469125  72.9301024
  16.6825302  44.0740916  70.2693797  17.1463647  44.3528619  69.4798420
  16.4182100  43.1724361  70.0866888  13.5749383  43.6212398  73.2073560
  14.1450740  44.0499666  72.5691045  14.1657494  43.3394983  73.9057746
  15.6194188  40.1964069  67.0783362  16.3218231  40.6485112  67.5457289
  15.2874816  39.5547888  67.7063255  14.0674549  38.7875825  81.4534572
  13.4373210  39.4692106  81.6869969  13.9610637  38.6758907  80.5087710
   9.3619522  38.4547621  72.3800496   8.5718576  38.7105150  71.9040607
   9.8530769  39.2695959  72.4852536  23.3783331  45.7952861  75.1305777
  24.2000775  45.3933048  74.8488458  23.3745734  45.6921095  76.0821893
  11.3134267  38.8192201  69.3383973  10.5165430  38.9310895  69.8567468
  11.0859859  39.1578853  68.4724863  17.1439935  45.3436904  77.2866487
  17.2084367  45.8057311  78.1224659  16.4350858  44.7134269  77.4148797
   7.6457225  38.7078112  74.8115487   7.8965263  39.5925122  75.0773063
   8.1816773  38.5282713  74.0390579  31.4689324  42.1391609  71.4790748
  30.7153033  41.5699007  71.3234753  31.6036865  42.1054274  72.4261383
  16.8587952  47.0105011  67.1545468  16.7233627  47.8556547  67.5830315
  17.3997765  47.2124289  66.3911401  13.3455292  33.0896591  83.8159823
  12.9522237  32.5362790  84.4907467  14.1621432  33.4007170  84.2066340
  10.3117350  44.5280449  67.7273393  10.8241870  45.3223700  67.8778957
  10.9640062  43.8306740  67.6606994  12.1212234  47.6446206  69.8096146
  12.2978863  48.5664170  69.6217130  12.9169068  47.3304625  70.2390526
  16.2623253  34.5054470  81.4080079  17.0032966  35.1061624  81.3284542
  16.4941176  33.7632108  80.8498122  11.4064591  39.6910838  79.6858309
  11.2918106  38.7896095  79.9865408  10.5509109  39.9374534  79.3343126
  18.4856429  47.6328578  81.2845810  18.0420283  46.8464956  80.9666714
  19.1473642  47.8207728  80.6189700  13.2443550  49.1624380  75.8106488
  13.7950975  49.0341443  75.0383482  12.4055026  49.4619269  75.4601381
  20.5837667  47.9131378  79.3127211  20.5656142  48.7340259  78.8207480
  21.5057587  47.7885453  79.5377352  17.0410721  45.4275507  80.1550719
  17.5739058  44.6663796  79.9250027  16.5124802  45.1349159  80.8974874
  20.2080416  30.5335573  75.6844361  19.8644685  31.4237215  75.6083472
  20.5759378  30.3437231  74.8213946   8.2766266  42.8569104  68.5032963
   9.1141488  43.2666112  68.2866671   8.4544534  41.9168546  68.4733157
  20.1730699  40.5244184  64.1916796  19.6577322  41.2948789  64.4305184
  19.9008007  39.8509321  64.8149858  17.7577810  35.3693885  69.2502035
  16.9019406  34.9800736  69.0707673  18.1704761  35.4485846  68.3901820
  19.2876956  32.9040228  73.6493594  18.7841752  32.8670364  72.8361400
  19.5807563  33.8132971  73.7090251  15.5319842  32.9878958  72.6559776
  16.3972839  32.7921767  72.2965665  15.5997351  32.7589310  73.5829133
  25.1464973  43.2776539  66.1269970  24.3694415  42.9387699  65.6825132
  25.8256454  43.2829162  65.4524935  19.9617002  38.3971277  66.0176577
  19.6567137  38.7117426  66.8686720  20.9147444  38.4752696  66.0603910
  18.4063434  44.5561500  67.6669531  17.8784795  43.8214259  67.3542769
  17.9050936  45.3336176  67.4209500  23.3856280  42.7510520  72.7836578
  22.7279954  43.4409782  72.8716706  24.1896679  43.1406952  73.1270564
  13.1382161  35.2181166  70.0276143  13.7125913  34.9956348  69.2949336
  13.7253144  35.2869861  70.7804744  22.1961738  41.1054893  70.8340519
  22.7093620  41.7384885  71.3362229  22.8462962  40.5056089  70.4683879
  13.4651748  37.2485627  64.0472028  12.6289061  37.5860314  64.3681303
  13.3256518  37.1134607  63.1099165  15.4404829  32.0922415  68.7551212
  14.7869241  31.7771432  68.1307827  15.3985303  31.4698155  69.4811035
  16.5516034  42.3741710  60.6704504  15.6443095  42.1430964  60.8695653
  17.0487066  41.5779329  60.8578486  19.4584113  51.0839217  63.5901190
  18.7845811  51.3870914  64.1986148  19.8449935  51.8868298  63.2406648
  18.6742569  38.5804349  73.0798860  17.7565131  38.8019296  72.9220548
  19.0902713  38.6550659  72.2210567  19.4577617  39.9795764  68.2101540
  20.2049436  40.4917161  67.9008662  19.7269207  39.6579817  69.0705934
  17.7304267  42.4754305  65.1928494  16.8215486  42.1913338  65.2900964
  17.7599351  42.8953384  64.3331801  22.9623535  46.0860894  68.9619662
  22.5085862  45.2451804  69.0184852  22.3317501  46.7222293  69.2994442
  21.9056454  37.0152880  70.1920329  21.1679211  36.5030267  70.5230572
  22.1583228  36.5753262  69.3803606  21.4056474  47.9237391  69.8969480
  21.6979448  48.4842448  69.1781846  21.9155094  48.2165952  70.6522639
  22.0068081  29.7929132  70.7862099  22.3126958  28.9326496  70.4988014
  22.7320686  30.3846753  70.5861093   8.2992438  40.1959819  69.1743697
   8.1016837  39.6029180  68.4494763   7.7439102  39.8912029  69.8919635
  16.2789161  40.0882926  71.2938290  16.3337771  39.1356762  71.2180766
  15.4680363  40.2442365  71.7779588  17.4280355  44.0163049  62.5316573
  16.9899785  43.2998908  62.0722210  18.1690796  44.2439163  61.9701664
  14.2181521  38.7059985  69.0528669  13.4049387  39.0054156  69.4593861
  14.7140515  38.3115674  69.7703151  16.3690099  48.7017742  70.9862933
  16.3266278  48.9278589  70.0571465  17.2852798  48.4681117  71.1348734
  19.8155733  39.1701810  77.8843563  20.1705121  39.3973283  78.7438028
  20.4627864  39.5020187  77.2620818  25.5453470  42.2920246  68.5892892
  25.4071368  42.4821842  67.6614081  25.1889689  43.0539628  69.0460943
  13.7095596  36.2778341  74.6689904  14.3494975  36.1367100  73.9712867
  12.8773126  35.9912854  74.2928506  25.5722849  44.3596773  73.6004163
  26.0059356  44.2672062  74.4487217  26.2854430  44.3354273  72.9624179
  14.4855900  45.5780771  70.7824896  15.2796498  45.0831091  70.5807471
  13.7747592  45.0498634  70.4192602  19.3050744  47.9598867  75.1337264
  19.3587767  48.5289803  75.9014980  18.4365526  48.1300752  74.7691301
  10.7938663  39.7223853  66.8584649   9.8636251  39.6608308  67.0754611
  10.8896135  39.1999806  66.0621290  10.7124212  36.2478666  69.4462890
  10.9731030  37.1623999  69.3372051  11.5341385  35.7803108  69.5959503
  12.1849138  37.6616423  76.6161715  12.8572191  37.4533785  75.9674364
  11.3578924  37.4638509  76.1766947  26.4338399  44.4020473  76.1337048
  26.6274289  45.3066284  76.3796323  26.3339017  43.9427892  76.9675633
  18.0874710  34.2878364  78.6327376  17.4402625  34.9868314  78.5391852
  18.8575725  34.7214508  79.0003624  21.4953508  44.5527216  81.7077929
  21.3439014  44.3237768  80.7908013  21.4858187  45.5097817  81.7209274
  18.2638844  42.1259129  76.6924196  19.1930904  42.2770288  76.5193163
  17.8429874  42.2143150  75.8372842  17.0627176  46.1509793  74.4622733
  16.9238261  45.7828578  75.3348671  16.2741772  46.6657433  74.2906691
  17.6575328  51.2518890  65.8048270  17.8327083  50.7806933  66.6193892
  16.9708116  51.8784656  66.0329530  18.6132391  45.5291396  71.8511571
  18.2782224  45.4892166  72.7469221  18.1136337  44.8636112  71.3781981
  12.5876635  40.9359026  77.3764152  12.4496433  40.2039265  77.9775691
  13.4981558  40.8467926  77.0948340  21.5491583  42.8747430  62.1248631
  20.9320753  42.1494258  62.0281683  21.0808071  43.6356791  61.7815705
  15.2158936  40.6478985  76.8647832  15.9258554  40.0072177  76.8234450
  15.1728244  40.8991880  77.7874013  23.2045714  47.5846339  79.7854411
  23.1458260  46.9005559  79.1184994  23.6065233  48.3265329  79.3335037
  13.9287870  37.6344203  78.6843471  13.3925227  37.1834942  79.3365068
  13.3404578  37.7690112  77.9413936  12.2236413  54.4008252  72.5788130
  12.4633011  55.0326777  73.2567148  11.3805610  54.0496292  72.8653489
  13.3390129  37.0932855  61.2469935  12.4619595  36.9721655  60.8832182
  13.8147882  36.3018933  60.9948824  23.2063122  45.5485923  78.0168391
  22.3189900  45.2111844  78.1394789  23.7761673  44.8168954  78.2537156
   4.8592269  41.8810014  71.3411442   5.5463308  41.5671744  70.7532457
   4.7040397  42.7851379  71.0678693   9.6626991  36.7700211  75.7696466
   9.5785180  36.1625880  75.0346876   8.8409697  37.2609229  75.7705962
  16.7364275  50.2087375  74.9829634  16.6634446  51.0142346  75.4948938
  16.2941668  50.4079341  74.1577655  16.5254055  49.4459145  68.4932455
  15.7421576  49.9880825  68.5870680  17.2246800  49.9633125  68.8926697
  19.8350705  35.2553774  71.1366661  20.3319404  34.5023737  70.8167731
  19.0637686  35.2918091  70.5709870  27.6880462  40.9594140  72.7784952
  27.6770338  41.8418855  72.4078885  26.8197841  40.6065691  72.5839489
  19.1962958  50.1074209  77.1387792  19.9090931  50.7421674  77.0663694
  18.7052987  50.2038075  76.3227794  20.9180485  44.0125462  68.7105084
  19.9836764  44.1326924  68.5409788  21.0957154  43.1097928  68.4465094
  16.4185673  37.3971157  70.8638345  16.0483461  36.8442198  71.5519251
  16.9144766  36.7929291  70.3113345  24.3053037  39.8542781  69.2455118
  24.7713489  40.6870772  69.1715421  24.7560537  39.3887762  69.9500377
  14.2474872  47.8568652  77.9593363  14.9484331  48.4905135  78.1122758
  13.7769987  48.1983384  77.1989003  22.3729268  46.1986602  66.2441270
  22.6489112  46.0843197  67.1535144  21.5033767  45.8004087  66.2053443
  22.2769699  32.2223368  73.2846020  21.3632779  32.4527595  73.4528227
  22.7062801  32.3061812  74.1360052  22.0476158  40.4113260  75.7845914
  21.3947608  40.6589167  75.1298366  22.4256538  39.5977398  75.4508391
  19.0083332  50.4472953  69.8874084  19.1905726  49.6294609  70.3501836
  19.8316318  50.6640645  69.4498974  19.3425497  49.3741138  67.1489132
  19.8713264  48.8633593  66.5359295  19.6053717  49.0583668  68.0134665
  18.0963731  41.1533071  82.2711951  17.4204368  41.0527200  82.9414326
  18.9191365  40.9972285  82.7347948   9.8442590  47.3905007  74.8924466
  10.4296027  46.6448695  75.0252370   9.6467428  47.7008964  75.7761130
  12.6981245  50.4256255  69.9086908  12.0291621  50.9102382  69.4250948
  12.5594115  50.6725475  70.8230287   4.4360245  39.9610608  73.6128909
   4.4744344  39.4274198  74.4066027   3.9300538  39.4345813  72.9939886
  16.8386514  52.4599998  76.5069567  17.3904822  52.6231620  77.2718652
  17.1792707  53.0504436  75.8349592  11.8151007  34.8075148  77.1091451
  11.8792334  35.6689979  76.6968849  11.7518127  34.1949150  76.3763810
  11.2903280  36.8798281  80.7564486  11.9175318  36.4975358  81.3702010
  10.4331198  36.6612483  81.1220178  21.6897388  47.2861256  82.3618221
  22.2337292  47.8991214  81.8673176  21.1084233  47.8440834  82.8785234
   8.0668822  38.6874710  66.6882841   8.3622263  37.7785388  66.6349894
   7.1656858  38.6662449  66.3663843  19.9754901  50.4081974  73.4933249
  19.8506041  49.6071714  72.9844194  20.6333992  50.9028167  73.0047219
  11.5963069  36.7630706  72.6710389  10.8749655  37.3766674  72.5317862
  12.3856325  37.2988471  72.5927035  22.0389810  48.2090994  75.1212799
  21.0920145  48.0896345  75.0491126  22.3872583  47.3213492  75.2039060
  14.3989383  34.0985133  78.9451041  14.9223785  34.3447429  79.7077350
  14.1801716  34.9305168  78.5254178   9.7956664  36.3688807  66.8122166
   9.4669370  35.4886186  66.6297272  10.1496035  36.3136476  67.6998555
  19.0436243  48.0043710  71.3217151  18.8961205  47.0760418  71.5024721
  19.8689736  48.0263801  70.8374226  12.9098487  36.6561777  67.1797643
  13.2494560  37.1847699  66.4576252  13.3570608  36.9942183  67.9556210
  22.6470365  48.8272269  72.4082024  23.5716912  48.6215130  72.2706475
  22.4785668  48.5788670  73.3171365  15.6041928  35.0398828  76.6300711
  15.2638748  34.2406641  77.0321391  14.8980934  35.3400539  76.0577545
  16.2558400  32.1248140  75.0828034  17.0784469  31.6508619  74.9606925
  16.4996463  32.9038624  75.5826721  14.8966634  35.1536399  65.3790936
  15.6174997  35.5317652  64.8754653  14.2731938  35.8725276  65.4825914
  19.0397757  35.8581548  66.3149268  19.2561372  36.7406186  66.0138097
  18.5591824  35.4667761  65.5854910  13.7796979  38.8167261  72.8920013
  13.6341559  39.1307564  73.7844295  13.3022182  39.4352161  72.3390912
  15.6393361  35.8069809  72.9400903  15.6254930  34.9110902  72.6033201
  16.3565789  35.8140473  73.5739189  17.4919492  36.2407149  74.9854030
  17.2337270  37.1624220  74.9838360  16.9604532  35.8437584  75.6754494
  22.4365681  49.3457936  67.7644115  22.6102558  48.7804359  67.0117968
  22.9294572  50.1458831  67.5823605   8.2542641  41.3572605  75.8307674
   7.7096109  42.1332413  75.9627949   9.1321991  41.7043410  75.6726796
  15.0430257  34.6884189  68.2088473  15.1646169  33.7600836  68.4079360
  14.7532300  34.7022875  67.2966788  17.9121448  32.3739100  71.3455193
  17.9343145  32.4378433  70.3907172  18.3289507  31.5343608  71.5395699
  28.2905072  42.1094359  69.3834415  28.7336218  41.3601685  68.9853538
  27.4131582  42.1004496  69.0008147  23.4240853  48.6624701  64.8641014
  24.1191758  49.2831393  65.0828328  23.7664003  47.8120052  65.1393392
   9.0408663  40.4842502  78.7237831   8.2990399  40.6325137  79.3102461
   8.7201407  40.7450767  77.8604580  25.3232276  46.1124406  66.3928344
  25.8483601  46.4511679  65.6677664  25.2354629  45.1771422  66.2091479
  16.9852325  50.0258480  78.5218221  17.2939452  49.7807627  79.3940921
  17.7827807  50.2305118  78.0337091  17.0072937  52.1796390  70.7523598
  16.5677928  51.6872768  71.4456454  17.7581054  51.6369357  70.5115673
   9.4865276  48.3707930  70.7548226  10.3123296  48.0711702  70.3746869
   9.1359328  47.6015553  71.2038014  14.4546809  47.7234399  72.8245899
  13.8326819  47.0605104  72.5248127  15.1251676  47.7495531  72.1419547
   7.6873881  46.2894257  71.7137159   6.8505790  45.8616431  71.5321161
   7.6597527  46.4826700  72.6507950  14.5271337  36.2016187  82.4178405
  14.5759492  37.0778309  82.0356175  15.0693851  35.6593580  81.8450049
  25.0126183  46.7457310  81.6979542  24.2221726  46.7281449  81.1584042
  24.7759537  47.2845604  82.4528579  25.1324058  43.5949776  79.0112271
  25.1822063  43.4299784  79.9527794  25.0237981  42.7277035  78.6210152
  14.0160316  46.2738322  66.3004360  14.1648437  46.9573786  65.6471033
  14.8226760  46.2543412  66.8153816  22.4227820  39.5780704  80.3271578
  23.3237683  39.4387169  80.0355575  22.4975794  39.7435159  81.2669755
  16.7570625  36.9547559  79.1724764  15.8873935  37.2481125  78.9007353
  16.9930106  37.5388004  79.8932028  26.6342254  46.0146718  79.2554292
  26.3427063  46.3776698  80.0917753  26.0214386  45.3013726  79.0767625
  27.8337937  43.5799598  71.7756863  28.6684828  44.0189402  71.9394423
  27.9697066  43.1038251  70.9565108  24.8829443  41.1379332  77.7234350
  25.3583564  41.3306979  76.9153202  23.9595008  41.1938518  77.4777734
  11.7712949  42.3003500  67.3065429  11.5258991  41.3965830  67.5045639
  11.9408864  42.3020650  66.3644907  19.4609659  33.1727176  76.6890184
  19.9791603  33.9088203  76.3636673  19.1064792  33.4791169  77.5236943
  11.0408597  38.0331857  64.8051590  10.3477842  38.1076212  64.1491626
  10.7960349  37.2692201  65.3273107  19.7122253  29.5927459  72.2091081
  19.9924007  28.9250648  72.8351507  20.4972860  29.7856554  71.6965745
  17.5155722  48.7686452  63.7716107  16.9429689  49.3876640  63.3186579
  18.0888515  49.3185814  64.3056029  23.5831112  38.0145093  75.9562656
  24.5348535  38.1143190  75.9774880  23.4134562  37.2223361  76.4660740
  21.6045491  35.1000676  76.1422057  21.0095423  35.3805688  75.4468546
  21.3195188  35.5894577  76.9138798  20.7352982  49.0523603  64.9024690
  21.6683655  48.9869164  65.1057565  20.6476194  49.8879869  64.4439222
  23.3640998  48.3689473  61.8628637  23.2854630  48.0349337  62.7564395
  24.1850665  48.8611241  61.8620109  26.0619189  41.2351212  75.0704956
  26.0295510  40.2967213  75.2564640  26.6719813  41.3135249  74.3370781
  17.9002520  40.1047265  61.1132160  18.8461625  39.9753473  61.1820578
  17.5216765  39.3661927  61.5901588  26.2113678  38.0262256  75.1163239
  25.6952727  37.2420712  74.9293168  27.0953626  37.6980972  75.2809758
  23.8724405  31.7703271  71.0759052  23.6749226  31.4618359  71.9602384
  24.4824110  32.4964910  71.2056981  31.8795739  42.2967219  74.2110993
  32.6099128  42.0352507  74.7718696  31.2702685  41.5595941  74.2513060
  29.9611036  40.4375082  74.8085444  29.2344200  40.3031047  74.2001935
  29.5458323  40.7451910  75.6142162  17.7841213  44.1565011  82.5732817
  18.7044222  44.3343610  82.7672863  17.7490796  43.2121057  82.4212516
  16.0845437  38.0297242  61.0487045  15.1776893  37.7330354  61.1249759
  16.3621418  37.7327060  60.1821331   7.0023378  39.3503605  71.4986091
   6.6826162  38.4968913  71.2060465   6.4556806  39.5652183  72.2544059
  10.7803285  42.0666046  75.2155598  10.9989295  42.9983154  75.2343632
  11.1929059  41.7074020  76.0010402  17.7007503  32.5734131  67.2031286
  16.8908231  32.2281216  67.5786532  18.3891920  32.2641675  67.7918898
  19.6298051  31.6512178  68.8255583  20.1829090  32.0707632  69.4845606
  19.8668138  30.7247926  68.8678539  15.6531151  37.6399252  84.6058347
  15.5527878  38.5893609  84.5370438  15.4352693  37.3117491  83.7334417
  14.8544222  34.8884177  61.1899024  15.7163386  35.2139075  61.4494842
  15.0394566  34.1015673  60.6772090   6.8711638  42.9706516  73.4679213
   6.1775109  42.5560469  72.9549167   7.6184629  43.0127053  72.8712632
  23.0076859  33.7612703  68.3334247  22.4275528  34.4197507  67.9512300
  22.7412791  32.9390048  67.9221665  21.4580425  33.1617761  70.5355568
  21.9580203  33.2734296  69.7269886  22.1016033  32.8578814  71.1756376
  15.5162421  41.0696391  83.4223408  15.0329502  41.8696751  83.6287298
  15.6023360  41.0804335  82.4690852   8.7848380  42.9024770  71.3445228
   8.7619068  43.0012458  70.3927111   9.0949017  43.7489921  71.6662394
  11.4435758  44.9600925  75.4591842  12.3979012  44.9284868  75.3921774
  11.2448282  44.4991549  76.2742068  12.0335140  43.5302041  78.0262640
  12.8528029  44.0246120  78.0497477  12.3071948  42.6134009  77.9980207
  21.7901737  35.9212794  67.3890595  20.9027592  36.2062444  67.1710790
  22.2055726  35.7606557  66.5417872  25.1416273  35.9459315  71.1044935
  25.9176663  36.4355767  71.3769552  24.4164407  36.3717369  71.5616804
  27.5788831  36.6586934  72.1618875  28.1733322  36.4182670  71.4512184
  27.6515415  35.9394064  72.7892412   9.7985987  50.5020545  72.4762040
   9.6640455  49.7420946  71.9100038   9.3818049  51.2261445  72.0090829
  20.9344950  45.6857468  61.4838615  21.6380800  45.8907471  62.0996271
  20.2107599  46.2534230  61.7487699  21.7642760  41.4367330  67.6040886
  21.7077962  41.8935881  66.7648518  22.3171103  40.6758014  67.4263728
  25.5747566  37.2257061  68.4291005  25.3184500  36.8253697  69.2599213
  24.9500434  37.9400855  68.3041144  29.8859904  39.9653135  70.9362297
  29.3259462  40.0346324  71.7093859  29.2803407  39.7894119  70.2161793
  12.9555113  51.3989862  72.6880483  12.8387497  52.3435294  72.5859173
  12.1347559  51.0963423  73.0766282  22.8431647  46.1239998  63.5337075
  23.6777251  45.6921196  63.3514550  22.6815990  45.9522011  64.4613970
  22.4977540  42.6272111  64.8993415  22.4426343  42.4616382  63.9581859
  21.8723595  43.3348144  65.0555605   7.2870055  37.8640175  78.7254837
   7.9328918  37.3539129  79.2142062   7.0787206  38.6008857  79.2998262
  19.8123447  44.9321023  84.2246978  20.6814606  45.1061675  83.8633612
  19.3330198  45.7515440  84.1022707  15.8073665  32.1280220  64.4778733
  15.7952335  33.0722060  64.6347004  16.6997087  31.9450365  64.1838194
  13.9809627  52.0518124  75.9036411  14.8836874  52.0841734  76.2202906
  13.7546997  51.1218575  75.9182747  15.7363229  50.8049110  72.5646490
  14.7858860  50.8050972  72.4510862  16.0395715  50.0581845  72.0482524
  19.6225785  28.7222996  68.7324670  18.8558180  28.1681483  68.8781352
  20.0336490  28.7944865  69.5938822  11.6267546  35.0107792  82.8229851
  12.4899007  34.6544597  83.0333176  11.0532956  34.6721687  83.5105255
  31.4715923  56.6409649  73.6292252  32.1094332  56.5216396  72.9255592
  31.3536765  57.5890493  73.6880204  28.2805629  56.5937077  73.5653777
  27.9424140  56.4778141  72.6774312  29.1495397  56.1928242  73.5454783
  24.1392445  58.4472553  69.5550668  23.5757310  58.3562490  68.7866956
  24.0244840  57.6272458  70.0353160  28.7625412  57.7471928  79.5239982
  28.7514053  57.3524727  78.6520486  28.9246051  57.0138001  80.1173754
  21.6856876  59.9423745  72.3934888  22.4778168  59.6014569  71.9781188
  21.9253527  60.0518720  73.3137042  29.7192003  62.1143521  64.8665133
  29.0679983  62.6997601  64.4799147  30.5136366  62.6449716  64.9260170
  23.6447630  59.2032658  65.2652267  24.4178506  58.6561645  65.1265143
  23.9973029  60.0676907  65.4766729  25.4832673  60.5309040  78.4719166
  25.1922539  61.4354671  78.3565833  26.1189657  60.5725568  79.1863236
  26.4088880  57.9085889  75.0620526  27.0052452  57.6841911  74.3477489
  26.4663851  57.1670634  75.6645974  25.9813908  55.3625324  62.8970717
  26.2339429  54.8406845  62.1354180  25.0438467  55.1991470  62.9997401
  31.0257191  54.3661102  70.7045460  31.8120280  53.9480526  70.3535877
  31.2895895  55.2707195  70.8727109  31.1967268  59.8033953  65.4034117
  30.5613101  59.8768579  66.1155022  30.8664675  60.3927552  64.7253196
  36.4265618  54.3036336  71.6078439  37.1590790  53.7335553  71.8416268
  35.6704974  53.9157936  72.0484944  25.7010197  57.2653430  65.0995092
  25.5846455  56.5898333  65.7676176  25.8112457  56.7785804  64.2827245
  28.0441738  56.7263577  68.8041781  27.6799945  56.1994198  69.5154703
  28.9008854  56.3362046  68.6308267  33.9491038  48.0157910  76.0673047
  33.6174363  48.8853321  75.8434262  33.3536652  47.6994194  76.7467078
  27.6847225  51.7553477  63.8003130  27.8521627  52.6233713  64.1673601
  27.4944394  51.9180759  62.8764419  30.4422558  60.2170456  75.4668960
  30.1423281  61.1195495  75.3584767  30.0973618  59.9502639  76.3190113
  23.8935039  56.6684253  71.5005665  22.9685536  56.5360467  71.7083356
  24.1419453  57.4478472  71.9975607  33.8419702  52.7352996  73.1466397
  32.9336579  52.6668404  72.8525158  33.7907298  53.2124941  73.9748223
  27.6636446  54.2111134  64.7849797  27.5436071  54.6568185  65.6235277
  26.9689034  54.5596452  64.2263335  21.2543851  56.3117526  72.3349454
  21.3836232  56.5652005  73.2488865  20.5741302  56.9045234  72.0154109
  25.4243338  66.9814776  68.4339928  25.3467368  67.9322601  68.5128408
  24.8204981  66.6360649  69.0914854  27.9160568  54.1542642  81.0901295
  27.1393902  54.7136562  81.0804159  28.5551131  54.6399425  81.6116165
  35.7081348  50.9369434  74.9244271  35.0655728  51.2301968  74.2784066
  35.2036277  50.8222355  75.7297468  33.3621512  54.6832608  65.6130131
  34.2739368  54.9159994  65.4377828  32.8531159  55.2669652  65.0505209
  26.1706940  56.9628095  80.6519262  26.9121624  57.5013139  80.3754085
  25.4643925  57.5894384  80.8090814  31.6462280  59.1057235  79.2491423
  32.0545636  58.6639646  78.5046056  30.9239541  58.5309863  79.5025616
  27.9993350  54.0429842  76.6224980  28.8454545  54.4669256  76.7659629
  27.9391987  53.3863466  77.3163543  31.9691094  59.6658426  73.0043712
  31.3399957  59.8304140  72.3019780  31.5816756  60.0800036  73.7754676
  31.1492795  51.7034211  78.2806154  30.9053727  52.4576271  77.7440429
  31.4252725  52.0819558  79.1153401  33.1031258  58.2472823  76.9583419
  33.3148153  58.8904583  76.2817800  33.0561006  57.4135139  76.4905349
  30.7057487  50.8590644  73.8619992  29.8441966  51.1571897  74.1536729
  30.7319921  51.0761042  72.9301024  27.5219056  59.4032834  70.2693797
  27.9857402  59.6820537  69.4798420  27.2575854  58.5016279  70.0866888
  24.4143137  58.9504316  73.2073560  24.9844494  59.3791584  72.5691045
  25.0051249  58.6686900  73.9057746  26.4587942  55.5255986  67.0783362
  27.1611985  55.9777030  67.5457289  26.1268571  54.8839805  67.7063255
  24.9068304  54.1167743  81.4534572  24.2766964  54.7984024  81.6869969
  24.8004392  54.0050825  80.5087710  20.2013276  53.7839539  72.3800496
  19.4112330  54.0397068  71.9040607  20.6924523  54.5987877  72.4852536
  34.2177086  61.1244778  75.1305777  35.0394529  60.7224966  74.8488458
  34.2139489  61.0213012  76.0821893  22.1528021  54.1484118  69.3383973
  21.3559185  54.2602813  69.8567468  21.9253614  54.4870771  68.4724863
  27.9833689  60.6728822  77.2866487  28.0478122  61.1349229  78.1224659
  27.2744613  60.0426187  77.4148797  18.4850979  54.0370030  74.8115487
  18.7359017  54.9217040  75.0773063  19.0210527  53.8574631  74.0390579
  27.6981707  62.3396929  67.1545468  27.5627382  63.1848465  67.5830315
  28.2391519  62.5416207  66.3911401  24.1849046  48.4188509  83.8159823
  23.7915992  47.8654708  84.4907467  25.0015187  48.7299087  84.2066340
  21.1511104  59.8572367  67.7273393  21.6635625  60.6515617  67.8778957
  21.8033817  59.1598658  67.6606994  22.9605989  62.9738123  69.8096146
  23.1372617  63.8956088  69.6217130  23.7562822  62.6596543  70.2390526
  27.1017007  49.8346388  81.4080079  27.8426721  50.4353541  81.3284542
  27.3334930  49.0924026  80.8498122  22.2458345  55.0202755  79.6858309
  22.1311861  54.1188013  79.9865408  21.3902863  55.2666452  79.3343126
  29.3250183  62.9620496  81.2845810  28.8814037  62.1756874  80.9666714
  29.9867397  63.1499646  80.6189700  24.0837304  64.4916297  75.8106488
  24.6344729  64.3633361  75.0383482  23.2448780  64.7911186  75.4601381
  31.4231421  63.2423296  79.3127211  31.4049897  64.0632177  78.8207480
  32.3451341  63.1177371  79.5377352  27.8804475  60.7567425  80.1550719
  28.4132812  59.9955713  79.9250027  27.3518556  60.4641077  80.8974874
  31.0474170  45.8627491  75.6844361  30.7038440  46.7529133  75.6083472
  31.4153133  45.6729149  74.8213946  19.1160021  58.1861021  68.5032963
  19.9535243  58.5958030  68.2866671  19.2938289  57.2460464  68.4733157
  31.0124453  55.8536102  64.1916796  30.4971076  56.6240707  64.4305184
  30.7401761  55.1801238  64.8149858  28.5971564  50.6985803  69.2502035
  27.7413160  50.3092653  69.0707673  29.0098516  50.7777764  68.3901820
  30.1270711  48.2332146  73.6493594  29.6235506  48.1962281  72.8361400
  30.4201318  49.1424889  73.7090251  26.3713597  48.3170876  72.6559776
  27.2366593  48.1213685  72.2965665  26.4391105  48.0881228  73.5829133
  30.8010756  53.7263194  66.0176577  30.4960892  54.0409343  66.8686720
  31.7541198  53.8044614  66.0603910  29.2457188  59.8853418  67.6669531
  28.7178550  59.1506177  67.3542769  28.7444691  60.6628094  67.4209500
  34.2250034  58.0802438  72.7836578  33.5673709  58.7701699  72.8716706
  35.0290433  58.4698870  73.1270564  23.9775916  50.5473084  70.0276143
  24.5519668  50.3248265  69.2949336  24.5646898  50.6161778  70.7804744
  33.0355493  56.4346811  70.8340519  33.5487375  57.0676803  71.3362229
  33.6856717  55.8348006  70.4683879  24.3045503  52.5777545  64.0472028
  23.4682815  52.9152231  64.3681303  24.1650272  52.4426525  63.1099165
  26.2798583  47.4214333  68.7551212  25.6262996  47.1063350  68.1307827
  26.2379058  46.7990073  69.4811035  27.3909788  57.7033628  60.6704504
  26.4836850  57.4722881  60.8695653  27.8880820  56.9071247  60.8578486
  30.2977867  66.4131135  63.5901190  29.6239566  66.7162832  64.1986148
  30.6843689  67.2160215  63.2406648  29.5136324  53.9096266  73.0798860
  28.5958885  54.1311213  72.9220548  29.9296467  53.9842577  72.2210567
  30.2971371  55.3087682  68.2101540  31.0443190  55.8209079  67.9008662
  30.5662961  54.9871735  69.0705934  28.5698022  57.8046223  65.1928494
  27.6609241  57.5205255  65.2900964  28.5993105  58.2245301  64.3331801
  32.7450209  52.3444798  70.1920329  32.0072965  51.8322184  70.5230572
  32.9976982  51.9045180  69.3803606  32.8461836  45.1221050  70.7862099
  33.1520713  44.2618414  70.4988014  33.5714441  45.7138670  70.5861093
  19.1386192  55.5251737  69.1743697  18.9410592  54.9321097  68.4494763
  18.5832856  55.2203947  69.8919635  27.1182916  55.4174843  71.2938290
  27.1731525  54.4648680  71.2180766  26.3074118  55.5734282  71.7779588
  28.2674109  59.3454966  62.5316573  27.8293539  58.6290825  62.0722210
  29.0084550  59.5731081  61.9701664  25.0575276  54.0351903  69.0528669
  24.2443141  54.3346074  69.4593861  25.5534270  53.6407592  69.7703151
  27.2083854  64.0309660  70.9862933  27.1660032  64.2570506  70.0571465
  28.1246552  63.7973034  71.1348734  30.6549487  54.4993727  77.8843563
  31.0098875  54.7265201  78.7438028  31.3021619  54.8312104  77.2620818
  24.5489350  51.6070259  74.6689904  25.1888730  51.4659018  73.9712867
  23.7166881  51.3204772  74.2928506  25.3249654  60.9072689  70.7824896
  26.1190253  60.4123009  70.5807471  24.6141347  60.3790552  70.4192602
  30.1444499  63.2890784  75.1337264  30.1981521  63.8581721  75.9014980
  29.2759280  63.4592669  74.7691301  21.6332418  55.0515771  66.8584649
  20.7030006  54.9900226  67.0754611  21.7289890  54.5291723  66.0621290
  21.5517967  51.5770583  69.4462890  21.8124784  52.4915917  69.3372051
  22.3735139  51.1095026  69.5959503  23.0242892  52.9908341  76.6161715
  23.6965946  52.7825703  75.9674364  22.1972679  52.7930427  76.1766947
  37.2732153  59.7312391  76.1337048  37.4668044  60.6358202  76.3796323
  37.1732772  59.2719810  76.9675633  28.9268464  49.6170282  78.6327376
  28.2796379  50.3160231  78.5391852  29.6969480  50.0506426  79.0003624
  32.3347262  59.8819134  81.7077929  32.1832769  59.6529685  80.7908013
  32.3251942  60.8389735  81.7209274  29.1032599  57.4551046  76.6924196
  30.0324659  57.6062206  76.5193163  28.6823629  57.5435067  75.8372842
  27.9020930  61.4801711  74.4622733  27.7632016  61.1120495  75.3348671
  27.1135527  61.9949350  74.2906691  28.4969082  66.5810807  65.8048270
  28.6720838  66.1098851  66.6193892  27.8101870  67.2076574  66.0329530
  23.4270389  56.2650944  77.3764152  23.2890187  55.5331182  77.9775691
  24.3375313  56.1759844  77.0948340  26.0552690  55.9770903  76.8647832
  26.7652309  55.3364095  76.8234450  26.0121998  56.2283798  77.7874013
  34.0439469  62.9138256  79.7854411  33.9852015  62.2297476  79.1184994
  34.4458987  63.6557246  79.3335037  24.7681624  52.9636121  78.6843471
  24.2318981  52.5126859  79.3365068  24.1798332  53.0982030  77.9413936
  23.0630168  69.7300170  72.5788130  23.3026766  70.3618694  73.2567148
  22.2199364  69.3788210  72.8653489  24.1783883  52.4224772  61.2469935
  23.3013349  52.3013573  60.8832182  24.6541636  51.6310851  60.9948824
  34.0456876  60.8777840  78.0168391  33.1583655  60.5403762  78.1394789
  34.6155427  60.1460871  78.2537156  15.6986023  57.2101932  71.3411442
  16.3857063  56.8963662  70.7532457  15.5434152  58.1143297  71.0678693
  20.5020745  52.0992129  75.7696466  20.4178934  51.4917798  75.0346876
  19.6803452  52.5901147  75.7705962  27.5758029  65.5379293  74.9829634
  27.5028201  66.3434264  75.4948938  27.1335423  65.7371258  74.1577655
  27.3647809  64.7751063  68.4932455  26.5815331  65.3172743  68.5870680
  28.0640554  65.2925042  68.8926697  30.6744459  50.5845692  71.1366661
  31.1713159  49.8315654  70.8167731  29.9031441  50.6210009  70.5709870
  38.5274217  56.2886058  72.7784952  38.5164093  57.1710773  72.4078885
  37.6591596  55.9357608  72.5839489  30.0356713  65.4366127  77.1387792
  30.7484685  66.0713591  77.0663694  29.5446742  65.5329993  76.3227794
  27.2579428  52.7263075  70.8638345  26.8877215  52.1734115  71.5519251
  27.7538520  52.1221209  70.3113345  35.1446791  55.1834699  69.2455118
  35.6107243  56.0162690  69.1715421  35.5954292  54.7179680  69.9500377
  25.0868626  63.1860570  77.9593363  25.7878086  63.8197053  78.1122758
  24.6163741  63.5275302  77.1989003  33.1163454  47.5515286  73.2846020
  32.2026534  47.7819512  73.4528227  33.5456555  47.6353730  74.1360052
  32.8869912  55.7405178  75.7845914  32.2341363  55.9881085  75.1298366
  33.2650292  54.9269316  75.4508391  29.8477086  65.7764871  69.8874084
  30.0299481  64.9586527  70.3501836  30.6710072  65.9932563  69.4498974
  30.1819252  64.7033056  67.1489132  30.7107018  64.1925510  66.5359295
  30.4447471  64.3875586  68.0134665  28.9357485  56.4824989  82.2711951
  28.2598122  56.3819118  82.9414326  29.7585119  56.3264202  82.7347948
  20.6836345  62.7196925  74.8924466  21.2689781  61.9740613  75.0252370
  20.4861183  63.0300882  75.7761130  23.5375000  65.7548173  69.9086908
  22.8685375  66.2394300  69.4250948  23.3987869  66.0017393  70.8230287
  15.2753999  55.2902525  73.6128909  15.3138099  54.7566116  74.4066027
  14.7694292  54.7637731  72.9939886  27.6780268  67.7891916  76.5069567
  28.2298576  67.9523538  77.2718652  28.0186462  68.3796354  75.8349592
  22.6544762  50.1367066  77.1091451  22.7186088  50.9981897  76.6968849
  22.5911882  49.5241067  76.3763810  22.1297034  52.2090198  80.7564486
  22.7569073  51.8267276  81.3702010  21.2724953  51.9904400  81.1220178
  32.5291143  62.6153174  82.3618221  33.0731047  63.2283132  81.8673176
  31.9477988  63.1732752  82.8785234  18.9062577  54.0166627  66.6882841
  19.2016018  53.1077306  66.6349894  18.0050613  53.9954367  66.3663843
  30.8148656  65.7373892  73.4933249  30.6899795  64.9363631  72.9844194
  31.4727747  66.2320085  73.0047219  22.4356824  52.0922624  72.6710389
  21.7143410  52.7058592  72.5317862  23.2250080  52.6280389  72.5927035
  32.8783564  63.5382912  75.1212799  31.9313900  63.4188263  75.0491126
  33.2266337  62.6505410  75.2039060  25.2383137  49.4277051  78.9451041
  25.7617539  49.6739347  79.7077350  25.0195471  50.2597085  78.5254178
  20.6350418  51.6980725  66.8122166  20.3063125  50.8178104  66.6297272
  20.9889789  51.6428394  67.6998555  23.7492242  51.9853695  67.1797643
  24.0888314  52.5139616  66.4576252  24.1964362  52.3234101  67.9556210
  26.4435682  50.3690746  76.6300711  26.1032503  49.5698559  77.0321391
  25.7374689  50.6692457  76.0577545  27.0952154  47.4540058  75.0828034
  27.9178224  46.9800536  74.9606925  27.3390218  48.2330542  75.5826721
  25.7360389  50.4828317  65.3790936  26.4568751  50.8609569  64.8754653
  25.1125693  51.2017193  65.4825914  29.8791512  51.1873466  66.3149268
  30.0955126  52.0698103  66.0138097  29.3985579  50.7959679  65.5854910
  24.6190733  54.1459179  72.8920013  24.4735314  54.4599482  73.7844295
  24.1415937  54.7644079  72.3390912  26.4787116  51.1361727  72.9400903
  26.4648685  50.2402820  72.6033201  27.1959544  51.1432390  73.5739189
  28.3313247  51.5699067  74.9854030  28.0731024  52.4916138  74.9838360
  27.7998287  51.1729501  75.6754494  19.0936395  56.6864523  75.8307674
  18.5489863  57.4624331  75.9627949  19.9715745  57.0335328  75.6726796
  25.8824012  50.0176107  68.2088473  26.0039923  49.0892753  68.4079360
  25.5926054  50.0314793  67.2966788  28.7515202  47.7031017  71.3455193
  28.7736899  47.7670351  70.3907172  29.1683261  46.8635526  71.5395699
  19.8802417  55.8134419  78.7237831  19.1384153  55.9617055  79.3102461
  19.5595161  56.0742685  77.8604580  27.8246080  65.3550398  78.5218221
  28.1333206  65.1099544  79.3940921  28.6221562  65.5597036  78.0337091
  27.8466692  67.5088307  70.7523598  27.4071682  67.0164686  71.4456454
  28.5974809  66.9661275  70.5115673  20.3259031  63.6999848  70.7548226
  21.1517051  63.4003620  70.3746869  19.9753083  62.9307471  71.2038014
  25.2940564  63.0526316  72.8245899  24.6720573  62.3897021  72.5248127
  25.9645431  63.0787448  72.1419547  18.5267636  61.6186175  71.7137159
  17.6899544  61.1908349  71.5321161  18.4991281  61.8118618  72.6507950
  25.3665091  51.5308104  82.4178405  25.4153247  52.4070227  82.0356175
  25.9087606  50.9885497  81.8450049  35.8519937  62.0749228  81.6979542
  35.0615481  62.0573366  81.1584042  35.6153292  62.6137521  82.4528579
  35.9717812  58.9241694  79.0112271  36.0215817  58.7591701  79.9527794
  35.8631735  58.0568953  78.6210152  24.8554071  61.6030240  66.3004360
  25.0042191  62.2865704  65.6471033  25.6620514  61.5835330  66.8153816
  33.2621574  54.9072622  80.3271578  34.1631437  54.7679087  80.0355575
  33.3369549  55.0727077  81.2669755  27.5964380  52.2839477  79.1724764
  26.7267689  52.5773043  78.9007353  27.8323860  52.8679922  79.8932028
  37.4736009  61.3438636  79.2554292  37.1820817  61.7068616  80.0917753
  36.8608140  60.6305644  79.0767625  35.7223197  56.4671250  77.7234350
  36.1977319  56.6598896  76.9153202  34.7988763  56.5230436  77.4777734
  22.6106704  57.6295417  67.3065429  22.3652746  56.7257747  67.5045639
  22.7802618  57.6312568  66.3644907  30.3003414  48.5019094  76.6890184
  30.8185357  49.2380121  76.3636673  29.9458546  48.8083087  77.5236943
  21.8802351  53.3623775  64.8051590  21.1871596  53.4368130  64.1491626
  21.6354103  52.5984119  65.3273107  30.5516008  44.9219376  72.2091081
  30.8317762  44.2542565  72.8351507  31.3366615  45.1148472  71.6965745
  28.3549476  64.0978370  63.7716107  27.7823443  64.7168557  63.3186579
  28.9282270  64.6477732  64.3056029  34.4224866  53.3437010  75.9562656
  35.3742289  53.4435108  75.9774880  34.2528317  52.5515279  76.4660740
  32.4439246  50.4292593  76.1422057  31.8489178  50.7097606  75.4468546
  32.1588942  50.9186494  76.9138798  36.9012944  56.5643130  75.0704956
  36.8689264  55.6259131  75.2564640  37.5113568  56.6427167  74.3370781
  28.7396275  55.4339183  61.1132160  29.6855380  55.3045391  61.1820578
  28.3610520  54.6953845  61.5901588  37.0507432  53.3554173  75.1163239
  36.5346481  52.5712630  74.9293168  37.9347381  53.0272890  75.2809758
  34.7118159  47.0995189  71.0759052  34.5142980  46.7910277  71.9602384
  35.3217865  47.8256828  71.2056981  28.6234967  59.4856929  82.5732817
  29.5437977  59.6635528  82.7672863  28.5884550  58.5412974  82.4212516
  26.9239192  53.3589159  61.0487045  26.0170647  53.0622272  61.1249759
  27.2015173  53.0618977  60.1821331  17.8417132  54.6795523  71.4986091
  17.5219917  53.8260831  71.2060465  17.2950561  54.8944101  72.2544059
  21.6197040  57.3957964  75.2155598  21.8383050  58.3275071  75.2343632
  22.0322814  57.0365938  76.0010402  28.5401258  47.9026049  67.2031286
  27.7301986  47.5573134  67.5786532  29.2285675  47.5933593  67.7918898
  30.4691806  46.9804096  68.8255583  31.0222845  47.3999549  69.4845606
  30.7061892  46.0539844  68.8678539  26.4924905  52.9691169  84.6058347
  26.3921632  53.9185526  84.5370438  26.2746447  52.6409408  83.7334417
  25.6937977  50.2176094  61.1899024  26.5557141  50.5430993  61.4494842
  25.8788321  49.4307590  60.6772090  17.7105392  58.2998434  73.4679213
  17.0168864  57.8852387  72.9549167  18.4578383  58.3418971  72.8712632
  33.8470613  49.0904621  68.3334247  33.2669282  49.7489425  67.9512300
  33.5806546  48.2681966  67.9221665  32.2974179  48.4909679  70.5355568
  32.7973958  48.6026213  69.7269886  32.9409787  48.1870732  71.1756376
  26.3556175  56.3988308  83.4223408  25.8723257  57.1988668  83.6287298
  26.4417114  56.4096253  82.4690852  19.6242135  58.2316688  71.3445228
  19.6012823  58.3304375  70.3927111  19.9342771  59.0781839  71.6662394
  22.2829513  60.2892843  75.4591842  23.2372766  60.2576785  75.3921774
  22.0842036  59.8283467  76.2742068  22.8728895  58.8593959  78.0262640
  23.6921784  59.3538038  78.0497477  23.1465703  57.9425927  77.9980207
  32.6295491  51.2504711  67.3890595  31.7421346  51.5354362  67.1710790
  33.0449480  51.0898475  66.5417872  35.9810027  51.2751232  71.1044935
  36.7570417  51.7647685  71.3769552  35.2558161  51.7009287  71.5616804
  38.4182586  51.9878852  72.1618875  39.0127077  51.7474587  71.4512184
  38.4909170  51.2685982  72.7892412  20.6379742  65.8312462  72.4762040
  20.5034209  65.0712863  71.9100038  20.2211804  66.5553362  72.0090829
  32.6036515  56.7659247  67.6040886  32.5471716  57.2227799  66.7648518
  33.1564857  56.0049932  67.4263728  36.4141321  52.5548979  68.4291005
  36.1578255  52.1545615  69.2599213  35.7894189  53.2692773  68.3041144
  40.7253659  55.2945052  70.9362297  40.1653217  55.3638242  71.7093859
  40.1197162  55.1186037  70.2161793  23.7948867  66.7281780  72.6880483
  23.6781252  67.6727212  72.5859173  22.9741314  66.4255341  73.0766282
  18.1263809  53.1932093  78.7254837  18.7722673  52.6831047  79.2142062
  17.9180960  53.9300775  79.2998262  30.6517201  60.2612940  84.2246978
  31.5208361  60.4353593  83.8633612  30.1723953  61.0807357  84.1022707
  26.6467420  47.4572138  64.4778733  26.6346089  48.4013977  64.6347004
  27.5390841  47.2742283  64.1838194  24.8203382  67.3810041  75.9036411
  25.7230628  67.4133652  76.2202906  24.5940752  66.4510492  75.9182747
  26.5756984  66.1341028  72.5646490  25.6252615  66.1342890  72.4510862
  26.8789470  65.3873763  72.0482524  30.4619539  44.0514914  68.7324670
  29.6951935  43.4973401  68.8781352  30.8730244  44.1236783  69.5938822
  22.4661300  50.3399710  82.8229851  23.3292762  49.9836515  83.0333176
  21.8926711  50.0013605  83.5105255  39.6019166  73.0763846  79.5239982
  39.5907807  72.6816644  78.6520486  39.7639806  72.3429919  80.1173754
  32.5250631  75.2715662  72.3934888  33.3171923  74.9306487  71.9781188
  32.7647281  75.3810637  73.3137042  40.5585758  77.4435439  64.8665133
  39.9073737  78.0289519  64.4799147  41.3530121  77.9741633  64.9260170
  34.4841385  74.5324576  65.2652267  35.2572261  73.9853563  65.1265143
  34.8366784  75.3968825  65.4766729  36.3226427  75.8600958  78.4719166
  36.0316293  76.7646589  78.3565833  36.9583412  75.9017486  79.1863236
  37.2482634  73.2377806  75.0620526  37.8446207  73.0133829  74.3477489
  37.3057606  72.4962552  75.6645974  41.2816313  75.5462373  75.4668960
  40.9817036  76.4487412  75.3584767  40.9367372  75.2794557  76.3190113
  36.2637092  82.3106694  68.4339928  36.1861122  83.2614519  68.5128408
  35.6598736  81.9652566  69.0914854  38.7554322  69.4834559  81.0901295
  37.9787656  70.0428479  81.0804159  39.3944885  69.9691342  81.6116165
  37.0100694  72.2920013  80.6519262  37.7515379  72.8305057  80.3754085
  36.3037680  72.9186301  80.8090814  42.4856034  74.4349153  79.2491423
  42.8939390  73.9931564  78.5046056  41.7633296  73.8601781  79.5025616
  35.2536892  74.2796233  73.2073560  35.8238249  74.7083502  72.5691045
  35.8445003  73.9978818  73.9057746  35.7462058  69.4459661  81.4534572
  35.1160719  70.1275942  81.6869969  35.6398146  69.3342742  80.5087710
  45.0570840  76.4536696  75.1305777  45.8788284  76.0516883  74.8488458
  45.0533243  76.3504930  76.0821893  38.8227444  76.0020739  77.2866487
  38.8871876  76.4641147  78.1224659  38.1138367  75.3718104  77.4148797
  29.3244734  69.3661947  74.8115487  29.5752772  70.2508957  75.0773063
  29.8604282  69.1866549  74.0390579  38.5375461  77.6688847  67.1545468
  38.4021136  78.5140383  67.5830315  39.0785274  77.8708124  66.3911401
  35.0242801  63.7480427  83.8159823  34.6309746  63.1946625  84.4907467
  35.8408941  64.0591005  84.2066340  31.9904859  75.1864285  67.7273393
  32.5029379  75.9807535  67.8778957  32.6427571  74.4890575  67.6606994
  33.7999743  78.3030041  69.8096146  33.9766372  79.2248006  69.6217130
  34.5956577  77.9888460  70.2390526  33.0852100  70.3494673  79.6858309
  32.9705615  69.4479930  79.9865408  32.2296618  70.5958370  79.3343126
  40.1643938  78.2912413  81.2845810  39.7207792  77.5048792  80.9666714
  40.8261151  78.4791564  80.6189700  34.9231059  79.8208215  75.8106488
  35.4738484  79.6925278  75.0383482  34.0842535  80.1203104  75.4601381
  42.2625176  78.5715213  79.3127211  42.2443651  79.3924094  78.8207480
  43.1845096  78.4469288  79.5377352  38.7198230  76.0859343  80.1550719
  39.2526567  75.3247631  79.9250027  38.1912311  75.7932995  80.8974874
  29.9553775  73.5152939  68.5032963  30.7928997  73.9249947  68.2866671
  30.1332043  72.5752381  68.4733157  41.1371622  81.7423053  63.5901190
  40.4633320  82.0454749  64.1986148  41.5237444  82.5452133  63.2406648
  43.0843983  78.5821227  69.8969480  43.3766957  79.1426284  69.1781846
  43.5942603  78.8749787  70.6522639  29.9779947  70.8543654  69.1743697
  29.7804346  70.2613015  68.4494763  29.4226611  70.5495865  69.8919635
  38.0477608  79.3601578  70.9862933  38.0053787  79.5862424  70.0571465
  38.9640307  79.1264952  71.1348734  36.1643409  76.2364607  70.7824896
  36.9584007  75.7414927  70.5807471  35.4535101  75.7082470  70.4192602
  40.9838253  78.6182702  75.1337264  41.0375276  79.1873638  75.9014980
  40.1153035  78.7884587  74.7691301  33.8636647  68.3200258  76.6161715
  34.5359700  68.1117620  75.9674364  33.0366433  68.1222344  76.1766947
  43.1741017  75.2111051  81.7077929  43.0226523  74.9821603  80.7908013
  43.1645696  76.1681653  81.7209274  39.9426353  72.7842964  76.6924196
  40.8718413  72.9354124  76.5193163  39.5217383  72.8726985  75.8372842
  38.7414685  76.8093629  74.4622733  38.6025770  76.4412413  75.3348671
  37.9529281  77.3241268  74.2906691  39.3362837  81.9102725  65.8048270
  39.5114592  81.4390768  66.6193892  38.6495625  82.5368491  66.0329530
  34.2664144  71.5942861  77.3764152  34.1283942  70.8623100  77.9775691
  35.1769067  71.5051761  77.0948340  36.8946445  71.3062821  76.8647832
  37.6046063  70.6656013  76.8234450  36.8515753  71.5575715  77.7874013
  44.8833223  78.2430174  79.7854411  44.8245769  77.5589394  79.1184994
  45.2852742  78.9849164  79.3335037  35.6075379  68.2928039  78.6843471
  35.0712736  67.8418777  79.3365068  35.0192087  68.4273947  77.9413936
  33.9023922  85.0592088  72.5788130  34.1420520  85.6910612  73.2567148
  33.0593119  84.7080128  72.8653489  35.0177637  67.7516690  61.2469935
  34.1407104  67.6305491  60.8832182  35.4935391  66.9602768  60.9948824
  44.8850631  76.2069758  78.0168391  43.9977409  75.8695680  78.1394789
  45.4549182  75.4752789  78.2537156  26.5379778  72.5393850  71.3411442
  27.2250817  72.2255580  70.7532457  26.3827906  73.4435214  71.0678693
  31.3414500  67.4284046  75.7696466  31.2572689  66.8209716  75.0346876
  30.5197206  67.9193065  75.7705962  38.4151784  80.8671210  74.9829634
  38.3421955  81.6726182  75.4948938  37.9729177  81.0663176  74.1577655
  38.2041564  80.1042980  68.4932455  37.4209085  80.6464660  68.5870680
  38.9034309  80.6216960  68.8926697  40.8750467  80.7658044  77.1387792
  41.5878440  81.4005509  77.0663694  40.3840496  80.8621910  76.3227794
  35.9262381  78.5152488  77.9593363  36.6271840  79.1488971  78.1122758
  35.4557496  78.8567219  77.1989003  40.6870841  81.1056788  69.8874084
  40.8693235  80.2878444  70.3501836  41.5103827  81.3224481  69.4498974
  41.0213006  80.0324974  67.1489132  41.5500773  79.5217428  66.5359295
  41.2841226  79.7167504  68.0134665  39.7751240  71.8116906  82.2711951
  39.0991877  71.7111036  82.9414326  40.5978874  71.6556120  82.7347948
  31.5230099  78.0488843  74.8924466  32.1083536  77.3032531  75.0252370
  31.3254937  78.3592800  75.7761130  34.3768754  81.0840090  69.9086908
  33.7079129  81.5686218  69.4250948  34.2381624  81.3309311  70.8230287
  26.1147754  70.6194443  73.6128909  26.1531853  70.0858034  74.4066027
  25.6088047  70.0929649  72.9939886  38.5174023  83.1183834  76.5069567
  39.0692331  83.2815455  77.2718652  38.8580216  83.7088272  75.8349592
  33.4938516  65.4658984  77.1091451  33.5579843  66.3273814  76.6968849
  33.4305636  64.8532985  76.3763810  32.9690789  67.5382116  80.7564486
  33.5962827  67.1559193  81.3702010  32.1118707  67.3196318  81.1220178
  43.3684897  77.9445091  82.3618221  43.9124801  78.5575050  81.8673176
  42.7871742  78.5024670  82.8785234  29.7456331  69.3458545  66.6882841
  30.0409772  68.4369224  66.6349894  28.8444367  69.3246285  66.3663843
  41.6542410  81.0665809  73.4933249  41.5293550  80.2655549  72.9844194
  42.3121501  81.5612003  73.0047219  33.2750578  67.4214542  72.6710389
  32.5537164  68.0350509  72.5317862  34.0643834  67.9572307  72.5927035
  43.7177318  78.8674829  75.1212799  42.7707654  78.7480181  75.0491126
  44.0660092  77.9797327  75.2039060  36.0776892  64.7568968  78.9451041
  36.6011294  65.0031265  79.7077350  35.8589225  65.5889003  78.5254178
  40.7223752  78.6627546  71.3217151  40.5748714  77.7344253  71.5024721
  41.5477245  78.6847636  70.8374226  44.1153190  80.0041772  67.7644115
  44.2890067  79.4388194  67.0117968  44.6082081  80.8042667  67.5823605
  29.9330150  72.0156441  75.8307674  29.3883618  72.7916249  75.9627949
  30.8109500  72.3627245  75.6726796  30.7196172  71.1426337  78.7237831
  29.9777908  71.2908972  79.3102461  30.3988916  71.4034603  77.8604580
  38.6639834  80.6842315  78.5218221  38.9726961  80.4391462  79.3940921
  39.4615316  80.8888954  78.0337091  38.6860446  82.8380225  70.7523598
  38.2465436  82.3456604  71.4456454  39.4368563  82.2953193  70.5115673
  31.1652785  79.0291766  70.7548226  31.9910805  78.7295538  70.3746869
  30.8146837  78.2599388  71.2038014  36.1334318  78.3818234  72.8245899
  35.5114328  77.7188939  72.5248127  36.8039185  78.4079366  72.1419547
  29.3661390  76.9478092  71.7137159  28.5293299  76.5200267  71.5321161
  29.3385036  77.1410536  72.6507950  36.2058846  66.8600022  82.4178405
  36.2547001  67.7362145  82.0356175  36.7481360  66.3177415  81.8450049
  46.6913692  77.4041145  81.6979542  45.9009235  77.3865284  81.1584042
  46.4547046  77.9429439  82.4528579  46.8111567  74.2533612  79.0112271
  46.8609571  74.0883619  79.9527794  46.7025490  73.3860871  78.6210152
  35.6947825  76.9322157  66.3004360  35.8435946  77.6157622  65.6471033
  36.5014269  76.9127247  66.8153816  48.3129763  76.6730553  79.2554292
  48.0214572  77.0360534  80.0917753  47.7001895  75.9597561  79.0767625
  39.1943231  79.4270288  63.7716107  38.6217198  80.0460475  63.3186579
  39.7676024  79.9769650  64.3056029  42.4140491  79.7107438  64.9024690
  43.3471164  79.6453000  65.1057565  42.3263703  80.5463705  64.4439222
  39.4628722  74.8148847  82.5732817  40.3831731  74.9927446  82.7672863
  39.4278305  73.8704892  82.4212516  28.6810887  70.0087440  71.4986091
  28.3613671  69.1552749  71.2060465  28.1344315  70.2236019  72.2544059
  37.3318660  68.2983087  84.6058347  37.2315387  69.2477444  84.5370438
  37.1140202  67.9701326  83.7334417  28.5499147  73.6290352  73.4679213
  27.8562618  73.2144305  72.9549167  29.2972138  73.6710888  72.8712632
  37.1949930  71.7280226  83.4223408  36.7117011  72.5280586  83.6287298
  37.2810869  71.7388171  82.4690852  33.1223267  75.6184761  75.4591842
  34.0766521  75.5868703  75.3921774  32.9235791  75.1575384  76.2742068
  33.7122649  74.1885877  78.0262640  34.5315538  74.6829955  78.0497477
  33.9859457  73.2717845  77.9980207  31.4773496  81.1604380  72.4762040
  31.3427964  80.4004781  71.9100038  31.0605558  81.8845280  72.0090829
  34.6342622  82.0573697  72.6880483  34.5175006  83.0019130  72.5859173
  33.8135068  81.7547259  73.0766282  28.9657564  68.5224011  78.7254837
  29.6116427  68.0122965  79.2142062  28.7574715  69.2592692  79.2998262
  41.4910956  75.5904858  84.2246978  42.3602115  75.7645510  83.8633612
  41.0117707  76.4099275  84.1022707  35.6597136  82.7101959  75.9036411
  36.5624383  82.7425569  76.2202906  35.4334506  81.7802410  75.9182747
  37.4150738  81.4632946  72.5646490  36.4646369  81.4634807  72.4510862
  37.7183224  80.7165680  72.0482524  33.3055055  65.6691628  82.8229851
  34.1686516  65.3128433  83.0333176  32.7320465  65.3305522  83.5105255
  50.4412921  88.4055764  79.5239982  50.4301562  88.0108562  78.6520486
  50.6033560  87.6721836  80.1173754  43.3644385  90.6007580  72.3934888
  44.1565677  90.2598405  71.9781188  43.6041036  90.7102555  73.3137042
  47.1620182  91.1892876  78.4719166  46.8710048  92.0938506  78.3565833
  47.7977166  91.2309403  79.1863236  48.0876389  88.5669724  75.0620526
  48.6839961  88.3425747  74.3477489  48.1451360  87.8254470  75.6645974
  52.1210067  90.8754291  75.4668960  51.8210790  91.7779330  75.3584767
  51.7761127  90.6086474  76.3190113  45.5722548  87.3268088  71.5005665
  44.6473045  87.1944302  71.7083356  45.8206962  88.1062307  71.9975607
  42.9331360  86.9701362  72.3349454  43.0623741  87.2235840  73.2488865
  42.2528811  87.5629070  72.0154109  47.1030847  97.6398611  68.4339928
  47.0254877  98.5906437  68.5128408  46.4992490  97.2944484  69.0914854
  49.5948077  84.8126477  81.0901295  48.8181411  85.3720397  81.0804159
  50.2338640  85.2983260  81.6116165  47.8494449  87.6211930  80.6519262
  48.5909133  88.1596974  80.3754085  47.1431434  88.2478219  80.8090814
  53.3249789  89.7641071  79.2491423  53.7333145  89.3223481  78.5046056
  52.6027050  89.1893698  79.5025616  49.6780859  84.7013678  76.6224980
  50.5242054  85.1253091  76.7659629  49.6179496  84.0447302  77.3163543
  52.8280304  82.3618046  78.2806154  52.5841236  83.1160106  77.7440429
  53.1040234  82.7403393  79.1153401  54.7818767  88.9056658  76.9583419
  54.9935662  89.5488418  76.2817800  54.7348515  88.0718975  76.4905349
  46.0930646  89.6088151  73.2073560  46.6632003  90.0375419  72.5691045
  46.6838758  89.3270736  73.9057746  46.5855813  84.7751578  81.4534572
  45.9554473  85.4567859  81.6869969  46.4791901  84.6634660  80.5087710
  41.8800785  84.4423374  72.3800496  41.0899839  84.6980903  71.9040607
  42.3712032  85.2571712  72.4852536  55.8964595  91.7828614  75.1305777
  56.7182038  91.3808801  74.8488458  55.8926997  91.6796848  76.0821893
  43.8315530  84.8067954  69.3383973  43.0346694  84.9186648  69.8567468
  43.6041123  85.1454606  68.4724863  49.6621198  91.3312657  77.2866487
  49.7265631  91.7933064  78.1224659  48.9532122  90.7010022  77.4148797
  40.1638488  84.6953865  74.8115487  40.4146526  85.5800875  75.0773063
  40.6998036  84.5158466  74.0390579  45.8636555  79.0772344  83.8159823
  45.4703501  78.5238543  84.4907467  46.6802696  79.3882923  84.2066340
  42.8298613  90.5156202  67.7273393  43.3423134  91.3099453  67.8778957
  43.4821326  89.8182493  67.6606994  44.6393498  93.6321959  69.8096146
  44.8160126  94.5539923  69.6217130  45.4350331  93.3180378  70.2390526
  48.7804516  80.4930223  81.4080079  49.5214230  81.0937377  81.3284542
  49.0122439  79.7507861  80.8498122  43.9245854  85.6786591  79.6858309
  43.8099369  84.7771848  79.9865408  43.0690372  85.9250287  79.3343126
  51.0037692  93.6204331  81.2845810  50.5601546  92.8340710  80.9666714
  51.6654906  93.8083481  80.6189700  45.7624813  95.1500133  75.8106488
  46.3132238  95.0217196  75.0383482  44.9236289  95.4495022  75.4601381
  53.1018930  93.9007131  79.3127211  53.0837406  94.7216012  78.8207480
  54.0238850  93.7761206  79.5377352  49.5591984  91.4151260  80.1550719
  50.0920321  90.6539549  79.9250027  49.0306065  91.1224912  80.8974874
  40.7947530  88.8444857  68.5032963  41.6322752  89.2541865  68.2866671
  40.9725798  87.9044299  68.4733157  50.2759073  81.3569638  69.2502035
  49.4200669  80.9676489  69.0707673  50.6886025  81.4361599  68.3901820
  45.6563425  81.2056919  70.0276143  46.2307177  80.9832101  69.2949336
  46.2434407  81.2745614  70.7804744  45.9833012  83.2361380  64.0472028
  45.1470324  83.5736067  64.3681303  45.8437781  83.1010360  63.1099165
  51.9765376  97.0714970  63.5901190  51.3027075  97.3746667  64.1986148
  52.3631198  97.8744051  63.2406648  40.8173701  86.1835572  69.1743697
  40.6198101  85.5904933  68.4494763  40.2620365  85.8787782  69.8919635
  48.8871362  94.6893495  70.9862933  48.8447541  94.9154342  70.0571465
  49.8034061  94.4556870  71.1348734  52.3336996  85.1577563  77.8843563
  52.6886384  85.3849036  78.7438028  52.9809128  85.4895940  77.2620818
  47.0037163  91.5656524  70.7824896  47.7977762  91.0706844  70.5807471
  46.2928856  91.0374387  70.4192602  51.8232008  93.9474620  75.1337264
  51.8769030  94.5165556  75.9014980  50.9546789  94.1176505  74.7691301
  43.2305476  82.2354419  69.4462890  43.4912293  83.1499752  69.3372051
  44.0522648  81.7678861  69.5959503  44.7030401  83.6492176  76.6161715
  45.3753455  83.4409538  75.9674364  43.8760188  83.4514262  76.1766947
  58.9519662  90.3896226  76.1337048  59.1455552  91.2942037  76.3796323
  58.8520281  89.9303645  76.9675633  50.6055973  80.2754117  78.6327376
  49.9583888  80.9744067  78.5391852  51.3756989  80.7090261  79.0003624
  54.0134771  90.5402969  81.7077929  53.8620277  90.3113521  80.7908013
  54.0039451  91.4973571  81.7209274  50.7820107  88.1134882  76.6924196
  51.7112167  88.2646041  76.5193163  50.3611138  88.2018903  75.8372842
  49.5808439  92.1385546  74.4622733  49.4419525  91.7704331  75.3348671
  48.7923035  92.6533186  74.2906691  50.1756591  97.2394643  65.8048270
  50.3508347  96.7682686  66.6193892  49.4889379  97.8660409  66.0329530
  45.1057898  86.9234779  77.3764152  44.9677696  86.1915018  77.9775691
  46.0162822  86.8343679  77.0948340  47.7340199  86.6354738  76.8647832
  48.4439818  85.9947931  76.8234450  47.6909507  86.8867633  77.7874013
  55.7226978  93.5722092  79.7854411  55.6639524  92.8881312  79.1184994
  56.1246496  94.3141082  79.3335037  46.4469133  83.6219956  78.6843471
  45.9106490  83.1710695  79.3365068  45.8585841  83.7565865  77.9413936
  44.7417677 100.3884005  72.5788130  44.9814275 101.0202530  73.2567148
  43.8986873 100.0372046  72.8653489  55.7244385  91.5361676  78.0168391
  54.8371164  91.1987597  78.1394789  56.2942936  90.8044707  78.2537156
  37.3773532  87.8685767  71.3411442  38.0644572  87.5547497  70.7532457
  37.2221661  88.7727132  71.0678693  42.1808254  82.7575964  75.7696466
  42.0966443  82.1501633  75.0346876  41.3590961  83.2484982  75.7705962
  49.2545538  96.1963128  74.9829634  49.1815710  97.0018099  75.4948938
  48.8122931  96.3955094  74.1577655  49.0435318  95.4334898  68.4932455
  48.2602840  95.9756578  68.5870680  49.7428063  95.9508878  68.8926697
  51.7144222  96.0949962  77.1387792  52.4272194  96.7297427  77.0663694
  51.2234251  96.1913828  76.3227794  48.9366937  83.3846910  70.8638345
  48.5664724  82.8317951  71.5519251  49.4326029  82.7805044  70.3113345
  46.7656135  93.8444405  77.9593363  47.4665595  94.4780888  78.1122758
  46.2951250  94.1859137  77.1989003  51.5264595  96.4348706  69.8874084
  51.7086990  95.6170362  70.3501836  52.3497581  96.6516398  69.4498974
  51.8606761  95.3616891  67.1489132  52.3894527  94.8509346  66.5359295
  52.1234980  95.0459421  68.0134665  50.6144994  87.1408824  82.2711951
  49.9385631  87.0402953  82.9414326  51.4372628  86.9848038  82.7347948
  42.3623854  93.3780760  74.8924466  42.9477290  92.6324448  75.0252370
  42.1648692  93.6884717  75.7761130  45.2162509  96.4132008  69.9086908
  44.5472884  96.8978136  69.4250948  45.0775378  96.6601228  70.8230287
  36.9541508  85.9486361  73.6128909  36.9925608  85.4149951  74.4066027
  36.4481801  85.4221566  72.9939886  49.3567777  98.4475751  76.5069567
  49.9086085  98.6107373  77.2718652  49.6973971  99.0380189  75.8349592
  44.3332271  80.7950901  77.1091451  44.3973597  81.6565732  76.6968849
  44.2699391  80.1824903  76.3763810  43.8084543  82.8674034  80.7564486
  44.4356582  82.4851111  81.3702010  42.9512462  82.6488236  81.1220178
  54.2078652  93.2737009  82.3618221  54.7518556  93.8866967  81.8673176
  53.6265496  93.8316587  82.8785234  40.5850086  84.6750463  66.6882841
  40.8803527  83.7661141  66.6349894  39.6838122  84.6538202  66.3663843
  52.4936165  96.3957727  73.4933249  52.3687304  95.5947467  72.9844194
  53.1515256  96.8903920  73.0047219  44.1144333  82.7506459  72.6710389
  43.3930919  83.3642427  72.5317862  44.9037589  83.2864224  72.5927035
  54.5571073  94.1966747  75.1212799  53.6101409  94.0772098  75.0491126
  54.9053846  93.3089245  75.2039060  46.9170646  80.0860886  78.9451041
  47.4405048  80.3323182  79.7077350  46.6982980  80.9180921  78.5254178
  42.3137927  82.3564561  66.8122166  41.9850634  81.4761939  66.6297272
  42.6677298  82.3012229  67.6998555  45.4279751  82.6437530  67.1797643
  45.7675823  83.1723452  66.4576252  45.8751871  82.9817936  67.9556210
  51.5579021  81.8457301  66.3149268  51.7742635  82.7281939  66.0138097
  51.0773088  81.4543514  65.5854910  46.2978242  84.8043014  72.8920013
  46.1522823  85.1183317  73.7844295  45.8203446  85.4227914  72.3390912
  40.7723904  87.3448358  75.8307674  40.2277372  88.1208166  75.9627949
  41.6503254  87.6919163  75.6726796  41.5589926  86.4718255  78.7237831
  40.8171662  86.6200890  79.3102461  41.2382670  86.7326520  77.8604580
  49.5033589  96.0134233  78.5218221  49.8120715  95.7683380  79.3940921
  50.3009071  96.2180871  78.0337091  49.5254201  98.1672143  70.7523598
  49.0859191  97.6748521  71.4456454  50.2762318  97.6245110  70.5115673
  42.0046540  94.3583683  70.7548226  42.8304560  94.0587455  70.3746869
  41.6540592  93.5891306  71.2038014  46.9728073  93.7110152  72.8245899
  46.3508082  93.0480857  72.5248127  47.6432940  93.7371284  72.1419547
  40.2055145  92.2770010  71.7137159  39.3687053  91.8492184  71.5321161
  40.1778790  92.4702453  72.6507950  47.0452600  82.1891940  82.4178405
  47.0940756  83.0654063  82.0356175  47.5875115  81.6469333  81.8450049
  57.5307446  92.7333063  81.6979542  56.7402990  92.7157202  81.1584042
  57.2940801  93.2721357  82.4528579  57.6505321  89.5825529  79.0112271
  57.7003326  89.4175537  79.9527794  57.5419244  88.7152788  78.6210152
  54.9409083  85.5656457  80.3271578  55.8418946  85.4262922  80.0355575
  55.0157058  85.7310912  81.2669755  49.2751889  82.9423312  79.1724764
  48.4055198  83.2356878  78.9007353  49.5111369  83.5263757  79.8932028
  59.1523518  92.0022471  79.2554292  58.8608326  92.3652451  80.0917753
  58.5395649  91.2889479  79.0767625  57.4010706  87.1255085  77.7234350
  57.8764828  87.3182732  76.9153202  56.4776271  87.1814271  77.4777734
  43.5589860  84.0207610  64.8051590  42.8659105  84.0951965  64.1491626
  43.3141612  83.2567954  65.3273107  56.1012375  84.0020846  75.9562656
  57.0529798  84.1018943  75.9774880  55.9315826  83.2099114  76.4660740
  54.1226755  81.0876429  76.1422057  53.5276687  81.3681442  75.4468546
  53.8376451  81.5770330  76.9138798  55.8822262  94.3565226  61.8628637
  55.8035893  94.0225090  62.7564395  56.7031929  94.8486994  61.8620109
  58.5800453  87.2226965  75.0704956  58.5476773  86.2842966  75.2564640
  59.1901077  87.3011002  74.3370781  50.3022476  90.1440764  82.5732817
  51.2225486  90.3219363  82.7672863  50.2672059  89.1996810  82.4212516
  39.5204641  85.3379358  71.4986091  39.2007426  84.4844666  71.2060465
  38.9738069  85.5527936  72.2544059  43.2984549  88.0541799  75.2155598
  43.5170559  88.9858907  75.2343632  43.7110323  87.6949773  76.0010402
  48.1712414  83.6275005  84.6058347  48.0709141  84.5769362  84.5370438
  47.9533956  83.2993244  83.7334417  47.3725486  80.8759930  61.1899024
  48.2344650  81.2014828  61.4494842  47.5575830  80.0891426  60.6772090
  39.3892901  88.9582270  73.4679213  38.6956373  88.5436222  72.9549167
  40.1365892  89.0002806  72.8712632  48.0343684  87.0572144  83.4223408
  47.5510766  87.8572504  83.6287298  48.1204623  87.0680089  82.4690852
  41.3029644  88.8900523  71.3445228  41.2800332  88.9888211  70.3927111
  41.6130280  89.7365674  71.6662394  43.9617022  90.9476678  75.4591842
  44.9160275  90.9160621  75.3921774  43.7629545  90.4867302  76.2742068
  44.5516404  89.5177794  78.0262640  45.3709293  90.0121873  78.0497477
  44.8253212  88.6009763  77.9980207  42.3167250  96.4896298  72.4762040
  42.1821718  95.7296699  71.9100038  41.8999313  97.2137198  72.0090829
  45.4736376  97.3865615  72.6880483  45.3568761  98.3311047  72.5859173
  44.6528823  97.0839176  73.0766282  39.8051318  83.8515928  78.7254837
  40.4510182  83.3414882  79.2142062  39.5968469  84.5884610  79.2998262
  52.3304710  90.9196776  84.2246978  53.1995870  91.0937428  83.8633612
  51.8511462  91.7391193  84.1022707  46.4990890  98.0393877  75.9036411
  47.4018137  98.0717487  76.2202906  46.2728261  97.1094328  75.9182747
  48.2544493  96.7924863  72.5646490  47.3040124  96.7926725  72.4510862
  48.5576979  96.0457598  72.0482524  44.1448809  80.9983545  82.8229851
  45.0080271  80.6420350  83.0333176  43.5714220  80.6597440  83.5105255
  63.9897186 102.6285402  73.6292252  64.6275596 102.5092149  72.9255592
  63.8718029 103.5766246  73.6880204  60.7986892 102.5812830  73.5653777
  60.4605404 102.4653894  72.6774312  61.6676660 102.1803995  73.5454783
  56.6573708 104.4348306  69.5550668  56.0938573 104.3438243  68.7866956
  56.5426103 103.6148211  70.0353160  61.2806675 103.7347682  79.5239982
  61.2695316 103.3400480  78.6520486  61.4427315 103.0013754  80.1173754
  54.2038140 105.9299498  72.3934888  54.9959432 105.5890322  71.9781188
  54.4434790 106.0394473  73.3137042  62.2373267 108.1019274  64.8665133
  61.5861246 108.6873354  64.4799147  63.0317629 108.6325469  64.9260170
  56.1628894 105.1908411  65.2652267  56.9359770 104.6437398  65.1265143
  56.5154293 106.0552660  65.4766729  58.0013936 106.5184793  78.4719166
  57.7103802 107.4230424  78.3565833  58.6370921 106.5601321  79.1863236
  58.9270143 103.8961642  75.0620526  59.5233716 103.6717664  74.3477489
  58.9845115 103.1546387  75.6645974  58.4995172 101.3501077  62.8970717
  58.7520692 100.8282598  62.1354180  57.5619731 101.1867223  62.9997401
  63.5438454 100.3536856  70.7045460  64.3301544  99.9356279  70.3535877
  63.8077159 101.2582948  70.8727109  63.7148532 105.7909706  65.4034117
  63.0794365 105.8644332  66.1155022  63.3845938 106.3803305  64.7253196
  68.9446882 100.2912089  71.6078439  69.6772054  99.7211306  71.8416268
  68.1886237  99.9033689  72.0484944  58.2191460 103.2529183  65.0995092
  58.1027719 102.5774087  65.7676176  58.3293720 102.7661557  64.2827245
  60.5623001 102.7139330  68.8041781  60.1981209 102.1869951  69.5154703
  61.4190117 102.3237799  68.6308267  66.4672302  94.0033663  76.0673047
  66.1355627  94.8729074  75.8434262  65.8717915  93.6869947  76.7467078
  60.2028488  97.7429230  63.8003130  60.3702891  98.6109466  64.1673601
  60.0125657  97.9056512  62.8764419  62.9603821 106.2046209  75.4668960
  62.6604545 107.1071248  75.3584767  62.6154881 105.9378392  76.3190113
  56.4116303 102.6560006  71.5005665  55.4866799 102.5236220  71.7083356
  56.6600716 103.4354225  71.9975607  66.3600965  98.7228749  73.1466397
  65.4517843  98.6544157  72.8525158  66.3088561  99.2000694  73.9748223
  60.1817709 100.1986887  64.7849797  60.0617334 100.6443938  65.6235277
  59.4870298 100.5472205  64.2263335  53.7725114 102.2993279  72.3349454
  53.9017495 102.5527758  73.2488865  53.0922565 102.8920987  72.0154109
  57.9424601 112.9690529  68.4339928  57.8648631 113.9198354  68.5128408
  57.3386245 112.6236402  69.0914854  60.4341831 100.1418395  81.0901295
  59.6575165 100.7012315  81.0804159  61.0732394 100.6275178  81.6116165
  68.2262612  96.9245187  74.9244271  67.5836992  97.2177721  74.2784066
  67.7217540  96.8098108  75.7297468  65.8802775 100.6708361  65.6130131
  66.7920631 100.9035747  65.4377828  65.3712422 101.2545405  65.0505209
  58.6888203 102.9503848  80.6519262  59.4302888 103.4888892  80.3754085
  57.9825189 103.5770137  80.8090814  64.1643543 105.0932988  79.2491423
  64.5726899 104.6515399  78.5046056  63.4420805 104.5185616  79.5025616
  60.5174613 100.0305595  76.6224980  61.3635808 100.4545009  76.7659629
  60.4573251  99.3739220  77.3163543  64.4872358 105.6534179  73.0043712
  63.8581220 105.8179893  72.3019780  64.0998020 106.0675789  73.7754676
  68.3661590 106.5888617  70.3588076  67.6812628 106.9687518  69.8085109
  68.4505439 107.1983944  71.0920024  63.6674058  97.6909964  78.2806154
  63.4234990  98.4452024  77.7440429  63.9433989  98.0695311  79.1153401
  65.6212521 104.2348576  76.9583419  65.8329416 104.8780336  76.2817800
  65.5742269 103.4010892  76.4905349  63.2238750  96.8466397  73.8619992
  62.3623229  97.1447650  74.1536729  63.2501185  97.0636795  72.9301024
  60.0400320 105.3908587  70.2693797  60.5038665 105.6696290  69.4798420
  59.7757118 104.4892032  70.0866888  56.9324401 104.9380069  73.2073560
  57.5025758 105.3667337  72.5691045  57.5232512 104.6562653  73.9057746
  58.9769206 101.5131740  67.0783362  59.6793249 101.9652783  67.5457289
  58.6449834 100.8715558  67.7063255  57.4249567 100.1043496  81.4534572
  56.7948228 100.7859777  81.6869969  57.3185655  99.9926578  80.5087710
  52.7194540  99.7715292  72.3800496  51.9293594 100.0272821  71.9040607
  53.2105787 100.5863630  72.4852536  66.7358349 107.1120531  75.1305777
  67.5575793 106.7100719  74.8488458  66.7320752 107.0088766  76.0821893
  54.6709285 100.1359871  69.3383973  53.8740448 100.2478566  69.8567468
  54.4434877 100.4746524  68.4724863  60.5014953 106.6604575  77.2866487
  60.5659385 107.1224982  78.1224659  59.7925876 106.0301940  77.4148797
  51.0032243 100.0245783  74.8115487  51.2540281 100.9092793  75.0773063
  51.5391791  99.8450384  74.0390579  74.8264342 103.4559280  71.4790748
  74.0728051 102.8866678  71.3234753  74.9611883 103.4221944  72.4261383
  60.2162970 108.3272682  67.1545468  60.0808645 109.1724218  67.5830315
  60.7572783 108.5291960  66.3911401  56.7030310  94.4064262  83.8159823
  56.3097255  93.8530461  84.4907467  57.5196450  94.7174840  84.2066340
  53.6692368 105.8448120  67.7273393  54.1816888 106.6391370  67.8778957
  54.3215080 105.1474411  67.6606994  55.4787252 108.9613876  69.8096146
  55.6553881 109.8831841  69.6217130  56.2744086 108.6472296  70.2390526
  59.6198271  95.8222141  81.4080079  60.3607984  96.4229294  81.3284542
  59.8516194  95.0799779  80.8498122  54.7639609 101.0078508  79.6858309
  54.6493124 100.1063766  79.9865408  53.9084127 101.2542205  79.3343126
  61.8431447 108.9496249  81.2845810  61.3995301 108.1632627  80.9666714
  62.5048660 109.1375399  80.6189700  56.6018568 110.4792050  75.8106488
  57.1525993 110.3509114  75.0383482  55.7630044 110.7786939  75.4601381
  63.9412685 109.2299049  79.3127211  63.9231160 110.0507930  78.8207480
  64.8632605 109.1053124  79.5377352  60.3985739 106.7443178  80.1550719
  60.9314076 105.9831466  79.9250027  59.8699820 106.4516830  80.8974874
  51.6341284 104.1736774  68.5032963  52.4716506 104.5833783  68.2866671
  51.8119552 103.2336217  68.4733157  63.5305717 101.8411855  64.1916796
  63.0152340 102.6116460  64.4305184  63.2583025 101.1676991  64.8149858
  62.6451974  94.2207899  73.6493594  62.1416770  94.1838034  72.8361400
  62.9382581  95.1300642  73.7090251  68.5039991 104.5944210  66.1269970
  67.7269433 104.2555369  65.6825132  69.1831472 104.5996833  65.4524935
  63.3192020  99.7138947  66.0176577  63.0142155 100.0285096  66.8686720
  64.2722462  99.7920367  66.0603910  61.7638452 105.8729171  67.6669531
  61.2359813 105.1381930  67.3542769  61.2625954 106.6503847  67.4209500
  66.7431298 104.0678191  72.7836578  66.0854972 104.7577452  72.8716706
  67.5471697 104.4574623  73.1270564  65.5536756 102.4222564  70.8340519
  66.0668638 103.0552556  71.3362229  66.2037980 101.8223759  70.4683879
  56.8226766  98.5653298  64.0472028  55.9864078  98.9027984  64.3681303
  56.6831536  98.4302278  63.1099165  59.9091052 103.6909381  60.6704504
  59.0018113 103.4598634  60.8695653  60.4062084 102.8947000  60.8578486
  62.8159131 112.4006888  63.5901190  62.1420829 112.7038585  64.1986148
  63.2024953 113.2035968  63.2406648  62.0317587  99.8972019  73.0798860
  61.1140149 100.1186966  72.9220548  62.4477731  99.9718330  72.2210567
  62.8152635 101.2963435  68.2101540  63.5624454 101.8084832  67.9008662
  63.0844225 100.9747488  69.0705934  61.0879285 103.7921976  65.1928494
  60.1790504 103.5081008  65.2900964  61.1174369 104.2121054  64.3331801
  66.3198553 107.4028565  68.9619662  65.8660880 106.5619475  69.0184852
  65.6892519 108.0389964  69.2994442  65.2631472  98.3320551  70.1920329
  64.5254229  97.8197937  70.5230572  65.5158246  97.8920933  69.3803606
  64.7631492 109.2405062  69.8969480  65.0554466 109.8010119  69.1781846
  65.2730112 109.5333623  70.6522639  51.6567456 101.5127490  69.1743697
  51.4591855 100.9196850  68.4494763  51.1014120 101.2079700  69.8919635
  59.6364179 101.4050596  71.2938290  59.6912789 100.4524433  71.2180766
  58.8255381 101.5610035  71.7779588  60.7855373 105.3330719  62.5316573
  60.3474803 104.6166578  62.0722210  61.5265814 105.5606834  61.9701664
  57.5756539 100.0227656  69.0528669  56.7624405 100.3221827  69.4593861
  58.0715533  99.6283345  69.7703151  59.7265117 110.0185413  70.9862933
  59.6841296 110.2446259  70.0571465  60.6427816 109.7848788  71.1348734
  63.1730751 100.4869480  77.8843563  63.5280139 100.7140954  78.7438028
  63.8202882 100.8187857  77.2620818  68.9028488 103.6087916  68.5892892
  68.7646386 103.7989512  67.6614081  68.5464707 104.3707299  69.0460943
  57.0670614  97.5946012  74.6689904  57.7069993  97.4534771  73.9712867
  56.2348144  97.3080525  74.2928506  68.9297867 105.6764443  73.6004163
  69.3634374 105.5839732  74.4487217  69.6429448 105.6521944  72.9624179
  57.8430918 106.8948442  70.7824896  58.6371516 106.3998762  70.5807471
  57.1322610 106.3666305  70.4192602  62.6625762 109.2766537  75.1337264
  62.7162785 109.8457474  75.9014980  61.7940544 109.4468423  74.7691301
  54.1513681 101.0391524  66.8584649  53.2211269 100.9775979  67.0754611
  54.2471153 100.5167476  66.0621290  55.5424156  98.9784094  76.6161715
  56.2147209  98.7701456  75.9674364  54.7153942  98.7806180  76.1766947
  69.7913417 105.7188144  76.1337048  69.9849307 106.6233955  76.3796323
  69.6914035 105.2595563  76.9675633  61.4449728  95.6046035  78.6327376
  60.7977643  96.3035984  78.5391852  62.2150743  96.0382179  79.0003624
  64.8528526 105.8694887  81.7077929  64.7014032 105.6405438  80.7908013
  64.8433205 106.8265488  81.7209274  61.6213862 103.4426800  76.6924196
  62.5505922 103.5937959  76.5193163  61.2004892 103.5310820  75.8372842
  60.4202194 107.4677464  74.4622733  60.2813279 107.0996248  75.3348671
  59.6316790 107.9825103  74.2906691  61.0150346 112.5686560  65.8048270
  61.1902101 112.0974604  66.6193892  60.3283134 113.1952327  66.0329530
  61.9707409 106.8459067  71.8511571  61.6357242 106.8059837  72.7469221
  61.4711355 106.1803783  71.3781981  55.9451653 102.2526697  77.3764152
  55.8071451 101.5206935  77.9775691  56.8556576 102.1635597  77.0948340
  64.9066601 104.1915101  62.1248631  64.2895771 103.4661929  62.0281683
  64.4383089 104.9524461  61.7815705  58.5733954 101.9646656  76.8647832
  59.2833572 101.3239848  76.8234450  58.5303262 102.2159551  77.7874013
  66.5620732 108.9014009  79.7854411  66.5033278 108.2173229  79.1184994
  66.9640251 109.6432999  79.3335037  57.2862888  98.9511874  78.6843471
  56.7500245  98.5002612  79.3365068  56.6979596  99.0857783  77.9413936
  55.5811431 115.7175923  72.5788130  55.8208029 116.3494447  73.2567148
  54.7380627 115.3663963  72.8653489  56.6965146  98.4100525  61.2469935
  55.8194613  98.2889326  60.8832182  57.1722900  97.6186604  60.9948824
  66.5638139 106.8653593  78.0168391  65.6764918 106.5279515  78.1394789
  67.1336691 106.1336624  78.2537156  48.2167287 103.1977685  71.3411442
  48.9038326 102.8839415  70.7532457  48.0615415 104.1019050  71.0678693
  53.0202009  98.0867882  75.7696466  52.9360197  97.4793551  75.0346876
  52.1984715  98.5776900  75.7705962  60.0939293 111.5255046  74.9829634
  60.0209464 112.3310017  75.4948938  59.6516686 111.7247011  74.1577655
  59.8829072 110.7626816  68.4932455  59.0996594 111.3048496  68.5870680
  60.5821818 111.2800795  68.8926697  63.1925723  96.5721445  71.1366661
  63.6894422  95.8191407  70.8167731  62.4212704  96.6085762  70.5709870
  71.0455480 102.2761811  72.7784952  71.0345356 103.1586526  72.4078885
  70.1772859 101.9233361  72.5839489  62.5537976 111.4241880  77.1387792
  63.2665949 112.0589344  77.0663694  62.0628005 111.5205746  76.3227794
  64.2755503 105.3293132  68.7105084  63.3411782 105.4494595  68.5409788
  64.4532172 104.4265599  68.4465094  59.7760691  98.7138828  70.8638345
  59.4058479  98.1609868  71.5519251  60.2719784  98.1096962  70.3113345
  67.6628055 101.1710452  69.2455118  68.1288507 102.0038443  69.1715421
  68.1135555 100.7055433  69.9500377  57.6049890 109.1736323  77.9593363
  58.3059349 109.8072806  78.1122758  57.1345005 109.5151055  77.1989003
  65.7304286 107.5154273  66.2441270  66.0064130 107.4010867  67.1535144
  64.8608785 107.1171758  66.2053443  65.4051176 101.7280931  75.7845914
  64.7522626 101.9756838  75.1298366  65.7831556 100.9145069  75.4508391
  62.3658350 111.7640624  69.8874084  62.5480744 110.9462280  70.3501836
  63.1891336 111.9808316  69.4498974  62.7000515 110.6908809  67.1489132
  63.2288282 110.1801263  66.5359295  62.9628735 110.3751339  68.0134665
  61.4538749 102.4700742  82.2711951  60.7779386 102.3694871  82.9414326
  62.2766383 102.3139955  82.7347948  53.2017608 108.7072678  74.8924466
  53.7871045 107.9616366  75.0252370  53.0042446 109.0176635  75.7761130
  56.0556263 111.7423926  69.9086908  55.3866638 112.2270053  69.4250948
  55.9169133 111.9893146  70.8230287  47.7935263 101.2778278  73.6128909
  47.8319362 100.7441869  74.4066027  47.2875556 100.7513484  72.9939886
  60.1961532 113.7767669  76.5069567  60.7479840 113.9399291  77.2718652
  60.5367725 114.3672107  75.8349592  55.1726025  96.1242819  77.1091451
  55.2367352  96.9857650  76.6968849  55.1093145  95.5116821  76.3763810
  54.6478298  98.1965951  80.7564486  55.2750336  97.8143029  81.3702010
  53.7906216  97.9780153  81.1220178  65.0472406 108.6028927  82.3618221
  65.5912310 109.2158885  81.8673176  64.4659251 109.1608505  82.8785234
  51.4243840 100.0042381  66.6882841  51.7197281  99.0953059  66.6349894
  50.5231876  99.9830120  66.3663843  63.3329919 111.7249645  73.4933249
  63.2081059 110.9239384  72.9844194  63.9909010 112.2195838  73.0047219
  54.9538087  98.0798377  72.6710389  54.2324673  98.6934345  72.5317862
  55.7431343  98.6156142  72.5927035  65.3964827 109.5258665  75.1212799
  64.4495163 109.4064016  75.0491126  65.7447601 108.6381163  75.2039060
  57.7564401  95.4152804  78.9451041  58.2798803  95.6615100  79.7077350
  57.5376734  96.2472838  78.5254178  53.1531682  97.6856478  66.8122166
  52.8244388  96.8053857  66.6297272  53.5071053  97.6304147  67.6998555
  62.4011261 109.3211381  71.3217151  62.2536223 108.3928088  71.5024721
  63.2264754 109.3431472  70.8374226  56.2673505  97.9729448  67.1797643
  56.6069578  98.5015369  66.4576252  56.7145626  98.3109854  67.9556210
  66.0045383 110.1439940  72.4082024  66.9291930 109.9382801  72.2706475
  65.8360686 109.8956341  73.3171365  58.9616946  96.3566499  76.6300711
  58.6213766  95.5574312  77.0321391  58.2555952  96.6568210  76.0577545
  59.6133418  93.4415811  75.0828034  60.4359487  92.9676289  74.9606925
  59.8571481  94.2206295  75.5826721  62.3972775  97.1749219  66.3149268
  62.6136389  98.0573856  66.0138097  61.9166842  96.7835432  65.5854910
  57.1371996 100.1334932  72.8920013  56.9916577 100.4475235  73.7844295
  56.6597200 100.7519832  72.3390912  58.9968379  97.1237480  72.9400903
  58.9829948  96.2278573  72.6033201  59.7140807  97.1308143  73.5739189
  60.8494510  97.5574820  74.9854030  60.5912288  98.4791891  74.9838360
  60.3179550  97.1605254  75.6754494  65.7940699 110.6625607  67.7644115
  65.9677576 110.0972030  67.0117968  66.2869590 111.4626502  67.5823605
  51.6117659 102.6740276  75.8307674  51.0671127 103.4500084  75.9627949
  52.4897008 103.0211081  75.6726796  71.6480090 103.4262030  69.3834415
  72.0911236 102.6769355  68.9853538  70.7706600 103.4172166  69.0008147
  66.7815871 109.9792371  64.8641014  67.4766776 110.5999064  65.0828328
  67.1239021 109.1287723  65.1393392  52.3983680 101.8010172  78.7237831
  51.6565417 101.9492808  79.3102461  52.0776425 102.0618438  77.8604580
  68.6807294 107.4292077  66.3928344  69.2058619 107.7679350  65.6677664
  68.5929647 106.4939092  66.2091479  60.3427343 111.3426151  78.5218221
  60.6514470 111.0975297  79.3940921  61.1402825 111.5472789  78.0337091
  60.3647955 113.4964060  70.7523598  59.9252945 113.0040439  71.4456454
  61.1156072 112.9537028  70.5115673  52.8440294 109.6875601  70.7548226
  53.6698314 109.3879373  70.3746869  52.4934346 108.9183224  71.2038014
  57.8121827 109.0402069  72.8245899  57.1901837 108.3772774  72.5248127
  58.4826694 109.0663201  72.1419547  51.0448899 107.6061928  71.7137159
  50.2080808 107.1784102  71.5321161  51.0172545 107.7994371  72.6507950
  57.8846355  97.5183857  82.4178405  57.9334510  98.3945980  82.0356175
  58.4268869  96.9761250  81.8450049  68.3701200 108.0624981  81.6979542
  67.5796744 108.0449120  81.1584042  68.1334555 108.6013274  82.4528579
  68.4899076 104.9117447  79.0112271  68.5397080 104.7467454  79.9527794
  68.3812999 104.0444706  78.6210152  57.3735334 107.5905993  66.3004360
  57.5223455 108.2741457  65.6471033  58.1801778 107.5711083  66.8153816
  65.7802838 100.8948375  80.3271578  66.6812701 100.7554840  80.0355575
  65.8550812 101.0602830  81.2669755  60.1145643  98.2715230  79.1724764
  59.2448953  98.5648796  78.9007353  60.3505124  98.8555675  79.8932028
  69.9917272 107.3314389  79.2554292  69.7002081 107.6944369  80.0917753
  69.3789404 106.6181397  79.0767625  71.1912955 104.8967268  71.7756863
  72.0259846 105.3357072  71.9394423  71.3272083 104.4205922  70.9565108
  68.2404461 102.4547003  77.7234350  68.7158582 102.6474649  76.9153202
  67.3170026 102.5106189  77.4777734  55.1287967 103.6171170  67.3065429
  54.8834009 102.7133500  67.5045639  55.2983882 103.6188321  66.3644907
  62.8184677  94.4894847  76.6890184  63.3366621  95.2255874  76.3636673
  62.4639810  94.7958840  77.5236943  54.3983615  99.3499528  64.8051590
  53.7052860  99.4243883  64.1491626  54.1535367  98.5859872  65.3273107
  63.0697271  90.9095129  72.2091081  63.3499025  90.2418318  72.8351507
  63.8547878  91.1024225  71.6965745  60.8730740 110.0854123  63.7716107
  60.3004707 110.7044310  63.3186579  61.4463533 110.6353485  64.3056029
  66.9406130  99.3312763  75.9562656  67.8923553  99.4310861  75.9774880
  66.7709580  98.5391032  76.4660740  64.9620509  96.4168346  76.1422057
  64.3670441  96.6973359  75.4468546  64.6770206  96.9062247  76.9138798
  64.0928000 110.3691273  64.9024690  65.0258673 110.3036835  65.1057565
  64.0051212 111.2047540  64.4439222  66.7216016 109.6857144  61.8628637
  66.6429648 109.3517007  62.7564395  67.5425683 110.1778912  61.8620109
  69.4194207 102.5518883  75.0704956  69.3870528 101.6134884  75.2564640
  70.0294831 102.6302920  74.3370781  61.2577538 101.4214936  61.1132160
  62.2036643 101.2921144  61.1820578  60.8791783 100.6829598  61.5901588
  69.5688696  99.3429926  75.1163239  69.0527745  98.5588383  74.9293168
  70.4528644  99.0148643  75.2809758  67.2299423  93.0870942  71.0759052
  67.0324244  92.7786030  71.9602384  67.8399128  93.8132581  71.2056981
  75.2370757 103.6134890  74.2110993  75.9674146 103.3520178  74.7718696
  74.6277703 102.8763612  74.2513060  73.3186054 101.7542752  74.8085444
  72.5919218 101.6198717  74.2001935  72.9033341 102.0619581  75.6142162
  61.1416231 105.4732682  82.5732817  62.0619240 105.6511281  82.7672863
  61.1065814 104.5288727  82.4212516  59.4420455  99.3464912  61.0487045
  58.5351911  99.0498025  61.1249759  59.7196436  99.0494730  60.1821331
  50.3598396 100.6671276  71.4986091  50.0401180  99.8136584  71.2060465
  49.8131824 100.8819854  72.2544059  54.1378303 103.3833717  75.2155598
  54.3564313 104.3150825  75.2343632  54.5504077 103.0241691  76.0010402
  59.0106169  98.9566922  84.6058347  58.9102896  99.9061279  84.5370438
  58.7927711  98.6285161  83.7334417  58.2119240  96.2051848  61.1899024
  59.0738404  96.5306746  61.4494842  58.3969584  95.4183343  60.6772090
  50.2286656 104.2874187  73.4679213  49.5350127 103.8728140  72.9549167
  50.9759647 104.3294724  72.8712632  66.3651877  95.0780374  68.3334247
  65.7850546  95.7365178  67.9512300  66.0987809  94.2557719  67.9221665
  64.8155443  94.4785432  70.5355568  65.3155221  94.5901966  69.7269886
  65.4591051  94.1746485  71.1756376  58.8737439 102.3864061  83.4223408
  58.3904520 103.1864421  83.6287298  58.9598378 102.3972006  82.4690852
  52.1423398 104.2192441  71.3445228  52.1194086 104.3180128  70.3927111
  52.4524035 105.0657592  71.6662394  54.8010776 106.2768596  75.4591842
  55.7554030 106.2452538  75.3921774  54.6023300 105.8159220  76.2742068
  55.3910158 104.8469712  78.0262640  56.2103047 105.3413791  78.0497477
  55.6646966 103.9301680  77.9980207  65.1476755  97.2380464  67.3890595
  64.2602610  97.5230115  67.1710790  65.5630744  97.0774228  66.5417872
  68.4991291  97.2626985  71.1044935  69.2751681  97.7523438  71.3769552
  67.7739425  97.6885040  71.5616804  70.9363849  97.9754605  72.1618875
  71.5308340  97.7350341  71.4512184  71.0090433  97.2561735  72.7892412
  53.1561005 111.8188216  72.4762040  53.0215473 111.0588616  71.9100038
  52.7393067 112.5429115  72.0090829  64.2919968 107.0025139  61.4838615
  64.9955818 107.2075142  62.0996271  63.5682617 107.5701901  61.7487699
  65.1217778 102.7535000  67.6040886  65.0652980 103.2103552  66.7648518
  65.6746121 101.9925685  67.4263728  68.9322584  98.5424732  68.4291005
  68.6759518  98.1421368  69.2599213  68.3075452  99.2568526  68.3041144
  73.2434922 101.2820805  70.9362297  72.6834480 101.3513995  71.7093859
  72.6378425 101.1061790  70.2161793  56.3130131 112.7157533  72.6880483
  56.1962515 113.6602965  72.5859173  55.4922577 112.4131094  73.0766282
  66.2006665 107.4407668  63.5337075  67.0352269 107.0088867  63.3514550
  66.0391008 107.2689682  64.4613970  65.8552558 103.9439782  64.8993415
  65.8001361 103.7784053  63.9581859  65.2298613 104.6515814  65.0555605
  50.6445073  99.1807846  78.7254837  51.2903936  98.6706800  79.2142062
  50.4362224  99.9176528  79.2998262  63.1698465 106.2488693  84.2246978
  64.0389624 106.4229346  83.8633612  62.6905216 107.0683110  84.1022707
  57.3384645 113.3685794  75.9036411  58.2411892 113.4009405  76.2202906
  57.1122015 112.4386245  75.9182747  59.0938247 112.1216781  72.5646490
  58.1433878 112.1218643  72.4510862  59.3970733 111.3749516  72.0482524
  54.9842564  96.3275463  82.8229851  55.8474025  95.9712268  83.0333176
  54.4107974  95.9889358  83.5105255  74.8290940 117.9577319  73.6292252
  75.4669350 117.8384067  72.9255592  74.7111783 118.9058163  73.6880204
  71.6380647 117.9104747  73.5653777  71.2999158 117.7945812  72.6774312
  72.5070415 117.5095913  73.5454783  67.4967462 119.7640224  69.5550668
  66.9332328 119.6730161  68.7866956  67.3819858 118.9440128  70.0353160
  72.1200430 119.0639599  79.5239982  72.1089071 118.6692397  78.6520486
  72.2821069 118.3305672  80.1173754  65.0431894 121.2591415  72.3934888
  65.8353186 120.9182240  71.9781188  65.2828545 121.3686391  73.3137042
  73.0767021 123.4311192  64.8665133  72.4255001 124.0165272  64.4799147
  73.8711384 123.9617386  64.9260170  67.0022648 120.5200329  65.2652267
  67.7753524 119.9729316  65.1265143  67.3548047 121.3844578  65.4766729
  68.8407691 121.8476711  78.4719166  68.5497557 122.7522342  78.3565833
  69.4764675 121.8893239  79.1863236  69.7663898 119.2253560  75.0620526
  70.3627470 119.0009582  74.3477489  69.8238869 118.4838305  75.6645974
  69.3388926 116.6792995  62.8970717  69.5914447 116.1574516  62.1354180
  68.4013485 116.5159140  62.9997401  74.3832209 115.6828773  70.7045460
  75.1695298 115.2648196  70.3535877  74.6470913 116.5874865  70.8727109
  74.5542286 121.1201624  65.4034117  73.9188119 121.1936250  66.1155022
  74.2239693 121.7095222  64.7253196  79.7840636 115.6204006  71.6078439
  80.5165808 115.0503223  71.8416268  79.0279992 115.2325607  72.0484944
  69.0585215 118.5821101  65.0995092  68.9421473 117.9066004  65.7676176
  69.1687475 118.0953475  64.2827245  71.4016756 118.0431248  68.8041781
  71.0374963 117.5161869  69.5154703  72.2583872 117.6529717  68.6308267
  77.3066056 109.3325581  76.0673047  76.9749381 110.2020991  75.8434262
  76.7111670 109.0161865  76.7467078  71.0422243 113.0721148  63.8003130
  71.2096645 113.9401384  64.1673601  70.8519412 113.2348429  62.8764419
  73.7997576 121.5338127  75.4668960  73.4998299 122.4363165  75.3584767
  73.4548636 121.2670310  76.3190113  67.2510057 117.9851923  71.5005665
  66.3260554 117.8528137  71.7083356  67.4994471 118.7646143  71.9975607
  77.1994720 114.0520667  73.1466397  76.2911597 113.9836075  72.8525158
  77.1482316 114.5292612  73.9748223  71.0211464 115.5278805  64.7849797
  70.9011089 115.9735856  65.6235277  70.3264052 115.8764123  64.2263335
  64.6118869 117.6285197  72.3349454  64.7411250 117.8819676  73.2488865
  63.9316320 118.2212905  72.0154109  68.7818356 128.2982447  68.4339928
  68.7042385 129.2490272  68.5128408  68.1779999 127.9528319  69.0914854
  71.2735586 115.4710312  81.0901295  70.4968920 116.0304232  81.0804159
  71.9126149 115.9567095  81.6116165  79.0656366 112.2537105  74.9244271
  78.4230746 112.5469638  74.2784066  78.5611295 112.1390025  75.7297468
  76.7196530 116.0000278  65.6130131  77.6314386 116.2327665  65.4377828
  76.2106177 116.5837322  65.0505209  69.5281958 118.2795766  80.6519262
  70.2696642 118.8180810  80.3754085  68.8218943 118.9062054  80.8090814
  75.0037298 120.4224906  79.2491423  75.4120654 119.9807317  78.5046056
  74.2814559 119.8477534  79.5025616  71.3568368 115.3597513  76.6224980
  72.2029563 115.7836926  76.7659629  71.2967005 114.7031137  77.3163543
  75.3266112 120.9826097  73.0043712  74.6974975 121.1471811  72.3019780
  74.9391774 121.3967706  73.7754676  79.2055344 121.9180535  70.3588076
  78.5206382 122.2979436  69.8085109  79.2899193 122.5275861  71.0920024
  74.5067813 113.0201881  78.2806154  74.2628745 113.7743942  77.7440429
  74.7827743 113.3987229  79.1153401  76.4606276 119.5640494  76.9583419
  76.6723171 120.2072253  76.2817800  76.4136024 118.7302810  76.4905349
  74.0632505 112.1758314  73.8619992  73.2016984 112.4739568  74.1536729
  74.0894939 112.3928713  72.9301024  70.8794074 120.7200505  70.2693797
  71.3432420 120.9988208  69.4798420  70.6150872 119.8183949  70.0866888
  67.7718155 120.2671986  73.2073560  68.3419512 120.6959255  72.5691045
  68.3626267 119.9854571  73.9057746  69.8162960 116.8423657  67.0783362
  70.5187003 117.2944701  67.5457289  69.4843589 116.2007476  67.7063255
  68.2643322 115.4335414  81.4534572  67.6341982 116.1151695  81.6869969
  68.1579409 115.3218495  80.5087710  63.5588294 115.1007210  72.3800496
  62.7687348 115.3564738  71.9040607  64.0499541 115.9155548  72.4852536
  77.5752104 122.4412449  75.1305777  78.3969547 122.0392636  74.8488458
  77.5714506 122.3380683  76.0821893  65.5103039 115.4651789  69.3383973
  64.7134203 115.5770483  69.8567468  65.2828632 115.8038441  68.4724863
  71.3408707 121.9896492  77.2866487  71.4053140 122.4516900  78.1224659
  70.6319631 121.3593857  77.4148797  61.8425997 115.3537700  74.8115487
  62.0934035 116.2384710  75.0773063  62.3785545 115.1742302  74.0390579
  85.6658097 118.7851198  71.4790748  84.9121805 118.2158596  71.3234753
  85.8005638 118.7513862  72.4261383  71.0556725 123.6564600  67.1545468
  70.9202399 124.5016136  67.5830315  71.5966537 123.8583877  66.3911401
  67.5424064 109.7356180  83.8159823  67.1491010 109.1822378  84.4907467
  68.3590205 110.0466758  84.2066340  64.5086122 121.1740038  67.7273393
  65.0210643 121.9683288  67.8778957  65.1608835 120.4766328  67.6606994
  66.3181007 124.2905794  69.8096146  66.4947635 125.2123759  69.6217130
  67.1137840 123.9764213  70.2390526  70.4592025 111.1514059  81.4080079
  71.2001739 111.7521212  81.3284542  70.6909948 110.4091697  80.8498122
  65.6033363 116.3370426  79.6858309  65.4886878 115.4355683  79.9865408
  64.7477881 116.5834123  79.3343126  72.6825201 124.2788166  81.2845810
  72.2389055 123.4924545  80.9666714  73.3442415 124.4667317  80.6189700
  67.4412322 125.8083968  75.8106488  67.9919747 125.6801031  75.0383482
  66.6023798 126.1078857  75.4601381  74.7806439 124.5590966  79.3127211
  74.7624915 125.3799847  78.8207480  75.7026359 124.4345041  79.5377352
  71.2379493 122.0735096  80.1550719  71.7707830 121.3123384  79.9250027
  70.7093574 121.7808748  80.8974874  74.4049188 107.1795162  75.6844361
  74.0613458 108.0696803  75.6083472  74.7728151 106.9896819  74.8213946
  62.4735039 119.5028692  68.5032963  63.3110261 119.9125701  68.2866671
  62.6513307 118.5628134  68.4733157  74.3699471 117.1703773  64.1916796
  73.8546094 117.9408377  64.4305184  74.0976779 116.4968909  64.8149858
  71.9546582 112.0153474  69.2502035  71.0988178 111.6260324  69.0707673
  72.3673534 112.0945434  68.3901820  73.4845729 109.5499817  73.6493594
  72.9810524 109.5129952  72.8361400  73.7776336 110.4592560  73.7090251
  69.7288615 109.6338547  72.6559776  70.5941611 109.4381355  72.2965665
  69.7966123 109.4048898  73.5829133  79.3433745 119.9236127  66.1269970
  78.5663188 119.5847287  65.6825132  80.0225226 119.9288751  65.4524935
  74.1585774 115.0430865  66.0176577  73.8535910 115.3577014  66.8686720
  75.1116216 115.1212285  66.0603910  72.6032206 121.2021088  67.6669531
  72.0753568 120.4673848  67.3542769  72.1019709 121.9795765  67.4209500
  77.5825052 119.3970109  72.7836578  76.9248726 120.0869370  72.8716706
  78.3865451 119.7866541  73.1270564  67.3350934 111.8640754  70.0276143
  67.9094686 111.6415936  69.2949336  67.9221916 111.9329449  70.7804744
  76.3930511 117.7514481  70.8340519  76.9062393 118.3844473  71.3362229
  77.0431735 117.1515677  70.4683879  67.6620521 113.8945216  64.0472028
  66.8257833 114.2319902  64.3681303  67.5225290 113.7594195  63.1099165
  69.6373601 108.7382003  68.7551212  68.9838014 108.4231021  68.1307827
  69.5954075 108.1157744  69.4811035  70.7484806 119.0201298  60.6704504
  69.8411868 118.7890552  60.8695653  71.2455838 118.2238918  60.8578486
  73.6552885 127.7298806  63.5901190  72.9814584 128.0330502  64.1986148
  74.0418707 128.5327886  63.2406648  72.8711342 115.2263937  73.0798860
  71.9533903 115.4478884  72.9220548  73.2871485 115.3010247  72.2210567
  73.6546389 116.6255353  68.2101540  74.4018208 117.1376750  67.9008662
  73.9237979 116.3039405  69.0705934  71.9273040 119.1213893  65.1928494
  71.0184259 118.8372926  65.2900964  71.9568123 119.5412972  64.3331801
  77.1592307 122.7320483  68.9619662  76.7054634 121.8911393  69.0184852
  76.5286274 123.3681881  69.2994442  76.1025227 113.6612469  70.1920329
  75.3647983 113.1489855  70.5230572  76.3552000 113.2212850  69.3803606
  75.6025246 124.5696980  69.8969480  75.8948221 125.1302037  69.1781846
  76.1123867 124.8625541  70.6522639  76.2036854 106.4388721  70.7862099
  76.5095731 105.5786084  70.4988014  76.9289459 107.0306341  70.5861093
  62.4961210 116.8419407  69.1743697  62.2985610 116.2488768  68.4494763
  61.9407874 116.5371618  69.8919635  70.4757934 116.7342514  71.2938290
  70.5306543 115.7816350  71.2180766  69.6649136 116.8901953  71.7779588
  71.6249127 120.6622637  62.5316573  71.1868557 119.9458496  62.0722210
  72.3659568 120.8898752  61.9701664  68.4150294 115.3519574  69.0528669
  67.6018159 115.6513744  69.4593861  68.9109288 114.9575262  69.7703151
  70.5658871 125.3477331  70.9862933  70.5235050 125.5738177  70.0571465
  71.4821570 125.1140705  71.1348734  74.0124505 115.8161398  77.8843563
  74.3673893 116.0432871  78.7438028  74.6596636 116.1479775  77.2620818
  79.7422242 118.9379834  68.5892892  79.6040141 119.1281430  67.6614081
  79.3858461 119.6999217  69.0460943  67.9064368 112.9237929  74.6689904
  68.5463748 112.7826688  73.9712867  67.0741899 112.6372443  74.2928506
  79.7691622 121.0056361  73.6004163  80.2028128 120.9131650  74.4487217
  80.4823203 120.9813862  72.9624179  68.6824672 122.2240360  70.7824896
  69.4765271 121.7290680  70.5807471  67.9716365 121.6958223  70.4192602
  73.5019517 124.6058455  75.1337264  73.5556539 125.1749391  75.9014980
  72.6334298 124.7760340  74.7691301  64.9907436 116.3683441  66.8584649
  64.0605024 116.3067897  67.0754611  65.0864908 115.8459394  66.0621290
  64.9092985 112.8938254  69.4462890  65.1699802 113.8083587  69.3372051
  65.7310157 112.4262697  69.5959503  66.3817910 114.3076011  76.6161715
  67.0540964 114.0993373  75.9674364  65.5547697 114.1098097  76.1766947
  80.6307171 121.0480062  76.1337048  80.8243061 121.9525872  76.3796323
  80.5307790 120.5887481  76.9675633  72.2843482 110.9337952  78.6327376
  71.6371397 111.6327902  78.5391852  73.0544498 111.3674096  79.0003624
  75.6922280 121.1986804  81.7077929  75.5407786 120.9697356  80.7908013
  75.6826960 122.1557406  81.7209274  72.4607616 118.7718717  76.6924196
  73.3899676 118.9229877  76.5193163  72.0398646 118.8602738  75.8372842
  71.2595948 122.7969382  74.4622733  71.1207034 122.4288166  75.3348671
  70.4710544 123.3117021  74.2906691  71.8544100 127.8978478  65.8048270
  72.0295856 127.4266521  66.6193892  71.1676888 128.5244244  66.0329530
  72.8101163 122.1750984  71.8511571  72.4750996 122.1351754  72.7469221
  72.3105109 121.5095700  71.3781981  66.7845407 117.5818614  77.3764152
  66.6465205 116.8498853  77.9775691  67.6950331 117.4927514  77.0948340
  75.7460355 119.5207019  62.1248631  75.1289526 118.7953847  62.0281683
  75.2776844 120.2816379  61.7815705  69.4127708 117.2938574  76.8647832
  70.1227327 116.6531766  76.8234450  69.3697016 117.5451469  77.7874013
  77.4014487 124.2305927  79.7854411  77.3427033 123.5465147  79.1184994
  77.8034005 124.9724917  79.3335037  68.1256642 114.2803792  78.6843471
  67.5893999 113.8294530  79.3365068  67.5373350 114.4149700  77.9413936
  66.4205186 131.0467841  72.5788130  66.6601784 131.6786365  73.2567148
  65.5774382 130.6955881  72.8653489  67.5358901 113.7392443  61.2469935
  66.6588367 113.6181244  60.8832182  68.0116654 112.9478521  60.9948824
  77.4031894 122.1945511  78.0168391  76.5158673 121.8571433  78.1394789
  77.9730445 121.4628542  78.2537156  59.0561041 118.5269603  71.3411442
  59.7432081 118.2131333  70.7532457  58.9009170 119.4310967  71.0678693
  63.8595763 113.4159799  75.7696466  63.7753952 112.8085469  75.0346876
  63.0378470 113.9068818  75.7705962  70.9333047 126.8546963  74.9829634
  70.8603219 127.6601935  75.4948938  70.4910440 127.0538929  74.1577655
  70.7222827 126.0918733  68.4932455  69.9390349 126.6340414  68.5870680
  71.4215572 126.6092713  68.8926697  74.0319477 111.9013363  71.1366661
  74.5288177 111.1483325  70.8167731  73.2606459 111.9377679  70.5709870
  81.8849235 117.6053728  72.7784952  81.8739111 118.4878444  72.4078885
  81.0166614 117.2525279  72.5839489  73.3931731 126.7533797  77.1387792
  74.1059703 127.3881262  77.0663694  72.9021760 126.8497663  76.3227794
  75.1149258 120.6585050  68.7105084  74.1805537 120.7786512  68.5409788
  75.2925926 119.7557517  68.4465094  70.6154446 114.0430746  70.8638345
  70.2452233 113.4901786  71.5519251  71.1113538 113.4388879  70.3113345
  78.5021809 116.5002369  69.2455118  78.9682261 117.3330361  69.1715421
  78.9529310 116.0347351  69.9500377  68.4443644 124.5028241  77.9593363
  69.1453104 125.1364724  78.1122758  67.9738759 124.8442972  77.1989003
  76.5698040 122.8446191  66.2441270  76.8457884 122.7302785  67.1535144
  75.7002539 122.4463675  66.2053443  76.4738472 108.8682956  73.2846020
  75.5601552 109.0987183  73.4528227  76.9031573 108.9521400  74.1360052
  76.2444930 117.0572848  75.7845914  75.5916381 117.3048756  75.1298366
  76.6225310 116.2436986  75.4508391  73.2052104 127.0932541  69.8874084
  73.3874499 126.2754197  70.3501836  74.0285090 127.3100234  69.4498974
  73.5394270 126.0200727  67.1489132  74.0682036 125.5093181  66.5359295
  73.8022489 125.7043257  68.0134665  72.2932503 117.7992659  82.2711951
  71.6173140 117.6986789  82.9414326  73.1160137 117.6431873  82.7347948
  64.0411362 124.0364596  74.8924466  64.6264799 123.2908284  75.0252370
  63.8436201 124.3468553  75.7761130  66.8950018 127.0715843  69.9086908
  66.2260393 127.5561971  69.4250948  66.7562887 127.3185064  70.8230287
  58.6329017 116.6070196  73.6128909  58.6713117 116.0733787  74.4066027
  58.1269310 116.0805402  72.9939886  71.0355286 129.1059587  76.5069567
  71.5873594 129.2691208  77.2718652  71.3761480 129.6964025  75.8349592
  66.0119780 111.4534737  77.1091451  66.0761106 112.3149567  76.6968849
  65.9486900 110.8408738  76.3763810  65.4872052 113.5257869  80.7564486
  66.1144091 113.1434946  81.3702010  64.6299971 113.3072071  81.1220178
  75.8866161 123.9320844  82.3618221  76.4306065 124.5450803  81.8673176
  75.3053005 124.4900423  82.8785234  62.2637595 115.3334298  66.6882841
  62.5591036 114.4244977  66.6349894  61.3625631 115.3122038  66.3663843
  74.1723674 127.0541562  73.4933249  74.0474813 126.2531302  72.9844194
  74.8302765 127.5487756  73.0047219  65.7931842 113.4090295  72.6710389
  65.0718428 114.0226262  72.5317862  66.5825098 113.9448060  72.5927035
  76.2358582 124.8550582  75.1212799  75.2888917 124.7355934  75.0491126
  76.5841355 123.9673080  75.2039060  68.5958155 110.7444721  78.9451041
  69.1192557 110.9907018  79.7077350  68.3770489 111.5764756  78.5254178
  63.9925436 113.0148396  66.8122166  63.6638143 112.1345775  66.6297272
  64.3464807 112.9596065  67.6998555  73.2405015 124.6503299  71.3217151
  73.0929978 123.7220006  71.5024721  74.0658509 124.6723389  70.8374226
  67.1067260 113.3021366  67.1797643  67.4463332 113.8307287  66.4576252
  67.5539380 113.6401772  67.9556210  76.8439137 125.4731857  72.4082024
  77.7685685 125.2674719  72.2706475  76.6754440 125.2248258  73.3171365
  69.8010700 111.6858416  76.6300711  69.4607521 110.8866229  77.0321391
  69.0949707 111.9860127  76.0577545  70.4527172 108.7707729  75.0828034
  71.2753242 108.2968207  74.9606925  70.6965236 109.5498213  75.5826721
  69.0935407 111.7995987  65.3790936  69.8143769 112.1777240  64.8754653
  68.4700711 112.5184864  65.4825914  73.2366530 112.5041136  66.3149268
  73.4530144 113.3865774  66.0138097  72.7560597 112.1127350  65.5854910
  67.9765751 115.4626849  72.8920013  67.8310332 115.7767153  73.7844295
  67.4990955 116.0811750  72.3390912  69.8362134 112.4529397  72.9400903
  69.8223703 111.5570491  72.6033201  70.5534562 112.4600061  73.5739189
  71.6888265 112.8866738  74.9854030  71.4306042 113.8083808  74.9838360
  71.1573305 112.4897172  75.6754494  76.6334453 125.9917525  67.7644115
  76.8071331 125.4263947  67.0117968  77.1263345 126.7918420  67.5823605
  62.4511413 118.0032194  75.8307674  61.9064881 118.7792002  75.9627949
  63.3290763 118.3502998  75.6726796  69.2399030 111.3343778  68.2088473
  69.3614941 110.4060424  68.4079360  68.9501072 111.3482464  67.2966788
  72.1090220 109.0198688  71.3455193  72.1311917 109.0838021  70.3907172
  72.5258279 108.1803197  71.5395699  82.4873844 118.7553948  69.3834415
  82.9304991 118.0061273  68.9853538  81.6100355 118.7464084  69.0008147
  77.6209626 125.3084289  64.8641014  78.3160530 125.9290982  65.0828328
  77.9632776 124.4579640  65.1393392  63.2377435 117.1302090  78.7237831
  62.4959171 117.2784725  79.3102461  62.9170179 117.3910356  77.8604580
  79.5201049 122.7583995  66.3928344  80.0452373 123.0971267  65.6677664
  79.4323401 121.8231010  66.2091479  71.1821098 126.6718068  78.5218221
  71.4908224 126.4267215  79.3940921  71.9796580 126.8764707  78.0337091
  71.2041710 128.8255978  70.7523598  70.7646700 128.3332357  71.4456454
  71.9549827 128.2828946  70.5115673  63.6834049 125.0167519  70.7548226
  64.5092069 124.7171291  70.3746869  63.3328101 124.2475141  71.2038014
  68.6515582 124.3693987  72.8245899  68.0295591 123.7064692  72.5248127
  69.3220449 124.3955119  72.1419547  61.8842654 122.9353845  71.7137159
  61.0474562 122.5076020  71.5321161  61.8566299 123.1286289  72.6507950
  68.7240109 112.8475775  82.4178405  68.7728265 113.7237898  82.0356175
  69.2662624 112.3053168  81.8450049  79.2094955 123.3916898  81.6979542
  78.4190499 123.3741037  81.1584042  78.9728310 123.9305192  82.4528579
  79.3292830 120.2409365  79.0112271  79.3790835 120.0759372  79.9527794
  79.2206753 119.3736624  78.6210152  68.2129089 122.9197910  66.3004360
  68.3617209 123.6033375  65.6471033  69.0195532 122.9003000  66.8153816
  76.6196592 116.2240293  80.3271578  77.5206455 116.0846758  80.0355575
  76.6944567 116.3894748  81.2669755  70.9539398 113.6007147  79.1724764
  70.0842707 113.8940714  78.9007353  71.1898878 114.1847592  79.8932028
  80.8311027 122.6606306  79.2554292  80.5395835 123.0236287  80.0917753
  80.2183158 121.9473315  79.0767625  82.0306709 120.2259186  71.7756863
  82.8653601 120.6648990  71.9394423  82.1665838 119.7497839  70.9565108
  79.0798215 117.7838921  77.7234350  79.5552337 117.9766567  76.9153202
  78.1563780 117.8398107  77.4777734  65.9681722 118.9463088  67.3065429
  65.7227764 118.0425418  67.5045639  66.1377636 118.9480238  66.3644907
  73.6578432 109.8186764  76.6890184  74.1760375 110.5547791  76.3636673
  73.3033564 110.1250758  77.5236943  65.2377369 114.6791446  64.8051590
  64.5446614 114.7535801  64.1491626  64.9929121 113.9151789  65.3273107
  73.9091026 106.2387047  72.2091081  74.1892780 105.5710236  72.8351507
  74.6941633 106.4316143  71.6965745  71.7124494 125.4146041  63.7716107
  71.1398461 126.0336228  63.3186579  72.2857288 125.9645403  64.3056029
  77.7799884 114.6604681  75.9562656  78.7317307 114.7602779  75.9774880
  77.6103335 113.8682949  76.4660740  75.8014264 111.7460264  76.1422057
  75.2064196 112.0265277  75.4468546  75.5163960 112.2354165  76.9138798
  74.9321754 125.6983191  64.9024690  75.8652427 125.6328753  65.1057565
  74.8444967 126.5339458  64.4439222  77.5609771 125.0149061  61.8628637
  77.4823402 124.6808925  62.7564395  78.3819437 125.5070829  61.8620109
  80.2587962 117.8810801  75.0704956  80.2264282 116.9426801  75.2564640
  80.8688586 117.9594837  74.3370781  72.0971293 116.7506854  61.1132160
  73.0430397 116.6213062  61.1820578  71.7185538 116.0121516  61.5901588
  80.4082450 114.6721844  75.1163239  79.8921499 113.8880301  74.9293168
  81.2922399 114.3440561  75.2809758  78.0693177 108.4162860  71.0759052
  77.8717998 108.1077948  71.9602384  78.6792883 109.1424499  71.2056981
  86.0764512 118.9426807  74.2110993  86.8067900 118.6812096  74.7718696
  85.4671457 118.2055529  74.2513060  84.1579809 117.0834670  74.8085444
  83.4312972 116.9490635  74.2001935  83.7427096 117.3911499  75.6142162
  71.9809985 120.8024600  82.5732817  72.9012995 120.9803199  82.7672863
  71.9459568 119.8580645  82.4212516  70.2814210 114.6756830  61.0487045
  69.3745665 114.3789943  61.1249759  70.5590191 114.3786648  60.1821331
  61.1992150 115.9963193  71.4986091  60.8794935 115.1428502  71.2060465
  60.6525578 116.2111772  72.2544059  64.9772058 118.7125634  75.2155598
  65.1958068 119.6442742  75.2343632  65.3897832 118.3533609  76.0010402
  71.8976276 109.2193720  67.2031286  71.0877004 108.8740805  67.5786532
  72.5860693 108.9101263  67.7918898  73.8266824 108.2971767  68.8255583
  74.3797863 108.7167220  69.4845606  74.0636910 107.3707515  68.8678539
  69.8499923 114.2858840  84.6058347  69.7496650 115.2353197  84.5370438
  69.6321465 113.9577079  83.7334417  69.0512995 111.5343765  61.1899024
  69.9132159 111.8598664  61.4494842  69.2363339 110.7475261  60.6772090
  61.0680410 119.6166105  73.4679213  60.3743882 119.2020058  72.9549167
  61.8153401 119.6586641  72.8712632  77.2045631 110.4072292  68.3334247
  76.6244300 111.0657096  67.9512300  76.9381564 109.5849636  67.9221665
  75.6549197 109.8077349  70.5355568  76.1548976 109.9193884  69.7269886
  76.2984805 109.5038402  71.1756376  69.7131193 117.7155979  83.4223408
  69.2298275 118.5156339  83.6287298  69.7992132 117.7263924  82.4690852
  62.9817153 119.5484359  71.3445228  62.9587841 119.6472046  70.3927111
  63.2917789 120.3949509  71.6662394  65.6404531 121.6060514  75.4591842
  66.5947784 121.5744456  75.3921774  65.4417054 121.1451137  76.2742068
  66.2303913 120.1761630  78.0262640  67.0496802 120.6705708  78.0497477
  66.5040721 119.2593598  77.9980207  75.9870509 112.5672382  67.3890595
  75.0996364 112.8522033  67.1710790  76.4024498 112.4066145  66.5417872
  79.3385045 112.5918903  71.1044935  80.1145435 113.0815355  71.3769552
  78.6133179 113.0176957  71.5616804  81.7757604 113.3046522  72.1618875
  82.3702095 113.0642258  71.4512184  81.8484187 112.5853653  72.7892412
  63.9954759 127.1480133  72.4762040  63.8609227 126.3880534  71.9100038
  63.5786822 127.8721033  72.0090829  75.1313722 122.3317057  61.4838615
  75.8349573 122.5367059  62.0996271  74.4076371 122.8993819  61.7487699
  75.9611533 118.0826918  67.6040886  75.9046734 118.5395469  66.7648518
  76.5139875 117.3217603  67.4263728  79.7716339 113.8716650  68.4291005
  79.5153273 113.4713286  69.2599213  79.1469207 114.5860444  68.3041144
  84.0828677 116.6112723  70.9362297  83.5228235 116.6805912  71.7093859
  83.4772180 116.4353708  70.2161793  67.1523885 128.0449450  72.6880483
  67.0356269 128.9894883  72.5859173  66.3316332 127.7423012  73.0766282
  77.0400420 122.7699586  63.5337075  77.8746024 122.3380784  63.3514550
  76.8784763 122.5981600  64.4613970  76.6946312 119.2731699  64.8993415
  76.6395116 119.1075971  63.9581859  76.0692367 119.9807732  65.0555605
  61.4838827 114.5099764  78.7254837  62.1297691 113.9998718  79.2142062
  61.2755978 115.2468445  79.2998262  74.0092219 121.5780611  84.2246978
  74.8783379 121.7521263  83.8633612  73.5298971 122.3975028  84.1022707
  70.0042438 108.7739808  64.4778733  69.9921107 109.7181648  64.6347004
  70.8965859 108.5909954  64.1838194  68.1778399 128.6977712  75.9036411
  69.0805646 128.7301322  76.2202906  67.9515770 127.7678163  75.9182747
  69.9332001 127.4508699  72.5646490  68.9827633 127.4510560  72.4510862
  70.2364488 126.7041433  72.0482524  73.8194557 105.3682585  68.7324670
  73.0526953 104.8141072  68.8781352  74.2305262 105.4404454  69.5938822
  65.8236318 111.6567381  82.8229851  66.6867780 111.3004186  83.0333176
  65.2501729 111.3181276  83.5105255  85.6684695 133.2869237  73.6292252
  86.3063105 133.1675984  72.9255592  85.5505538 134.2350081  73.6880204
  82.4774401 133.2396665  73.5653777  82.1392913 133.1237730  72.6774312
  83.3464169 132.8387830  73.5454783  78.3361217 135.0932142  69.5550668
  77.7726082 135.0022078  68.7866956  78.2213612 134.2732046  70.0353160
  82.9594184 134.3931517  79.5239982  82.9482825 133.9984315  78.6520486
  83.1214824 133.6597589  80.1173754  75.8825649 136.5883333  72.3934888
  76.6746941 136.2474158  71.9781188  76.1222299 136.6978308  73.3137042
  83.9160776 138.7603109  64.8665133  83.2648755 139.3457190  64.4799147
  84.7105138 139.2909304  64.9260170  77.8416403 135.8492246  65.2652267
  78.6147279 135.3021233  65.1265143  78.1941802 136.7136496  65.4766729
  79.6801445 137.1768629  78.4719166  79.3891311 138.0814260  78.3565833
  80.3158430 137.2185156  79.1863236  80.6057652 134.5545477  75.0620526
  81.2021224 134.3301500  74.3477489  80.6632624 133.8130223  75.6645974
  80.1782681 132.0084913  62.8970717  80.4308201 131.4866434  62.1354180
  79.2407240 131.8451058  62.9997401  85.2225963 131.0120691  70.7045460
  86.0089053 130.5940114  70.3535877  85.4864668 131.9166783  70.8727109
  85.3936041 136.4493541  65.4034117  84.7581874 136.5228168  66.1155022
  85.0633447 137.0387140  64.7253196  90.6234391 130.9495924  71.6078439
  91.3559563 130.3795141  71.8416268  89.8673746 130.5617525  72.0484944
  79.8978969 133.9113018  65.0995092  79.7815227 133.2357922  65.7676176
  80.0081229 133.4245392  64.2827245  82.2410510 133.3723166  68.8041781
  81.8768718 132.8453787  69.5154703  83.0977626 132.9821635  68.6308267
  88.1459811 124.6617498  76.0673047  87.8143136 125.5312909  75.8434262
  87.5505424 124.3453782  76.7467078  81.8815997 128.4013065  63.8003130
  82.0490400 129.2693302  64.1673601  81.6913166 128.5640347  62.8764419
  84.6391330 136.8630044  75.4668960  84.3392054 137.7655083  75.3584767
  84.2942390 136.5962227  76.3190113  78.0903812 133.3143841  71.5005665
  77.1654308 133.1820055  71.7083356  78.3388225 134.0938060  71.9975607
  88.0388474 129.3812584  73.1466397  87.1305352 129.3127993  72.8525158
  87.9876070 129.8584529  73.9748223  81.8605218 130.8570723  64.7849797
  81.7404843 131.3027774  65.6235277  81.1657807 131.2056040  64.2263335
  75.4512623 132.9577115  72.3349454  75.5805004 133.2111594  73.2488865
  74.7710074 133.5504823  72.0154109  79.6212110 143.6274365  68.4339928
  79.5436140 144.5782190  68.5128408  79.0173754 143.2820237  69.0914854
  82.1129340 130.8002230  81.0901295  81.3362674 131.3596150  81.0804159
  82.7519903 131.2859013  81.6116165  89.9050121 127.5829023  74.9244271
  89.2624501 127.8761556  74.2784066  89.4005049 127.4681943  75.7297468
  87.5590284 131.3292196  65.6130131  88.4708140 131.5619583  65.4377828
  87.0499931 131.9129240  65.0505209  80.3675712 133.6087683  80.6519262
  81.1090397 134.1472727  80.3754085  79.6612698 134.2353972  80.8090814
  85.8431052 135.7516824  79.2491423  86.2514408 135.3099234  78.5046056
  85.1208314 135.1769451  79.5025616  82.1962122 130.6889431  76.6224980
  83.0423317 131.1128844  76.7659629  82.1360760 130.0323055  77.3163543
  86.1659867 136.3118014  73.0043712  85.5368729 136.4763729  72.3019780
  85.7785529 136.7259624  73.7754676  90.0449099 137.2472452  70.3588076
  89.3600137 137.6271354  69.8085109  90.1292948 137.8567779  71.0920024
  85.3461567 128.3493799  78.2806154  85.1022499 129.1035859  77.7440429
  85.6221498 128.7279147  79.1153401  87.3000030 134.8932411  76.9583419
  87.5116925 135.5364171  76.2817800  87.2529778 134.0594728  76.4905349
  84.9026259 127.5050232  73.8619992  84.0410738 127.8031485  74.1536729
  84.9288694 127.7220631  72.9301024  81.7187829 136.0492422  70.2693797
  82.1826174 136.3280125  69.4798420  81.4544627 135.1475867  70.0866888
  78.6111910 135.5963904  73.2073560  79.1813267 136.0251172  72.5691045
  79.2020021 135.3146489  73.9057746  80.6556715 132.1715575  67.0783362
  81.3580758 132.6236619  67.5457289  80.3237343 131.5299394  67.7063255
  79.1037076 130.7627331  81.4534572  78.4735737 131.4443612  81.6869969
  78.9973164 130.6510413  80.5087710  74.3982049 130.4299128  72.3800496
  73.6081103 130.6856656  71.9040607  74.8893296 131.2447465  72.4852536
  88.4145858 137.7704367  75.1305777  89.2363302 137.3684554  74.8488458
  88.4108261 137.6672601  76.0821893  76.3496794 130.7943707  69.3383973
  75.5527957 130.9062401  69.8567468  76.1222386 131.1330359  68.4724863
  82.1802462 137.3188410  77.2866487  82.2446894 137.7808817  78.1224659
  81.4713385 136.6885775  77.4148797  72.6819752 130.6829618  74.8115487
  72.9327790 131.5676628  75.0773063  73.2179300 130.5034220  74.0390579
  96.5051851 134.1143115  71.4790748  95.7515560 133.5450513  71.3234753
  96.6399392 134.0805780  72.4261383  81.8950479 138.9856517  67.1545468
  81.7596154 139.8308053  67.5830315  82.4360292 139.1875795  66.3911401
  78.3817819 125.0648097  83.8159823  77.9884764 124.5114296  84.4907467
  79.1983959 125.3758676  84.2066340  75.3479877 136.5031956  67.7273393
  75.8604397 137.2975206  67.8778957  76.0002589 135.8058246  67.6606994
  77.1574761 139.6197712  69.8096146  77.3341390 140.5415676  69.6217130
  77.9531595 139.3056131  70.2390526  81.2985780 126.4805976  81.4080079
  82.0395493 127.0813130  81.3284542  81.5303703 125.7383614  80.8498122
  76.4427118 131.6662344  79.6858309  76.3280633 130.7647601  79.9865408
  75.5871636 131.9126040  79.3343126  83.5218956 139.6080084  81.2845810
  83.0782810 138.8216463  80.9666714  84.1836169 139.7959234  80.6189700
  78.2806077 141.1375886  75.8106488  78.8313502 141.0092949  75.0383482
  77.4417553 141.4370775  75.4601381  85.6200194 139.8882884  79.3127211
  85.6018669 140.7091765  78.8207480  86.5420114 139.7636959  79.5377352
  82.0773248 137.4027013  80.1550719  82.6101585 136.6415302  79.9250027
  81.5487329 137.1100665  80.8974874  85.2442943 122.5087079  75.6844361
  84.9007212 123.3988721  75.6083472  85.6121905 122.3188737  74.8213946
  73.3128793 134.8320610  68.5032963  74.1504015 135.2417618  68.2866671
  73.4907061 133.8920052  68.4733157  85.2093225 132.4995690  64.1916796
  84.6939849 133.2700295  64.4305184  84.9370534 131.8260827  64.8149858
  82.7940337 127.3445391  69.2502035  81.9381933 126.9552242  69.0707673
  83.2067288 127.4237352  68.3901820  84.3239483 124.8791735  73.6493594
  83.8204279 124.8421870  72.8361400  84.6170090 125.7884477  73.7090251
  80.5682369 124.9630464  72.6559776  81.4335366 124.7673273  72.2965665
  80.6359878 124.7340816  73.5829133  90.1827500 135.2528045  66.1269970
  89.4056942 134.9139205  65.6825132  90.8618981 135.2580668  65.4524935
  84.9979529 130.3722783  66.0176577  84.6929664 130.6868932  66.8686720
  85.9509971 130.4504202  66.0603910  83.4425961 136.5313006  67.6669531
  82.9147322 135.7965765  67.3542769  82.9413463 137.3087682  67.4209500
  88.4218807 134.7262026  72.7836578  87.7642481 135.4161288  72.8716706
  89.2259206 135.1158458  73.1270564  78.1744688 127.1932672  70.0276143
  78.7488440 126.9707854  69.2949336  78.7615671 127.2621367  70.7804744
  87.2324265 133.0806399  70.8340519  87.7456147 133.7136391  71.3362229
  87.8825489 132.4807595  70.4683879  78.5014275 129.2237133  64.0472028
  77.6651587 129.5611820  64.3681303  78.3619045 129.0886113  63.1099165
  80.4767356 124.0673921  68.7551212  79.8231768 123.7522938  68.1307827
  80.4347830 123.4449662  69.4811035  81.5878561 134.3493216  60.6704504
  80.6805622 134.1182470  60.8695653  82.0849593 133.5530835  60.8578486
  84.4946640 143.0590723  63.5901190  83.8208338 143.3622420  64.1986148
  84.8812462 143.8619804  63.2406648  83.7105096 130.5555855  73.0798860
  82.7927658 130.7770802  72.9220548  84.1265240 130.6302165  72.2210567
  84.4940144 131.9547270  68.2101540  85.2411963 132.4668668  67.9008662
  84.7631733 131.6331323  69.0705934  82.7666794 134.4505811  65.1928494
  81.8578013 134.1664844  65.2900964  82.7961878 134.8704890  64.3331801
  87.9986062 138.0612401  68.9619662  87.5448389 137.2203310  69.0184852
  87.3680028 138.6973799  69.2994442  86.9418981 128.9904387  70.1920329
  86.2041738 128.4781773  70.5230572  87.1945755 128.5504768  69.3803606
  86.4419001 139.8988897  69.8969480  86.7341975 140.4593954  69.1781846
  86.9517621 140.1917458  70.6522639  87.0430608 121.7680639  70.7862099
  87.3489485 120.9078002  70.4988014  87.7683213 122.3598259  70.5861093
  73.3354965 132.1711325  69.1743697  73.1379364 131.5780686  68.4494763
  72.7801628 131.8663535  69.8919635  81.3151688 132.0634432  71.2938290
  81.3700298 131.1108268  71.2180766  80.5042890 132.2193871  71.7779588
  82.4642882 135.9914555  62.5316573  82.0262312 135.2750414  62.0722210
  83.2053323 136.2190670  61.9701664  79.2544048 130.6811491  69.0528669
  78.4411914 130.9805662  69.4593861  79.7503042 130.2867180  69.7703151
  81.4052626 140.6769248  70.9862933  81.3628805 140.9030095  70.0571465
  82.3215325 140.4432623  71.1348734  84.8518260 131.1453316  77.8843563
  85.2067647 131.3724789  78.7438028  85.4990391 131.4771693  77.2620818
  90.5815997 134.2671752  68.5892892  90.4433895 134.4573348  67.6614081
  90.2252216 135.0291135  69.0460943  78.7458123 128.2529847  74.6689904
  79.3857502 128.1118606  73.9712867  77.9135653 127.9664360  74.2928506
  90.6085376 136.3348279  73.6004163  91.0421883 136.2423568  74.4487217
  91.3216957 136.3105779  72.9624179  79.5218427 137.5532277  70.7824896
  80.3159025 137.0582597  70.5807471  78.8110119 137.0250140  70.4192602
  84.3413271 139.9350373  75.1337264  84.3950293 140.5041309  75.9014980
  83.4728053 140.1052258  74.7691301  75.8301190 131.6975359  66.8584649
  74.8998778 131.6359815  67.0754611  75.9258662 131.1751312  66.0621290
  75.7486739 128.2230172  69.4462890  76.0093557 129.1375505  69.3372051
  76.5703912 127.7554614  69.5959503  77.2211665 129.6367929  76.6161715
  77.8934718 129.4285291  75.9674364  76.3941451 129.4390015  76.1766947
  91.4700926 136.3771979  76.1337048  91.6636816 137.2817790  76.3796323
  91.3701544 135.9179398  76.9675633  83.1237237 126.2629870  78.6327376
  82.4765152 126.9619820  78.5391852  83.8938252 126.6966014  79.0003624
  86.5316035 136.5278722  81.7077929  86.3801541 136.2989274  80.7908013
  86.5220714 137.4849324  81.7209274  83.3001371 134.1010635  76.6924196
  84.2293431 134.2521794  76.5193163  82.8792401 134.1894656  75.8372842
  82.0989703 138.1261299  74.4622733  81.9600788 137.7580084  75.3348671
  81.3104299 138.6408939  74.2906691  82.6937855 143.2270396  65.8048270
  82.8689610 142.7558439  66.6193892  82.0070643 143.8536162  66.0329530
  83.6494918 137.5042902  71.8511571  83.3144750 137.4643672  72.7469221
  83.1498864 136.8387618  71.3781981  77.6239162 132.9110532  77.3764152
  77.4858960 132.1790771  77.9775691  78.5344085 132.8219432  77.0948340
  86.5854110 134.8498936  62.1248631  85.9683280 134.1245764  62.0281683
  86.1170598 135.6108297  61.7815705  80.2521463 132.6230491  76.8647832
  80.9621081 131.9823684  76.8234450  80.2090771 132.8743386  77.7874013
  88.2408241 139.5597845  79.7854411  88.1820787 138.8757065  79.1184994
  88.6427760 140.3016835  79.3335037  78.9650396 129.6095709  78.6843471
  78.4287754 129.1586448  79.3365068  78.3767105 129.7441618  77.9413936
  77.2598940 146.3759759  72.5788130  77.4995538 147.0078283  73.2567148
  76.4168136 146.0247799  72.8653489  78.3752655 129.0684361  61.2469935
  77.4982122 128.9473161  60.8832182  78.8510409 128.2770439  60.9948824
  88.2425648 137.5237429  78.0168391  87.3552427 137.1863350  78.1394789
  88.8124200 136.7920460  78.2537156  69.8954796 133.8561520  71.3411442
  70.5825835 133.5423250  70.7532457  69.7402924 134.7602885  71.0678693
  74.6989518 128.7451717  75.7696466  74.6147706 128.1377386  75.0346876
  73.8772224 129.2360735  75.7705962  81.7726802 142.1838881  74.9829634
  81.6996973 142.9893852  75.4948938  81.3304195 142.3830847  74.1577655
  81.5616581 141.4210651  68.4932455  80.7784103 141.9632331  68.5870680
  82.2609327 141.9384631  68.8926697  84.8713232 127.2305280  71.1366661
  85.3681931 126.4775243  70.8167731  84.1000213 127.2669597  70.5709870
  92.7242989 132.9345646  72.7784952  92.7132865 133.8170361  72.4078885
  91.8560368 132.5817197  72.5839489  84.2325485 142.0825715  77.1387792
  84.9453458 142.7173180  77.0663694  83.7415514 142.1789581  76.3227794
  85.9543012 135.9876968  68.7105084  85.0199291 136.1078430  68.5409788
  86.1319681 135.0849434  68.4465094  81.4548200 129.3722663  70.8638345
  81.0845988 128.8193704  71.5519251  81.9507293 128.7680797  70.3113345
  89.3415564 131.8294287  69.2455118  89.8076016 132.6622279  69.1715421
  89.7923064 131.3639269  69.9500377  79.2837399 139.8320158  77.9593363
  79.9846858 140.4656641  78.1122758  78.8132514 140.1734890  77.1989003
  87.4091795 138.1738108  66.2441270  87.6851639 138.0594703  67.1535144
  86.5396293 137.7755593  66.2053443  87.3132226 124.1974874  73.2846020
  86.3995306 124.4279101  73.4528227  87.7425328 124.2813318  74.1360052
  87.0838685 132.3864766  75.7845914  86.4310135 132.6340673  75.1298366
  87.4619065 131.5728904  75.4508391  84.0445859 142.4224459  69.8874084
  84.2268253 141.6046115  70.3501836  84.8678845 142.6392151  69.4498974
  84.3788024 141.3492644  67.1489132  84.9075791 140.8385099  66.5359295
  84.6416244 141.0335174  68.0134665  83.1326258 133.1284577  82.2711951
  82.4566895 133.0278706  82.9414326  83.9553892 132.9723791  82.7347948
  74.8805117 139.3656514  74.8924466  75.4658554 138.6200201  75.0252370
  74.6829955 139.6760470  75.7761130  77.7343772 142.4007761  69.9086908
  77.0654147 142.8853889  69.4250948  77.5956642 142.6476981  70.8230287
  69.4722772 131.9362114  73.6128909  69.5106871 131.4025704  74.4066027
  68.9663065 131.4097319  72.9939886  81.8749041 144.4351504  76.5069567
  82.4267349 144.5983126  77.2718652  82.2155234 145.0255942  75.8349592
  76.8513534 126.7826654  77.1091451  76.9154860 127.6441485  76.6968849
  76.7880654 126.1700656  76.3763810  76.3265807 128.8549787  80.7564486
  76.9537845 128.4726864  81.3702010  75.4693725 128.6363989  81.1220178
  86.7259915 139.2612762  82.3618221  87.2699819 139.8742720  81.8673176
  86.1446760 139.8192340  82.8785234  73.1031349 130.6626216  66.6882841
  73.3984790 129.7536894  66.6349894  72.2019385 130.6413955  66.3663843
  85.0117428 142.3833480  73.4933249  84.8868568 141.5823220  72.9844194
  85.6696519 142.8779673  73.0047219  76.6325596 128.7382212  72.6710389
  75.9112182 129.3518180  72.5317862  77.4218852 129.2739977  72.5927035
  87.0752336 140.1842500  75.1212799  86.1282672 140.0647851  75.0491126
  87.4235110 139.2964998  75.2039060  79.4351910 126.0736639  78.9451041
  79.9586312 126.3198935  79.7077350  79.2164243 126.9056674  78.5254178
  74.8319191 128.3440314  66.8122166  74.5031897 127.4637692  66.6297272
  75.1858562 128.2887982  67.6998555  84.0798770 139.9795216  71.3217151
  83.9323732 139.0511924  71.5024721  84.9052263 140.0015307  70.8374226
  77.9461014 128.6313283  67.1797643  78.2857087 129.1599205  66.4576252
  78.3933135 128.9693689  67.9556210  87.6832892 140.8023775  72.4082024
  88.6079439 140.5966636  72.2706475  87.5148195 140.5540176  73.3171365
  80.6404455 127.0150334  76.6300711  80.3001275 126.2158147  77.0321391
  79.9343461 127.3152045  76.0577545  81.2920927 124.0999646  75.0828034
  82.1146996 123.6260125  74.9606925  81.5358990 124.8790130  75.5826721
  79.9329161 127.1287905  65.3790936  80.6537524 127.5069158  64.8754653
  79.3094465 127.8476782  65.4825914  84.0760284 127.8333054  66.3149268
  84.2923898 128.7157692  66.0138097  83.5954351 127.4419267  65.5854910
  78.8159505 130.7918767  72.8920013  78.6704086 131.1059070  73.7844295
  78.3384709 131.4103667  72.3390912  80.6755888 127.7821315  72.9400903
  80.6617457 126.8862408  72.6033201  81.3928316 127.7891979  73.5739189
  82.5282019 128.2158655  74.9854030  82.2699797 129.1375726  74.9838360
  81.9967059 127.8189090  75.6754494  87.4728208 141.3209442  67.7644115
  87.6465085 140.7555865  67.0117968  87.9657099 142.1210337  67.5823605
  73.2905168 133.3324112  75.8307674  72.7458636 134.1083919  75.9627949
  74.1684517 133.6794916  75.6726796  80.0792784 126.6635695  68.2088473
  80.2008695 125.7352342  68.4079360  79.7894827 126.6774381  67.2966788
  82.9483975 124.3490606  71.3455193  82.9705671 124.4129939  70.3907172
  83.3652034 123.5095114  71.5395699  93.3267599 134.0845865  69.3834415
  93.7698745 133.3353191  68.9853538  92.4494109 134.0756002  69.0008147
  88.4603380 140.6376207  64.8641014  89.1554285 141.2582900  65.0828328
  88.8026530 139.7871558  65.1393392  74.0771189 132.4594008  78.7237831
  73.3352925 132.6076643  79.3102461  73.7563934 132.7202273  77.8604580
  90.3594803 138.0875912  66.3928344  90.8846127 138.4263185  65.6677664
  90.2717156 137.1522928  66.2091479  82.0214852 142.0009986  78.5218221
  82.3301979 141.7559133  79.3940921  82.8190334 142.2056624  78.0337091
  82.0435464 144.1547896  70.7523598  81.6040454 143.6624274  71.4456454
  82.7943581 143.6120863  70.5115673  74.5227803 140.3459436  70.7548226
  75.3485823 140.0463208  70.3746869  74.1721855 139.5767059  71.2038014
  79.4909336 139.6985905  72.8245899  78.8689346 139.0356610  72.5248127
  80.1614203 139.7247037  72.1419547  72.7236408 138.2645763  71.7137159
  71.8868316 137.8367937  71.5321161  72.6960054 138.4578206  72.6507950
  79.5633864 128.1767693  82.4178405  79.6122019 129.0529816  82.0356175
  80.1056378 127.6345086  81.8450049  90.0488709 138.7208816  81.6979542
  89.2584253 138.7032955  81.1584042  89.8122064 139.2597110  82.4528579
  90.1686585 135.5701282  79.0112271  90.2184589 135.4051290  79.9527794
  90.0600508 134.7028541  78.6210152  79.0522843 138.2489828  66.3004360
  79.2010964 138.9325292  65.6471033  79.8589287 138.2294918  66.8153816
  87.4590347 131.5532210  80.3271578  88.3600210 131.4138675  80.0355575
  87.5338321 131.7186665  81.2669755  81.7933152 128.9299065  79.1724764
  80.9236462 129.2232631  78.9007353  82.0292633 129.5139510  79.8932028
  91.6704781 137.9898224  79.2554292  91.3789590 138.3528204  80.0917753
  91.0576913 137.2765232  79.0767625  92.8700464 135.5551104  71.7756863
  93.7047355 135.9940908  71.9394423  93.0059592 135.0789757  70.9565108
  89.9191970 133.1130839  77.7234350  90.3946091 133.3058485  76.9153202
  88.9957535 133.1690024  77.4777734  76.8075476 134.2755006  67.3065429
  76.5621518 133.3717336  67.5045639  76.9771391 134.2772156  66.3644907
  84.4972186 125.1478682  76.6890184  85.0154130 125.8839709  76.3636673
  84.1427319 125.4542675  77.5236943  76.0771124 130.0083363  64.8051590
  75.3840369 130.0827718  64.1491626  75.8322876 129.2443707  65.3273107
  84.7484780 121.5678965  72.2091081  85.0286534 120.9002154  72.8351507
  85.5335387 121.7608060  71.6965745  82.5518249 140.7437959  63.7716107
  81.9792216 141.3628146  63.3186579  83.1251042 141.2937320  64.3056029
  88.6193639 129.9896599  75.9562656  89.5711061 130.0894696  75.9774880
  88.4497089 129.1974867  76.4660740  86.6408018 127.0752182  76.1422057
  86.0457950 127.3557195  75.4468546  86.3557715 127.5646083  76.9138798
  85.7715509 141.0275109  64.9024690  86.7046182 140.9620670  65.1057565
  85.6838721 141.8631376  64.4439222  88.4003525 140.3440979  61.8628637
  88.3217157 140.0100843  62.7564395  89.2213192 140.8362747  61.8620109
  91.0981716 133.2102718  75.0704956  91.0658036 132.2718719  75.2564640
  91.7082340 133.2886755  74.3370781  82.9365047 132.0798771  61.1132160
  83.8824152 131.9504979  61.1820578  82.5579292 131.3413433  61.5901588
  91.2476205 130.0013762  75.1163239  90.7315254 129.2172218  74.9293168
  92.1316153 129.6732478  75.2809758  88.9086932 123.7454777  71.0759052
  88.7111753 123.4369865  71.9602384  89.5186637 124.4716416  71.2056981
  96.9158266 134.2718725  74.2110993  97.6461655 134.0104013  74.7718696
  96.3065212 133.5347447  74.2513060  94.9973563 132.4126588  74.8085444
  94.2706727 132.2782553  74.2001935  94.5820850 132.7203416  75.6142162
  82.8203740 136.1316517  82.5732817  83.7406749 136.3095116  82.7672863
  82.7853323 135.1872563  82.4212516  81.1207964 130.0048748  61.0487045
  80.2139420 129.7081860  61.1249759  81.3983945 129.7078566  60.1821331
  72.0385905 131.3255111  71.4986091  71.7188689 130.4720419  71.2060465
  71.4919333 131.5403689  72.2544059  75.8165812 134.0417552  75.2155598
  76.0351822 134.9734660  75.2343632  76.2291586 133.6825526  76.0010402
  82.7370030 124.5485637  67.2031286  81.9270758 124.2032722  67.5786532
  83.4254447 124.2393181  67.7918898  84.6660578 123.6263684  68.8255583
  85.2191617 124.0459138  69.4845606  84.9030665 122.6999432  68.8678539
  80.6893678 129.6150758  84.6058347  80.5890405 130.5645115  84.5370438
  80.4715220 129.2868997  83.7334417  79.8906749 126.8635683  61.1899024
  80.7525913 127.1890581  61.4494842  80.0757093 126.0767179  60.6772090
  71.9074165 134.9458023  73.4679213  71.2137636 134.5311975  72.9549167
  72.6547156 134.9878559  72.8712632  88.0439385 125.7364209  68.3334247
  87.4638055 126.3949013  67.9512300  87.7775318 124.9141554  67.9221665
  86.4942952 125.1369267  70.5355568  86.9942730 125.2485802  69.7269886
  87.1378560 124.8330320  71.1756376  80.5524948 133.0447897  83.4223408
  80.0692029 133.8448257  83.6287298  80.6385887 133.0555842  82.4690852
  73.8210907 134.8776276  71.3445228  73.7981595 134.9763964  70.3927111
  74.1311544 135.7241427  71.6662394  76.4798285 136.9352431  75.4591842
  77.4341539 136.9036374  75.3921774  76.2810809 136.4743055  76.2742068
  77.0697667 135.5053547  78.0262640  77.8890556 135.9997626  78.0497477
  77.3434475 134.5885516  77.9980207  86.8264264 127.8964300  67.3890595
  85.9390119 128.1813950  67.1710790  87.2418253 127.7358063  66.5417872
  90.1778800 127.9210821  71.1044935  90.9539190 128.4107273  71.3769552
  89.4526934 128.3468875  71.5616804  92.6151358 128.6338440  72.1618875
  93.2095849 128.3934176  71.4512184  92.6877942 127.9145570  72.7892412
  74.8348514 142.4772051  72.4762040  74.7002982 141.7172452  71.9100038
  74.4180576 143.2012951  72.0090829  85.9707477 137.6608974  61.4838615
  86.6743327 137.8658977  62.0996271  85.2470126 138.2285736  61.7487699
  86.8005287 133.4118836  67.6040886  86.7440489 133.8687387  66.7648518
  87.3533630 132.6509520  67.4263728  90.6110093 129.2008568  68.4291005
  90.3547027 128.8005203  69.2599213  89.9862961 129.9152361  68.3041144
  94.9222431 131.9404641  70.9362297  94.3621989 132.0097830  71.7093859
  94.3165934 131.7645625  70.2161793  77.9917640 143.3741368  72.6880483
  77.8750024 144.3186800  72.5859173  77.1710086 143.0714929  73.0766282
  87.8794174 138.0991504  63.5337075  88.7139778 137.6672702  63.3514550
  87.7178517 137.9273517  64.4613970  87.5340067 134.6023617  64.8993415
  87.4788870 134.4367888  63.9581859  86.9086122 135.3099650  65.0555605
  72.3232582 129.8391681  78.7254837  72.9691445 129.3290635  79.2142062
  72.1149733 130.5760363  79.2998262  84.8485974 136.9072529  84.2246978
  85.7177133 137.0813181  83.8633612  84.3692725 137.7266946  84.1022707
  80.8436192 124.1031726  64.4778733  80.8314862 125.0473566  64.6347004
  81.7359614 123.9201871  64.1838194  79.0172154 144.0269630  75.9036411
  79.9199401 144.0593240  76.2202906  78.7909524 143.0970081  75.9182747
  80.7725756 142.7800616  72.5646490  79.8221387 142.7802478  72.4510862
  81.0758242 142.0333351  72.0482524  84.6588311 120.6974503  68.7324670
  83.8920707 120.1432989  68.8781352  85.0699016 120.7696371  69.5938822
  76.6630073 126.9859298  82.8229851  77.5261534 126.6296103  83.0333176
  76.0895483 126.6473193  83.5105255  96.5078449 148.6161155  73.6292252
  97.1456859 148.4967902  72.9255592  96.3899292 149.5641999  73.6880204
  93.3168156 148.5688583  73.5653777  92.9786667 148.4529648  72.6774312
  94.1857924 148.1679748  73.5454783  89.1754971 150.4224059  69.5550668
  88.6119837 150.3313996  68.7866956  89.0607366 149.6023964  70.0353160
  93.7987939 149.7223435  79.5239982  93.7876580 149.3276233  78.6520486
  93.9608578 148.9889507  80.1173754  86.7219403 151.9175251  72.3934888
  87.5140695 151.5766075  71.9781188  86.9616054 152.0270226  73.3137042
  94.7554530 154.0895027  64.8665133  94.1042510 154.6749107  64.4799147
  95.5498893 154.6201222  64.9260170  88.6810157 151.1784164  65.2652267
  89.4541033 150.6313151  65.1265143  89.0335556 152.0428413  65.4766729
  90.5195200 152.5060546  78.4719166  90.2285066 153.4106177  78.3565833
  91.1552184 152.5477074  79.1863236  91.4451407 149.8837395  75.0620526
  92.0414979 149.6593417  74.3477489  91.5026378 149.1422140  75.6645974
  91.0176435 147.3376830  62.8970717  91.2701956 146.8158351  62.1354180
  90.0800994 147.1742976  62.9997401  96.0619718 146.3412609  70.7045460
  96.8482807 145.9232032  70.3535877  96.3258422 147.2458701  70.8727109
  96.2329795 151.7785459  65.4034117  95.5975628 151.8520085  66.1155022
  95.9027202 152.3679058  64.7253196 101.4628145 146.2787842  71.6078439
 102.1953317 145.7087059  71.8416268 100.7067501 145.8909442  72.0484944
  90.7372724 149.2404936  65.0995092  90.6208982 148.5649840  65.7676176
  90.8474984 148.7537310  64.2827245  93.0804265 148.7015083  68.8041781
  92.7162472 148.1745704  69.5154703  93.9371381 148.3113552  68.6308267
  98.9853565 139.9909416  76.0673047  98.6536890 140.8604827  75.8434262
  98.3899179 139.6745700  76.7467078  92.7209752 143.7304983  63.8003130
  92.8884154 144.5985219  64.1673601  92.5306921 143.8932265  62.8764419
  95.4785085 152.1921962  75.4668960  95.1785808 153.0947001  75.3584767
  95.1336144 151.9254145  76.3190113  88.9297566 148.6435759  71.5005665
  88.0048063 148.5111973  71.7083356  89.1781980 149.4229978  71.9975607
  98.8782229 144.7104502  73.1466397  97.9699106 144.6419910  72.8525158
  98.8269825 145.1876447  73.9748223  92.6998973 146.1862640  64.7849797
  92.5798598 146.6319691  65.6235277  92.0051561 146.5347958  64.2263335
  86.2906377 148.2869032  72.3349454  86.4198759 148.5403511  73.2488865
  85.6103829 148.8796740  72.0154109  92.9523095 146.1294148  81.0901295
  92.1756429 146.6888068  81.0804159  93.5913658 146.6150931  81.6116165
 100.7443875 142.9120940  74.9244271 100.1018255 143.2053474  74.2784066
 100.2398804 142.7973861  75.7297468  98.3984039 146.6584114  65.6130131
  99.3101895 146.8911500  65.4377828  97.8893686 147.2421158  65.0505209
  91.2069467 148.9379601  80.6519262  91.9484151 149.4764645  80.3754085
  90.5006452 149.5645890  80.8090814  96.6824806 151.0808741  79.2491423
  97.0908163 150.6391152  78.5046056  95.9602068 150.5061369  79.5025616
  93.0355877 146.0181348  76.6224980  93.8817072 146.4420762  76.7659629
  92.9754514 145.3614973  77.3163543  97.0053621 151.6409932  73.0043712
  96.3762484 151.8055646  72.3019780  96.6179283 152.0551542  73.7754676
  96.1855322 143.6785717  78.2806154  95.9416254 144.4327777  77.7440429
  96.4615252 144.0571064  79.1153401  98.1393785 150.2224329  76.9583419
  98.3510680 150.8656089  76.2817800  98.0923533 149.3886646  76.4905349
  95.7420014 142.8342150  73.8619992  94.8804493 143.1323403  74.1536729
  95.7682448 143.0512548  72.9301024  92.5581583 151.3784340  70.2693797
  93.0219929 151.6572043  69.4798420  92.2938381 150.4767785  70.0866888
  89.4505664 150.9255822  73.2073560  90.0207021 151.3543090  72.5691045
  90.0413776 150.6438406  73.9057746  91.4950469 147.5007493  67.0783362
  92.1974512 147.9528536  67.5457289  91.1631098 146.8591311  67.7063255
  89.9430831 146.0919249  81.4534572  89.3129491 146.7735530  81.6869969
  89.8366918 145.9802331  80.5087710  85.2375803 145.7591045  72.3800496
  84.4474857 146.0148574  71.9040607  85.7287050 146.5739383  72.4852536
  99.2539613 153.0996284  75.1305777 100.0757056 152.6976472  74.8488458
  99.2502015 152.9964519  76.0821893  87.1890548 146.1235624  69.3383973
  86.3921712 146.2354319  69.8567468  86.9616141 146.4622277  68.4724863
  93.0196216 152.6480328  77.2866487  93.0840649 153.1100735  78.1224659
  92.3107140 152.0177693  77.4148797  83.5213506 146.0121536  74.8115487
  83.7721544 146.8968546  75.0773063  84.0573054 145.8326137  74.0390579
  92.7344234 154.3148435  67.1545468  92.5989908 155.1599971  67.5830315
  93.2754046 154.5167713  66.3911401  89.2211573 140.3940015  83.8159823
  88.8278519 139.8406214  84.4907467  90.0377714 140.7050593  84.2066340
  86.1873631 151.8323873  67.7273393  86.6998152 152.6267123  67.8778957
  86.8396344 151.1350164  67.6606994  92.1379534 141.8097894  81.4080079
  92.8789248 142.4105047  81.3284542  92.3697457 141.0675532  80.8498122
  87.2820872 146.9954261  79.6858309  87.1674387 146.0939519  79.9865408
  86.4265390 147.2417958  79.3343126  94.3612710 154.9372002  81.2845810
  93.9176564 154.1508380  80.9666714  95.0229924 155.1251152  80.6189700
  92.9167002 152.7318931  80.1550719  93.4495339 151.9707219  79.9250027
  92.3881083 152.4392583  80.8974874  96.0836697 137.8378997  75.6844361
  95.7400967 138.7280639  75.6083472  96.4515660 137.6480655  74.8213946
  84.1522548 150.1612527  68.5032963  84.9897770 150.5709536  68.2866671
  84.3300816 149.2211970  68.4733157  96.0486980 147.8287608  64.1916796
  95.5333603 148.5992213  64.4305184  95.7764288 147.1552744  64.8149858
  93.6334091 142.6737309  69.2502035  92.7775687 142.2844159  69.0707673
  94.0461043 142.7529270  68.3901820  95.1633238 140.2083652  73.6493594
  94.6598033 140.1713787  72.8361400  95.4563845 141.1176395  73.7090251
  91.4076124 140.2922382  72.6559776  92.2729120 140.0965191  72.2965665
  91.4753632 140.0632734  73.5829133 101.0221254 150.5819963  66.1269970
 100.2450697 150.2431122  65.6825132 101.7012735 150.5872586  65.4524935
  95.8373283 145.7014700  66.0176577  95.5323419 146.0160849  66.8686720
  96.7903725 145.7796120  66.0603910  94.2819715 151.8604924  67.6669531
  93.7541077 151.1257683  67.3542769  93.7807218 152.6379600  67.4209500
  99.2612561 150.0553944  72.7836578  98.6036235 150.7453205  72.8716706
 100.0652960 150.4450376  73.1270564  89.0138443 142.5224590  70.0276143
  89.5882195 142.2999771  69.2949336  89.6009425 142.5913284  70.7804744
  98.0718020 148.4098317  70.8340519  98.5849902 149.0428309  71.3362229
  98.7219244 147.8099512  70.4683879  89.3408030 144.5529051  64.0472028
  88.5045342 144.8903737  64.3681303  89.2012799 144.4178031  63.1099165
  91.3161110 139.3965839  68.7551212  90.6625523 139.0814856  68.1307827
  91.2741584 138.7741579  69.4811035  92.4272315 149.6785134  60.6704504
  91.5199377 149.4474387  60.8695653  92.9243347 148.8822753  60.8578486
  94.5498851 145.8847772  73.0798860  93.6321412 146.1062719  72.9220548
  94.9658994 145.9594083  72.2210567  95.3333898 147.2839188  68.2101540
  96.0805717 147.7960585  67.9008662  95.6025488 146.9623241  69.0705934
  93.6060549 149.7797729  65.1928494  92.6971768 149.4956762  65.2900964
  93.6355632 150.1996807  64.3331801  98.8379816 153.3904318  68.9619662
  98.3842143 152.5495228  69.0184852  98.2073783 154.0265717  69.2994442
  97.7812736 144.3196304  70.1920329  97.0435492 143.8073690  70.5230572
  98.0339509 143.8796686  69.3803606  97.8824363 137.0972556  70.7862099
  98.1883240 136.2369920  70.4988014  98.6076968 137.6890176  70.5861093
  84.1748719 147.5003243  69.1743697  83.9773119 146.9072604  68.4494763
  83.6195383 147.1955453  69.8919635  92.1545443 147.3926349  71.2938290
  92.2094052 146.4400186  71.2180766  91.3436645 147.5485788  71.7779588
  93.3036636 151.3206472  62.5316573  92.8656066 150.6042331  62.0722210
  94.0447077 151.5482587  61.9701664  90.0937803 146.0103409  69.0528669
  89.2805668 146.3097580  69.4593861  90.5896797 145.6159098  69.7703151
  95.6912014 146.4745234  77.8843563  96.0461402 146.7016707  78.7438028
  96.3384145 146.8063610  77.2620818 101.4209751 149.5963669  68.5892892
 101.2827650 149.7865265  67.6614081 101.0645970 150.3583052  69.0460943
  89.5851877 143.5821765  74.6689904  90.2251257 143.4410524  73.9712867
  88.7529408 143.2956278  74.2928506 101.4479131 151.6640196  73.6004163
 101.8815637 151.5715486  74.4487217 102.1610712 151.6397697  72.9624179
  90.3612181 152.8824195  70.7824896  91.1552780 152.3874515  70.5807471
  89.6503874 152.3542058  70.4192602  95.1807026 155.2642291  75.1337264
  95.2344048 155.8333227  75.9014980  94.3121807 155.4344176  74.7691301
  86.6694945 147.0267277  66.8584649  85.7392533 146.9651732  67.0754611
  86.7652417 146.5043229  66.0621290  86.5880494 143.5522090  69.4462890
  86.8487311 144.4667423  69.3372051  87.4097666 143.0846532  69.5959503
  88.0605419 144.9659847  76.6161715  88.7328473 144.7577209  75.9674364
  87.2335206 144.7681933  76.1766947  93.9630991 141.5921788  78.6327376
  93.3158906 142.2911737  78.5391852  94.7332006 142.0257932  79.0003624
  97.3709789 151.8570640  81.7077929  97.2195295 151.6281192  80.7908013
  97.3614469 152.8141241  81.7209274  94.1395125 149.4302553  76.6924196
  95.0687185 149.5813712  76.5193163  93.7186155 149.5186573  75.8372842
  92.9383457 153.4553217  74.4622733  92.7994543 153.0872001  75.3348671
  92.1498053 153.9700856  74.2906691  94.4888672 152.8334820  71.8511571
  94.1538505 152.7935590  72.7469221  93.9892618 152.1679536  71.3781981
  88.4632916 148.2402450  77.3764152  88.3252714 147.5082689  77.9775691
  89.3737840 148.1511350  77.0948340  97.4247864 150.1790854  62.1248631
  96.8077035 149.4537682  62.0281683  96.9564352 150.9400214  61.7815705
  91.0915217 147.9522409  76.8647832  91.8014836 147.3115601  76.8234450
  91.0484525 148.2035304  77.7874013  89.8044151 144.9387627  78.6843471
  89.2681508 144.4878365  79.3365068  89.2160859 145.0733536  77.9413936
  89.2146410 144.3976278  61.2469935  88.3375876 144.2765079  60.8832182
  89.6904163 143.6062357  60.9948824  99.0819403 152.8529346  78.0168391
  98.1946182 152.5155268  78.1394789  99.6517954 152.1212378  78.2537156
  80.7348550 149.1853438  71.3411442  81.4219590 148.8715168  70.7532457
  80.5796679 150.0894803  71.0678693  85.5383272 144.0743635  75.7696466
  85.4541461 143.4669304  75.0346876  84.7165979 144.5652653  75.7705962
  95.7106986 142.5597198  71.1366661  96.2075686 141.8067160  70.8167731
  94.9393968 142.5961515  70.5709870 103.5636743 148.2637564  72.7784952
 103.5526620 149.1462279  72.4078885 102.6954123 147.9109114  72.5839489
  96.7936767 151.3168885  68.7105084  95.8593046 151.4370348  68.5409788
  96.9713435 150.4141352  68.4465094  92.2941955 144.7014581  70.8638345
  91.9239742 144.1485622  71.5519251  92.7901047 144.0972715  70.3113345
 100.1809318 147.1586205  69.2455118 100.6469770 147.9914196  69.1715421
 100.6316819 146.6931186  69.9500377  98.2485549 153.5030026  66.2441270
  98.5245393 153.3886621  67.1535144  97.3790048 153.1047511  66.2053443
  98.1525981 139.5266792  73.2846020  97.2389061 139.7571018  73.4528227
  98.5819082 139.6105236  74.1360052  97.9232439 147.7156684  75.7845914
  97.2703890 147.9632591  75.1298366  98.3012819 146.9020822  75.4508391
  93.9720012 148.4576495  82.2711951  93.2960649 148.3570624  82.9414326
  94.7947646 148.3015708  82.7347948  80.3116526 147.2654031  73.6128909
  80.3500626 146.7317622  74.4066027  79.8056819 146.7389237  72.9939886
  87.6907288 142.1118572  77.1091451  87.7548615 142.9733403  76.6968849
  87.6274409 141.4992574  76.3763810  87.1659561 144.1841704  80.7564486
  87.7931600 143.8018782  81.3702010  86.3087480 143.9655906  81.1220178
  83.9425104 145.9918134  66.6882841  84.2378545 145.0828812  66.6349894
  83.0413140 145.9705873  66.3663843  87.4719351 144.0674130  72.6710389
  86.7505937 144.6810098  72.5317862  88.2612607 144.6031895  72.5927035
  90.2745664 141.4028557  78.9451041  90.7980066 141.6490853  79.7077350
  90.0557998 142.2348591  78.5254178  85.6712945 143.6732231  66.8122166
  85.3425652 142.7929610  66.6297272  86.0252316 143.6179900  67.6998555
  94.9192524 155.3087134  71.3217151  94.7717487 154.3803841  71.5024721
  95.7446018 155.3307225  70.8374226  88.7854769 143.9605201  67.1797643
  89.1250841 144.4891122  66.4576252  89.2326889 144.2985607  67.9556210
  91.4798209 142.3442252  76.6300711  91.1395030 141.5450065  77.0321391
  90.7737216 142.6443963  76.0577545  92.1314681 139.4291564  75.0828034
  92.9540750 138.9552042  74.9606925  92.3752745 140.2082048  75.5826721
  90.7722916 142.4579823  65.3790936  91.4931278 142.8361075  64.8754653
  90.1488220 143.1768699  65.4825914  94.9154039 143.1624972  66.3149268
  95.1317653 144.0449609  66.0138097  94.4348106 142.7711185  65.5854910
  89.6553260 146.1210685  72.8920013  89.5097841 146.4350988  73.7844295
  89.1778464 146.7395585  72.3390912  91.5149643 143.1113233  72.9400903
  91.5011212 142.2154326  72.6033201  92.2322071 143.1183897  73.5739189
  93.3675774 143.5450573  74.9854030  93.1093551 144.4667644  74.9838360
  92.8360814 143.1481008  75.6754494  84.1298922 148.6616029  75.8307674
  83.5852390 149.4375837  75.9627949  85.0078272 149.0086834  75.6726796
  90.9186539 141.9927613  68.2088473  91.0402450 141.0644259  68.4079360
  90.6288581 142.0066299  67.2966788  93.7877729 139.6782523  71.3455193
  93.8099426 139.7421857  70.3907172  94.2045788 138.8387032  71.5395699
 104.1661353 149.4137783  69.3834415 104.6092499 148.6645108  68.9853538
 103.2887864 149.4047919  69.0008147  84.9164944 147.7885925  78.7237831
  84.1746680 147.9368561  79.3102461  84.5957688 148.0494191  77.8604580
  90.4027618 143.5059610  82.4178405  90.4515774 144.3821733  82.0356175
  90.9450132 142.9637003  81.8450049 101.0080339 150.8993200  79.0112271
 101.0578344 150.7343207  79.9527794 100.8994262 150.0320459  78.6210152
  89.8916598 153.5781746  66.3004360  90.0404718 154.2617210  65.6471033
  90.6983041 153.5586836  66.8153816  98.2984101 146.8824128  80.3271578
  99.1993964 146.7430593  80.0355575  98.3732076 147.0478583  81.2669755
  92.6326907 144.2590983  79.1724764  91.7630216 144.5524549  78.9007353
  92.8686387 144.8431428  79.8932028 100.7585724 148.4422756  77.7234350
 101.2339846 148.6350403  76.9153202  99.8351289 148.4981942  77.4777734
  87.6469231 149.6046923  67.3065429  87.4015273 148.7009253  67.5045639
  87.8165145 149.6064074  66.3644907  95.3365941 140.4770600  76.6890184
  95.8547884 141.2131627  76.3636673  94.9821073 140.7834593  77.5236943
  86.9164878 145.3375281  64.8051590  86.2234123 145.4119636  64.1491626
  86.6716630 144.5735625  65.3273107  95.5878535 136.8970882  72.2091081
  95.8680289 136.2294071  72.8351507  96.3729142 137.0899978  71.6965745
  99.4587393 145.3188516  75.9562656 100.4104816 145.4186614  75.9774880
  99.2890843 144.5266785  76.4660740  97.4801773 142.4044100  76.1422057
  96.8851705 142.6849112  75.4468546  97.1951469 142.8938000  76.9138798
 101.9375471 148.5394636  75.0704956 101.9051791 147.6010637  75.2564640
 102.5476095 148.6178673  74.3370781  93.7758802 147.4090689  61.1132160
  94.7217906 147.2796897  61.1820578  93.3973047 146.6705351  61.5901588
 102.0869959 145.3305679  75.1163239 101.5709008 144.5464136  74.9293168
 102.9709908 145.0024396  75.2809758  99.7480686 139.0746695  71.0759052
  99.5505507 138.7661783  71.9602384 100.3580392 139.8008334  71.2056981
 105.8367318 147.7418505  74.8085444 105.1100481 147.6074470  74.2001935
 105.4214605 148.0495334  75.6142162  93.6597494 151.4608435  82.5732817
  94.5800504 151.6387034  82.7672863  93.6247077 150.5164480  82.4212516
  91.9601719 145.3340665  61.0487045  91.0533174 145.0373778  61.1249759
  92.2377700 145.0370483  60.1821331  82.8779659 146.6547029  71.4986091
  82.5582444 145.8012337  71.2060465  82.3313087 146.8695607  72.2544059
  86.6559567 149.3709470  75.2155598  86.8745577 150.3026578  75.2343632
  87.0685341 149.0117444  76.0010402  93.5763785 139.8777555  67.2031286
  92.7664513 139.5324640  67.5786532  94.2648202 139.5685099  67.7918898
  95.5054333 138.9555602  68.8255583  96.0585372 139.3751055  69.4845606
  95.7424419 138.0291350  68.8678539  91.5287432 144.9442675  84.6058347
  91.4284159 145.8937032  84.5370438  91.3108974 144.6160914  83.7334417
  90.7300504 142.1927601  61.1899024  91.5919668 142.5182499  61.4494842
  90.9150848 141.4059096  60.6772090  82.7467919 150.2749940  73.4679213
  82.0531391 149.8603893  72.9549167  83.4940910 150.3170477  72.8712632
  98.8833140 141.0656127  68.3334247  98.3031809 141.7240931  67.9512300
  98.6169073 140.2433472  67.9221665  97.3336706 140.4661185  70.5355568
  97.8336485 140.5777719  69.7269886  97.9772314 140.1622238  71.1756376
  91.3918702 148.3739814  83.4223408  90.9085784 149.1740174  83.6287298
  91.4779641 148.3847759  82.4690852  84.6604662 150.2068194  71.3445228
  84.6375350 150.3055881  70.3927111  84.9705298 151.0533345  71.6662394
  87.3192040 152.2644349  75.4591842  88.2735293 152.2328291  75.3921774
  87.1204563 151.8034973  76.2742068  87.9091422 150.8345465  78.0262640
  88.7284311 151.3289544  78.0497477  88.1828230 149.9177433  77.9980207
  97.6658018 143.2256217  67.3890595  96.7783873 143.5105868  67.1710790
  98.0812007 143.0649981  66.5417872 101.0172554 143.2502738  71.1044935
 101.7932944 143.7399191  71.3769552 100.2920688 143.6760793  71.5616804
 103.4545113 143.9630358  72.1618875 104.0489604 143.7226094  71.4512184
 103.5271696 143.2437488  72.7892412  96.8101231 152.9900892  61.4838615
  97.5137082 153.1950895  62.0996271  96.0863880 153.5577654  61.7487699
  97.6399042 148.7410753  67.6040886  97.5834243 149.1979305  66.7648518
  98.1927384 147.9801438  67.4263728 101.4503848 144.5300485  68.4291005
 101.1940782 144.1297121  69.2599213 100.8256716 145.2444279  68.3041144
 105.7616186 147.2696558  70.9362297 105.2015743 147.3389748  71.7093859
 105.1559689 147.0937543  70.2161793  98.7187929 153.4283421  63.5337075
  99.5533533 152.9964620  63.3514550  98.5572272 153.2565435  64.4613970
  98.3733821 149.9315535  64.8993415  98.3182625 149.7659806  63.9581859
  97.7479876 150.6391567  65.0555605  83.1626336 145.1683599  78.7254837
  83.8085200 144.6582553  79.2142062  82.9543487 145.9052281  79.2998262
  95.6879728 152.2364446  84.2246978  96.5570888 152.4105099  83.8633612
  95.2086480 153.0558863  84.1022707  91.6829947 139.4323644  64.4778733
  91.6708616 140.3765484  64.6347004  92.5753368 139.2493789  64.1838194
  95.4982066 136.0266420  68.7324670  94.7314462 135.4724907  68.8781352
  95.9092771 136.0988289  69.5938822  87.5023827 142.3151216  82.8229851
  88.3655289 141.9588021  83.0333176  86.9289238 141.9765111  83.5105255
  20.6322169  18.3179854  60.3537559  21.2700579  18.1986601  59.6500899
  20.5143012  19.2660698  60.4125511  17.4411876  18.2707282  60.2899084
  17.1030387  18.1548346  59.4019618  18.3101644  17.8698447  60.2700090
  13.2998691  20.1242758  56.2795975  12.7363556  20.0332695  55.5112262
  13.1851086  19.3042663  56.7598467  17.9231659  19.4242133  66.2485289
  17.9120299  19.0294932  65.3765793  18.0852298  18.6908206  66.8419061
  10.8463123  21.6193950  59.1180195  11.6384415  21.2784774  58.7026494
  11.0859773  21.7288925  60.0382348  18.8798250  23.7913726  51.5910439
  18.2286230  24.3767806  51.2044453  19.6742613  24.3219921  51.6505477
  12.8053877  20.8802863  51.9897574  13.5784753  20.3331850  51.8510450
  13.1579276  21.7447112  52.2012035  14.6438920  22.2079245  65.1964473
  14.3528786  23.1124876  65.0811139  15.2795904  22.2495773  65.9108543
  15.5695127  19.5856094  61.7865833  16.1658699  19.3612116  61.0722796
  15.6270098  18.8440839  62.3891281  15.1420155  17.0395529  49.6216024
  15.3945676  16.5177050  48.8599487  14.2044714  16.8761675  49.7242707
  20.1863438  16.0431307  57.4290767  20.9726527  15.6250731  57.0781184
  20.4502142  16.9477400  57.5972415  20.3573515  21.4804158  52.1279424
  19.7219348  21.5538784  52.8400328  20.0270922  22.0697757  51.4498503
  25.5871865  15.9806541  58.3323745  26.3197037  15.4105757  58.5661575
  24.8311221  15.5928141  58.7730251  14.8616444  18.9423635  51.8240399
  14.7452702  18.2668538  52.4921483  14.9718704  18.4556009  51.0072552
  17.2047985  18.4033782  55.5287088  16.8406192  17.8764403  56.2400009
  18.0615101  18.0132251  55.3553573  23.1097285   9.6928115  62.7918354
  22.7780610  10.5623526  62.5679569  22.5142899   9.3764399  63.4712384
  16.8453472  13.4323682  50.5248436  17.0127874  14.3003918  50.8918907
  16.6550641  13.5950964  49.6009726  19.6028805  21.8940661  62.1914267
  19.3029528  22.7965700  62.0830074  19.2579864  21.6272844  63.0435420
  13.0541286  18.3454458  58.2250971  12.1291783  18.2130672  58.4328663
  13.3025699  19.1248677  58.7220914  23.0025949  14.4123201  59.8711704
  22.0942826  14.3438609  59.5770465  22.9513544  14.8895146  60.6993530
  16.8242692  15.8881339  51.5095103  16.7042318  16.3338390  52.3480584
  16.1295281  16.2366657  50.9508641  10.4150097  17.9887731  59.0594760
  10.5442478  18.2422210  59.9734172   9.7347549  18.5815439  58.7399415
  14.5849585  28.6584981  55.1585234  14.5073614  29.6092806  55.2373715
  13.9811228  28.3130854  55.8160161  17.0766814  15.8312846  67.8146601
  16.3000148  16.3906767  67.8049466  17.7157377  16.3169629  68.3361471
  24.8687595  12.6139639  61.6489578  24.2261975  12.9072172  61.0029373
  24.3642524  12.4992560  62.4542775  22.5227759  16.3602812  52.3375437
  23.4345615  16.5930199  52.1623135  22.0137406  16.9439857  51.7750516
  15.3313187  18.6398300  67.3764568  16.0727871  19.1783344  67.0999392
  14.6250172  19.2664589  67.5336120  20.8068526  20.7827440  65.9736730
  21.2151882  20.3409851  65.2291362  20.0845788  20.2080068  66.2270923
  17.1599596  15.7200047  63.3470287  18.0060792  16.1439461  63.4904936
  17.0998234  15.0633671  64.0408850  21.1297341  21.3428631  59.7289019
  20.5006203  21.5074345  59.0265087  20.7423003  21.7570240  60.4999983
  25.0086573  22.2783069  57.0833382  24.3237611  22.6581970  56.5330416
  25.0930422  22.8878395  57.8165330  20.3099042  13.3804415  65.0051460
  20.0659974  14.1346476  64.4685736  20.5858972  13.7589763  65.8398707
  22.2637504  19.9243028  63.6828726  22.4754400  20.5674788  63.0063107
  22.2167253  19.0905344  63.2150656  19.8663733  12.5360848  60.5865298
  19.0048212  12.8342102  60.8782036  19.8926168  12.7531247  59.6546331
  16.6825303  21.0803039  56.9939104  17.1463648  21.3590742  56.2043726
  16.4182101  20.1786484  56.8112195  13.5749384  20.6274521  59.9318867
  14.1450741  21.0561789  59.2936352  14.1657496  20.3457105  60.6303053
  15.6194189  17.2026191  53.8028669  16.3218232  17.6547235  54.2702595
  15.2874817  16.5610010  54.4308562  14.0674550  15.7937948  68.1779878
  13.4373211  16.4754229  68.4115275  13.9610638  15.6821030  67.2333017
   9.3619523  15.4609744  59.1045803   8.5718577  15.7167273  58.6285913
   9.8530770  16.2758082  59.2097843  23.3783332  22.8014983  61.8551083
  24.2000776  22.3995171  61.5733765  23.3745735  22.6983217  62.8067199
  11.3134268  15.8254323  56.0629279  10.5165432  15.9373018  56.5812775
  11.0859860  16.1640976  55.1970170  17.1439936  22.3499027  64.0111794
  17.2084368  22.8119434  64.8469966  16.4350860  21.7196391  64.1394104
  31.4689325  19.1453732  58.2036055  30.7153034  18.5761130  58.0480059
  31.6036867  19.1116396  59.1506690  16.8587954  24.0167134  53.8790774
  16.7233628  24.8618670  54.3075622  17.3997766  24.2186412  53.1156708
  10.3117351  21.5342572  54.4518699  10.8241871  22.3285822  54.6024264
  10.9640064  20.8368863  54.3852301  12.1212236  24.6508328  56.5341452
  12.2978864  25.5726293  56.3462436  12.9169069  24.3366748  56.9635832
  16.2623254  11.5116593  68.1325386  17.0032968  12.1123746  68.0529848
  16.4941177  10.7694231  67.5743429  11.4064592  16.6972960  66.4103616
  11.2918107  15.7958217  66.7110715  10.5509110  16.9436657  66.0588432
  18.4856430  24.6390701  68.0091116  18.0420284  23.8527079  67.6912021
  19.1473643  24.8269851  67.3435007  13.2443551  26.1686502  62.5351795
  13.7950976  26.0403565  61.7628789  12.4055027  26.4681391  62.1846688
  20.5837668  24.9193500  66.0372518  20.5656143  25.7402382  65.5452787
  21.5057588  24.7947576  66.2622659  17.0410722  22.4337630  66.8796026
  17.5739059  21.6725918  66.6495334  16.5124803  22.1411282  67.6220180
  20.2080417   7.5397696  62.4089668  19.8644686   8.4299338  62.3328778
  20.5759380   7.3499354  61.5459253   8.2766268  19.8631226  55.2278270
   9.1141490  20.2728235  55.0111978   8.4544535  18.9230669  55.1978464
  20.1730700  17.5306307  50.9162103  19.6577323  18.3010912  51.1550490
  19.9008008  16.8571443  51.5395164  17.7577811  12.3756008  55.9747341
  16.9019407  11.9862858  55.7952980  18.1704763  12.4547969  55.1147127
  19.2876957   9.9102351  60.3738901  18.7841753   9.8732486  59.5606706
  19.5807564  10.8195094  60.4335558  25.1464974  20.2838662  52.8515276
  24.3694417  19.9449821  52.4070438  25.8256455  20.2891285  52.1770241
  19.9617003  15.4033399  52.7421884  19.6567139  15.7179548  53.5932027
  20.9147445  15.4814819  52.7849217  18.4063435  21.5623622  54.3914838
  17.8784796  20.8276382  54.0788075  17.9050938  22.3398299  54.1454806
  23.3856281  19.7572643  59.5081884  22.7279955  20.4471904  59.5962013
  24.1896680  20.1469075  59.8515871  22.1961740  18.1117016  57.5585826
  22.7093621  18.7447007  58.0607536  22.8462964  17.5118211  57.1929186
  13.4651750  14.2547750  50.7717335  12.6289062  14.5922436  51.0926609
  13.3256519  14.1196730  49.8344472  16.5516035  19.3803833  47.3949811
  15.6443097  19.1493086  47.5940960  17.0487067  18.5841452  47.5823793
  19.4584114  28.0901340  50.3146497  18.7845813  28.3933037  50.9231455
  19.8449936  28.8930420  49.9651954  18.6742570  15.5866471  59.8044167
  17.7565132  15.8081418  59.6465855  19.0902714  15.6612782  58.9455874
  19.4577618  16.9857887  54.9346847  20.2049437  17.4979284  54.6253969
  19.7269208  16.6641940  55.7951240  17.7304268  19.4816428  51.9173801
  16.8215488  19.1975460  52.0146271  17.7599352  19.9015506  51.0577108
  22.9623536  23.0923017  55.6864969  22.5085863  22.2513927  55.7430159
  22.3317503  23.7284415  56.0239749  21.9056455  14.0215003  56.9165636
  21.1679212  13.5092389  57.2475879  22.1583229  13.5815385  56.1048913
  21.4056475  24.9299514  56.6214787  21.6979449  25.4904571  55.9027152
  21.9155096  25.2228075  57.3767946  22.0068083   6.7991255  57.5107405
  22.3126960   5.9388619  57.2233320  22.7320688   7.3908875  57.3106399
   8.2992439  17.2021942  55.8989003   8.1016839  16.6091302  55.1740070
   7.7439103  16.8974152  56.6164942  16.2789162  17.0945048  58.0183596
  16.3337772  16.1418885  57.9426073  15.4680365  17.2504487  58.5024895
  17.4280356  21.0225171  49.2561880  16.9899786  20.3061030  48.7967517
  18.1690797  21.2501286  48.6946971  14.2181522  15.7122108  55.7773975
  13.4049388  16.0116278  56.1839167  14.7140517  15.3177797  56.4948458
  16.3690100  25.7079865  57.7108240  16.3266279  25.9340711  56.7816772
  17.2852799  25.4743239  57.8594041  19.8155734  16.1763932  64.6088869
  20.1705122  16.4035406  65.4683335  20.4627865  16.5082309  63.9866124
  25.5453471  19.2982368  55.3138198  25.4071370  19.4883964  54.3859387
  25.1889690  20.0601751  55.7706249  13.7095597  13.2840463  61.3935210
  14.3494976  13.1429223  60.6958174  12.8773128  12.9974977  61.0173812
  25.5722851  21.3658895  60.3249470  26.0059357  21.2734184  61.1732524
  26.2854431  21.3416396  59.6869486  14.4855901  22.5842894  57.5070203
  15.2796500  22.0893214  57.3052778  13.7747593  22.0560757  57.1437908
  19.3050746  24.9660989  61.8582570  19.3587768  25.5351926  62.6260286
  18.4365527  25.1362874  61.4936607  10.7938665  16.7285976  53.5829955
   9.8636253  16.6670431  53.7999917  10.8896137  16.2061928  52.7866597
  12.1849139  14.6678546  63.3407022  12.8572192  14.4595908  62.6919670
  11.3578925  14.4700632  62.9012254  26.4338400  21.4082596  62.8582355
  26.6274290  22.3128406  63.1041630  26.3339018  20.9490015  63.6920940
  18.0874711  11.2940487  65.3572682  17.4402626  11.9930436  65.2637159
  18.8575726  11.7276630  65.7248931  21.4953509  21.5589339  68.4323236
  21.3439015  21.3299890  67.5153319  21.4858188  22.5159940  68.4454581
  18.2638845  19.1321251  63.4169502  19.1930905  19.2832411  63.2438469
  17.8429875  19.2205272  62.5618149  17.0627177  23.1571916  61.1868040
  16.9238263  22.7890700  62.0593978  16.2741773  23.6719555  61.0151998
  17.6575329  28.2581012  52.5293576  17.8327085  27.7869055  53.3439199
  16.9708117  28.8846778  52.7574837  18.6132392  22.5353519  58.5756878
  18.2782225  22.4954288  59.4714527  18.1136338  21.8698234  58.1027288
  12.5876636  17.9421149  64.1009459  12.4496434  17.2101387  64.7020998
  13.4981560  17.8530049  63.8193646  21.5491584  19.8809553  48.8493937
  20.9320754  19.1556381  48.7526990  21.0808072  20.6418913  48.5061011
  15.2158937  17.6541108  63.5893138  15.9258555  17.0134300  63.5479757
  15.1728245  17.9054003  64.5119319  23.2045716  24.5908461  66.5099718
  23.1458262  23.9067681  65.8430301  23.6065234  25.3327451  66.0580344
  13.9287871  14.6406326  65.4088778  13.3925228  14.1897064  66.0610374
  13.3404579  14.7752235  64.6659242  12.2236414  31.4070375  59.3033436
  12.4633013  32.0388899  59.9812455  11.3805611  31.0558415  59.5898796
  13.3390130  14.0994977  47.9715241  12.4619596  13.9783778  47.6077488
  13.8147883  13.3081055  47.7194130  23.2063123  22.5548045  64.7413697
  22.3189902  22.2173967  64.8640096  23.7761674  21.8231076  64.9782463
   4.8592270  18.8872137  58.0656749   5.5463310  18.5733867  57.4777764
   4.7040399  19.7913502  57.7924000  16.7364276  27.2149498  61.7074940
  16.6634448  28.0204469  62.2194245  16.2941669  27.4141463  60.8822962
  16.5254056  26.4521268  55.2177762  15.7421578  26.9942948  55.3115987
  17.2246801  26.9695247  55.6172003  19.8350706  12.2615897  57.8611967
  20.3319405  11.5085859  57.5413038  19.0637687  12.2980214  57.2955177
  27.6880463  17.9656263  59.5030259  27.6770340  18.8480978  59.1324192
  26.8197843  17.6127813  59.3084796  19.1962960  27.1136332  63.8633099
  19.9090932  27.7483796  63.7909001  18.7052988  27.2100198  63.0473101
  20.9180487  21.0187584  55.4350391  19.9836765  21.1389047  55.2655095
  21.0957155  20.1160051  55.1710401  16.4185675  14.4033280  57.5883652
  16.0483462  13.8504320  58.2764558  16.9144767  13.7991413  57.0358652
  24.3053038  16.8604903  55.9700425  24.7713490  17.6932895  55.8960728
  24.7560538  16.3949885  56.6745683  14.2474873  24.8630775  64.6838670
  14.9484333  25.4967258  64.8368064  13.7769988  25.2045507  63.9234309
  22.3729269  23.2048725  52.9686577  22.6489113  23.0905319  53.8780451
  21.5033768  22.8066210  52.9298750  22.2769701   9.2285490  60.0091326
  21.3632780   9.4589717  60.1773533  22.7062802   9.3123935  60.8605359
  22.0476159  17.4175382  62.5091220  21.3947609  17.6651290  61.8543673
  22.4256539  16.6039521  62.1753698  19.0083333  27.4535076  56.6119391
  19.1905728  26.6356732  57.0747143  19.8316319  27.6702768  56.1744281
  19.3425499  26.3803261  53.8734439  19.8713265  25.8695715  53.2604601
  19.6053718  26.0645791  54.7379972  18.0963732  18.1595194  68.9957257
  17.4204369  18.0589323  69.6659633  18.9191366  18.0034407  69.4593255
   9.8442591  24.3967130  61.6169773  10.4296028  23.6510818  61.7497677
   9.6467430  24.7071087  62.5006437  12.6981247  27.4318377  56.6332215
  12.0291622  27.9164505  56.1496255  12.5594116  27.6787598  57.5475594
  16.8386515  29.4662121  63.2314873  17.3904823  29.6293742  63.9963959
  17.1792709  30.0566559  62.5594898  21.6897389  24.2923378  69.0863528
  22.2337293  24.9053337  68.5918483  21.1084234  24.8502957  69.6030541
  19.9754902  27.4144096  60.2178556  19.8506042  26.6133836  59.7089501
  20.6333993  27.9090290  59.7292525  11.5963071  13.7692829  59.3955696
  10.8749656  14.3828797  59.2563169  12.3856326  14.3050594  59.3172342
  22.0389811  25.2153117  61.8458106  21.0920146  25.0958468  61.7736432
  22.3872584  24.3275615  61.9284367  19.0436244  25.0105833  58.0462458
  18.8961206  24.0822540  58.2270028  19.8689738  25.0325923  57.5619533
  12.9098488  13.6623900  53.9042950  13.2494561  14.1909821  53.1821558
  13.3570609  14.0004306  54.6801517  22.6470366  25.8334392  59.1327331
  23.5716913  25.6277253  58.9951782  22.4785669  25.5850793  60.0416672
  15.6041929  12.0460951  63.3546018  15.2638750  11.2468764  63.7566698
  14.8980935  12.3462661  62.7822851  14.8966635  12.1598521  52.1036243
  15.6174998  12.5379774  51.5999960  14.2731940  12.8787398  52.2071221
  19.0397758  12.8643670  53.0394575  19.2561373  13.7468308  52.7383403
  18.5591826  12.4729884  52.3100217  13.7796980  15.8229384  59.6165320
  13.6341560  16.1369687  60.5089601  13.3022183  16.4414284  59.0636218
  15.6393363  12.8131932  59.6646209  15.6254931  11.9173025  59.3278507
  16.3565791  12.8202595  60.2984495  17.4919493  13.2469272  61.7099337
  17.2337271  14.1686342  61.7083667  16.9604534  12.8499706  62.3999801
  22.4365682  26.3520059  54.4889422  22.6102560  25.7866481  53.7363275
  22.9294573  27.1520954  54.3068912   8.2542642  18.3634728  62.5552981
   7.7096110  19.1394536  62.6873255   9.1321992  18.7105533  62.3972102
  28.2905073  19.1156482  56.1079722  28.7336219  18.3663807  55.7098845
  27.4131584  19.1066618  55.7253454  23.4240855  25.6686823  51.5886320
  24.1191759  26.2893516  51.8073635  23.7664005  24.8182175  51.8638698
   9.0408664  17.4904624  65.4483138   8.2990400  17.6387260  66.0347768
   8.7201408  17.7512890  64.5849887  25.3232278  23.1186529  53.1173651
  25.8483602  23.4573802  52.3922971  25.2354630  22.1833544  52.9336786
  16.9852326  27.0320603  65.2463528  17.2939453  26.7869749  66.1186227
  17.7827808  27.2367241  64.7582398  17.0072938  29.1858512  57.4768904
  16.5677929  28.6934891  58.1701761  17.7581055  28.6431480  57.2360980
   9.4865277  25.3770053  57.4793532  10.3123297  25.0773825  57.0992176
   9.1359329  24.6077675  57.9283321  14.4546811  24.7296521  59.5491206
  13.8326820  24.0667226  59.2493434  15.1251678  24.7557653  58.8664854
   7.6873882  23.2956379  58.4382466   6.8505791  22.8678554  58.2566467
   7.6597528  23.4888823  59.3753257  14.5271338  13.2078309  69.1423712
  14.5759494  14.0840432  68.7601482  15.0693852  12.6655702  68.5695355
  25.0126184  23.7519433  68.4224849  24.2221727  23.7343571  67.8829348
  24.7759538  24.2907726  69.1773886  25.1324059  20.6011899  65.7357578
  25.1822064  20.4361906  66.6773100  25.0237982  19.7339158  65.3455458
  14.0160318  23.2800445  53.0249667  14.1648438  23.9635909  52.3716339
  14.8226761  23.2605535  53.5399122  22.4227821  16.5842827  67.0516884
  23.3237684  16.4449292  66.7600882  22.4975796  16.7497282  67.9915062
  16.7570627  13.9609682  65.8970071  15.8873936  14.2543248  65.6252659
  16.9930107  14.5450127  66.6177334  26.6342256  23.0208840  65.9799599
  26.3427064  23.3838821  66.8163060  26.0214387  22.3075849  65.8012931
  27.8337938  20.5861720  58.5002169  28.6684829  21.0251524  58.6639730
  27.9697067  20.1100373  57.6810415  24.8829444  18.1441455  64.4479657
  25.3583566  18.3369101  63.6398509  23.9595009  18.2000641  64.2023041
  11.7712951  19.3065622  54.0310735  11.5258992  18.4027952  54.2290946
  11.9408865  19.3082773  53.0890213  19.4609660  10.1789299  63.4135491
  19.9791604  10.9150326  63.0881980  19.1064793  10.4853292  64.2482250
  11.0408598  15.0393980  51.5296897  10.3477843  15.1138335  50.8736933
  10.7960350  14.2754323  52.0518414  17.5155723  25.7748575  50.4961414
  16.9429690  26.3938762  50.0431886  18.0888517  26.3247937  51.0301336
  23.5831113  15.0207215  62.6807963  24.5348536  15.1205313  62.7020187
  23.4134563  14.2285484  63.1906047  21.6045492  12.1062798  62.8667364
  21.0095424  12.3867811  62.1713852  21.3195189  12.5956699  63.6384105
  20.7352983  26.0585725  51.6269996  21.6683656  25.9931287  51.8302872
  20.6476196  26.8941992  51.1684529  23.3641000  25.3751596  48.5873944
  23.2854631  25.0411459  49.4809702  24.1850666  25.8673363  48.5865416
  26.0619191  18.2413335  61.7950262  26.0295511  17.3029336  61.9809946
  26.6719814  18.3197372  61.0616087  17.9002522  17.1109388  47.8377466
  18.8461626  16.9815596  47.9065884  17.5216767  16.3724050  48.3146895
  26.2113679  15.0324378  61.8408546  25.6952728  14.2482835  61.6538474
  27.0953628  14.7043095  62.0055065  23.8724406   8.7765394  57.8004358
  23.6749227   8.4680482  58.6847690  24.4824112   9.5027033  57.9302288
  31.8795741  19.3029342  60.9356299  32.6099129  19.0414630  61.4964002
  31.2702686  18.5658064  60.9758367  29.9611038  17.4437204  61.5330750
  29.2344201  17.3093169  60.9247242  29.5458325  17.7514033  62.3387468
  17.7841214  21.1627134  69.2978123  18.7044224  21.3405733  69.4918170
  17.7490797  20.2183179  69.1457823  16.0845439  15.0359364  47.7732352
  15.1776894  14.7392477  47.8495065  16.3621420  14.7389182  46.9066638
  10.7803287  19.0728169  61.9400905  10.9989296  20.0045276  61.9588938
  11.1929060  18.7136143  62.7255708  19.6298053   8.6574301  55.5500890
  20.1829091   9.0769754  56.2090913  19.8668139   7.7310049  55.5923846
  15.6531152  14.6461374  71.3303653  15.5527879  15.5955731  71.2615745
  15.4352694  14.3179613  70.4579724  14.8544223  11.8946299  47.9144331
  15.7163387  12.2201198  48.1740148  15.0394567  11.1077795  47.4017397
   6.8711639  19.9768639  60.1924520   6.1775111  19.5622592  59.6794474
   7.6184630  20.0189176  59.5957939  23.0076860  10.7674826  55.0579554
  22.4275529  11.4259630  54.6757606  22.7412792   9.9452170  54.6466971
  21.4580426  10.1679884  57.2600874  21.9580205  10.2796418  56.4515193
  22.1016034   9.8640936  57.9001683  15.5162422  18.0758513  70.1468715
  15.0329504  18.8758873  70.3532604  15.6023361  18.0866458  69.1936159
   8.7848382  19.9086893  58.0690534   8.7619070  20.0074580  57.1172418
   9.0949018  20.7552044  58.3907701  11.4435759  21.9663048  62.1837149
  12.3979013  21.9346990  62.1167080  11.2448283  21.5053672  62.9987375
  12.0335142  20.5364164  64.7507947  12.8528031  21.0308243  64.7742784
  12.3071949  19.6196132  64.7225514  21.7901738  12.9274916  54.1135902
  20.9027593  13.2124567  53.8956097  22.2055727  12.7668680  53.2663179
  25.1416274  12.9521437  57.8290241  25.9176664  13.4417890  58.1014858
  24.4164408  13.3779491  58.2862111  27.5788833  13.6649056  58.8864182
  28.1733323  13.4244792  58.1757490  27.6515416  12.9456187  59.5137718
   9.7985988  27.5082667  59.2007347   9.6640456  26.7483068  58.6345345
   9.3818051  28.2323567  58.7336136  20.9344951  22.6919591  48.2083922
  21.6380801  22.8969593  48.8241578  20.2107600  23.2596353  48.4733006
  21.7642762  18.4429452  54.3286192  21.7077963  18.8998004  53.4893825
  22.3171104  17.6820137  54.1509035  25.5747567  14.2319184  55.1536312
  25.3184502  13.8315820  55.9844519  24.9500436  14.9462978  55.0286451
  29.8859905  16.9715257  57.6607603  29.3259463  17.0408447  58.4339165
  29.2803409  16.7956242  56.9407099  12.9555114  28.4051984  59.4125789
  12.8387498  29.3497417  59.3104480  12.1347560  28.1025546  59.8011589
  22.8431649  23.1302120  50.2582382  23.6777253  22.6983319  50.0759857
  22.6815992  22.9584134  51.1859277  22.4977541  19.6334233  51.6238721
  22.4426345  19.4678505  50.6827166  21.8723596  20.3410266  51.7800911
  19.8123448  21.9383145  70.9492284  20.6814608  22.1123798  70.5878919
  19.3330200  22.7577562  70.8268014  13.9809628  29.0580246  62.6281718
  14.8836875  29.0903857  62.9448213  13.7546998  28.1280697  62.6428054
  15.7363230  27.8111233  59.2891796  14.7858861  27.8113094  59.1756169
  16.0395716  27.0643967  58.7727831  31.4715924  33.6471771  60.3537559
  32.1094334  33.5278519  59.6500899  31.3536767  34.5952615  60.4125511
  28.2805630  33.5999199  60.2899084  27.9424142  33.4840264  59.4019618
  29.1495398  33.1990364  60.2700090  24.1392446  35.4534676  56.2795975
  23.5757311  35.3624613  55.5112262  24.0244841  34.6334580  56.7598467
  28.7625413  34.7534051  66.2485289  28.7514054  34.3586849  65.3765793
  28.9246053  34.0200124  66.8419061  21.6856878  36.9485867  59.1180195
  22.4778170  36.6076692  58.7026494  21.9253528  37.0580842  60.0382348
  29.7192004  39.1205643  51.5910439  29.0679984  39.7059724  51.2044453
  30.5136367  39.6511838  51.6505477  23.6447632  36.2094781  51.9897574
  24.4178508  35.6623768  51.8510450  23.9973031  37.0739030  52.2012035
  25.4832674  37.5371163  65.1964473  25.1922540  38.4416794  65.0811139
  26.1189659  37.5787690  65.9108543  26.4088881  34.9148011  61.7865833
  27.0052453  34.6904034  61.0722796  26.4663853  34.1732757  62.3891281
  25.9813909  32.3687447  49.6216024  26.2339430  31.8468968  48.8599487
  25.0438469  32.2053592  49.7242707  31.0257192  31.3723225  57.4290767
  31.8120282  30.9542648  57.0781184  31.2895897  32.2769317  57.5972415
  31.1967270  36.8096075  52.1279424  30.5613103  36.8830702  52.8400328
  30.8664676  37.3989674  51.4498503  36.4265619  31.3098458  58.3323745
  37.1590791  30.7397675  58.5661575  35.6704975  30.9220059  58.7730251
  25.7010198  34.2715553  51.8240399  25.5846456  33.5960456  52.4921483
  25.8112458  33.7847927  51.0072552  28.0441739  33.7325700  55.5287088
  27.6799946  33.2056321  56.2400009  28.9008855  33.3424169  55.3553573
  33.9491040  25.0220032  62.7918354  33.6174365  25.8915443  62.5679569
  33.3536653  24.7056316  63.4712384  27.6847226  28.7615599  50.5248436
  27.8521628  29.6295836  50.8918907  27.4944395  28.9242881  49.6009726
  30.4422559  37.2232578  62.1914267  30.1423282  38.1257617  62.0830074
  30.0973619  36.9564762  63.0435420  23.8935041  33.6746375  58.2250971
  22.9685537  33.5422589  58.4328663  24.1419454  34.4540594  58.7220914
  33.8419703  29.7415119  59.8711704  32.9336580  29.6730527  59.5770465
  33.7907299  30.2187064  60.6993530  27.6636447  31.2173257  51.5095103
  27.5436072  31.6630308  52.3480584  26.9689035  31.5658575  50.9508641
  21.2543852  33.3179649  59.0594760  21.3836233  33.5714128  59.9734172
  20.5741303  33.9107357  58.7399415  25.4243339  43.9876899  55.1585234
  25.3467369  44.9384724  55.2373715  24.8204983  43.6422771  55.8160161
  27.9160569  31.1604764  67.8146601  27.1393903  31.7198684  67.8049466
  28.5551132  31.6461547  68.3361471  35.7081349  27.9431557  61.6489578
  35.0655730  28.2364090  61.0029373  35.2036278  27.8284477  62.4542775
  33.3621513  31.6894730  52.3375437  34.2739369  31.9222117  52.1623135
  32.8531160  32.2731774  51.7750516  26.1706941  33.9690218  67.3764568
  26.9121626  34.5075261  67.0999392  25.4643927  34.5956506  67.5336120
  31.6462281  36.1119358  65.9736730  32.0545637  35.6701769  65.2291362
  30.9239542  35.5371986  66.2270923  27.9993351  31.0491965  63.3470287
  28.8454546  31.4731378  63.4904936  27.9391989  30.3925589  64.0408850
  31.9691095  36.6720549  59.7289019  31.3399958  36.8366263  59.0265087
  31.5816758  37.0862158  60.4999983  35.8480327  37.6074986  57.0833382
  35.1631365  37.9873888  56.5330416  35.9324177  38.2170313  57.8165330
  31.1492796  28.7096333  65.0051460  30.9053728  29.4638394  64.4685736
  31.4252727  29.0881681  65.8398707  33.1031259  35.2534945  63.6828726
  33.3148154  35.8966705  63.0063107  33.0561007  34.4197262  63.2150656
  30.7057488  27.8652766  60.5865298  29.8441967  28.1634020  60.8782036
  30.7319923  28.0823165  59.6546331  27.5219057  36.4094957  56.9939104
  27.9857403  36.6882660  56.2043726  27.2575855  35.5078401  56.8112195
  24.4143138  35.9566438  59.9318867  24.9844495  36.3853707  59.2936352
  25.0051250  35.6749023  60.6303053  26.4587943  32.5318109  53.8028669
  27.1611987  32.9839153  54.2702595  26.1268572  31.8901928  54.4308562
  24.9068305  31.1229866  68.1779878  24.2766965  31.8046147  68.4115275
  24.8004393  31.0112947  67.2333017  20.2013277  30.7901662  59.1045803
  19.4112331  31.0459190  58.6285913  20.6924525  31.6050000  59.2097843
  34.2177087  38.1306901  61.8551083  35.0394531  37.7287088  61.5733765
  34.2139490  38.0275135  62.8067199  22.1528023  31.1546241  56.0629279
  21.3559186  31.2664935  56.5812775  21.9253615  31.4932893  55.1970170
  27.9833690  37.6790944  64.0111794  28.0478123  38.1411351  64.8469966
  27.2744614  37.0488309  64.1394104  18.4850980  31.0432152  61.5360793
  18.7359019  31.9279162  61.8018369  19.0210529  30.8636754  60.7635885
  42.3083080  34.4745649  58.2036055  41.5546788  33.9053047  58.0480059
  42.4430621  34.4408314  59.1506690  27.6981708  39.3459052  53.8790774
  27.5627383  40.1910587  54.3075622  28.2391521  39.5478329  53.1156708
  24.1849048  25.4250632  70.5405129  23.7915993  24.8716830  71.2152774
  25.0015188  25.7361210  70.9311647  21.1511105  36.8634490  54.4518699
  21.6635626  37.6577740  54.6024264  21.8033818  36.1660780  54.3852301
  22.9605990  39.9800246  56.5341452  23.1372618  40.9018211  56.3462436
  23.7562824  39.6658665  56.9635832  27.1017009  26.8408511  68.1325386
  27.8426722  27.4415664  68.0529848  27.3334931  26.0986148  67.5743429
  22.2458347  32.0264878  66.4103616  22.1311862  31.1250135  66.7110715
  21.3902864  32.2728575  66.0588432  29.3250184  39.9682618  68.0091116
  28.8814039  39.1818997  67.6912021  29.9867398  40.1561769  67.3435007
  24.0837306  41.4978420  62.5351795  24.6344731  41.3695483  61.7628789
  23.2448781  41.7973309  62.1846688  31.4231422  40.2485418  66.0372518
  31.4049898  41.0694299  65.5452787  32.3451342  40.1239493  66.2622659
  27.8804477  37.7629548  66.8796026  28.4132813  37.0017836  66.6495334
  27.3518558  37.4703199  67.6220180  31.0474172  22.8689614  62.4089668
  30.7038441  23.7591255  62.3328778  31.4153134  22.6791271  61.5459253
  19.1160022  35.1923144  55.2278270  19.9535244  35.6020152  55.0111978
  19.2938290  34.2522586  55.1978464  31.0124454  32.8598225  50.9162103
  30.4971078  33.6302829  51.1550490  30.7401763  32.1863361  51.5395164
  28.5971565  27.7047925  55.9747341  27.7413162  27.3154776  55.7952980
  29.0098517  27.7839886  55.1147127  30.1270712  25.2394269  60.3738901
  29.6235508  25.2024404  59.5606706  30.4201319  26.1487011  60.4335558
  26.3713598  25.3232998  59.3805083  27.2366595  25.1275807  59.0210972
  26.4391107  25.0943350  60.3074439  35.9858728  35.6130579  52.8515276
  35.2088171  35.2741739  52.4070438  36.6650209  35.6183202  52.1770241
  30.8010757  30.7325317  52.7421884  30.4960893  31.0471466  53.5932027
  31.7541200  30.8106737  52.7849217  29.2457189  36.8915540  54.3914838
  28.7178551  36.1568300  54.0788075  28.7444692  37.6690216  54.1454806
  34.2250035  35.0864561  59.5081884  33.5673710  35.7763822  59.5962013
  35.0290435  35.4760993  59.8515871  23.9775917  27.5535206  56.7521449
  24.5519669  27.3310388  56.0194642  24.5646899  27.6223901  57.5050051
  33.0355494  33.4408933  57.5585826  33.5487376  34.0738925  58.0607536
  33.6856718  32.8410129  57.1929186  24.3045504  29.5839667  50.7717335
  23.4682816  29.9214354  51.0926609  24.1650274  29.4488647  49.8344472
  26.2798585  24.4276455  55.4796519  25.6262997  24.1125472  54.8553134
  26.2379059  23.8052196  56.2056342  27.3909789  34.7095750  47.3949811
  26.4836851  34.4785004  47.5940960  27.8880821  33.9133370  47.5823793
  30.2977868  43.4193258  50.3146497  29.6239567  43.7224954  50.9231455
  30.6843690  44.2222338  49.9651954  29.5136325  30.9158389  59.8044167
  28.5958886  31.1373336  59.6465855  29.9296469  30.9904699  58.9455874
  30.2971373  32.3149805  54.9346847  31.0443192  32.8271202  54.6253969
  30.5662962  31.9933857  55.7951240  28.5698023  34.8108345  51.9173801
  27.6609242  34.5267378  52.0146271  28.5993107  35.2307424  51.0577108
  33.8017290  38.4214935  55.6864969  33.3479617  37.5805845  55.7430159
  33.1711257  39.0576333  56.0239749  32.7450210  29.3506921  56.9165636
  32.0072967  28.8384307  57.2475879  32.9976983  28.9107302  56.1048913
  32.2450230  40.2591431  56.6214787  32.5373204  40.8196489  55.9027152
  32.7548850  40.5519992  57.3767946  32.8461837  22.1283173  57.5107405
  33.1520714  21.2680536  57.2233320  33.5714442  22.7200793  57.3106399
  19.1386193  32.5313859  55.8989003  18.9410593  31.9383220  55.1740070
  18.5832857  32.2266070  56.6164942  27.1182917  32.4236966  58.0183596
  27.1731527  31.4710802  57.9426073  26.3074119  32.5796405  58.5024895
  28.2674111  36.3517089  49.2561880  27.8293541  35.6352948  48.7967517
  29.0084552  36.5793204  48.6946971  25.0575277  31.0414026  55.7773975
  24.2443142  31.3408196  56.1839167  25.5534271  30.6469714  56.4948458
  27.2083855  41.0371783  57.7108240  27.1660034  41.2632629  56.7816772
  28.1246554  40.8035157  57.8594041  30.6549489  31.5055850  64.6088869
  31.0098876  31.7327323  65.4683335  31.3021620  31.8374227  63.9866124
  36.3847226  34.6274286  55.3138198  36.2465124  34.8175882  54.3859387
  36.0283444  35.3893669  55.7706249  24.5489352  28.6132381  61.3935210
  25.1888731  28.4721140  60.6958174  23.7166882  28.3266894  61.0173812
  36.4116605  36.6950813  60.3249470  36.8453112  36.6026102  61.1732524
  37.1248186  36.6708313  59.6869486  25.3249656  37.9134812  57.5070203
  26.1190254  37.4185132  57.3052778  24.6141348  37.3852675  57.1437908
  30.1444500  40.2952907  61.8582570  30.1981522  40.8643843  62.6260286
  29.2759281  40.4654792  61.4936607  21.6332419  32.0577893  53.5829955
  20.7030007  31.9962349  53.7999917  21.7289891  31.5353846  52.7866597
  21.5517968  28.5832706  56.1708197  21.8124785  29.4978039  56.0617357
  22.3735140  28.1157149  56.3204810  23.0242893  29.9970463  63.3407022
  23.6965947  29.7887825  62.6919670  22.1972680  29.7992549  62.9012254
  37.2732155  36.7374514  62.8582355  37.4668045  37.6420324  63.1041630
  37.1732773  36.2781933  63.6920940  28.9268465  26.6232404  65.3572682
  28.2796380  27.3222354  65.2637159  29.6969481  27.0568548  65.7248931
  32.3347263  36.8881256  68.4323236  32.1832770  36.6591808  67.5153319
  32.3251943  37.8451858  68.4454581  29.1032600  34.4613169  63.4169502
  30.0324660  34.6124329  63.2438469  28.6823630  34.5497190  62.5618149
  27.9020932  38.4863834  61.1868040  27.7632017  38.1182618  62.0593978
  27.1135528  39.0011473  61.0151998  28.4969084  43.5872930  52.5293576
  28.6720839  43.1160973  53.3439199  27.8101872  44.2138696  52.7574837
  29.4526147  37.8645436  58.5756878  29.1175979  37.8246206  59.4714527
  28.9530092  37.1990152  58.1027288  23.4270391  33.2713066  64.1009459
  23.2890189  32.5393305  64.7020998  24.3375314  33.1821966  63.8193646
  32.3885338  35.2101471  48.8493937  31.7714509  34.4848299  48.7526990
  31.9201827  35.9710831  48.5061011  26.0552691  32.9833026  63.5893138
  26.7652310  32.3426218  63.5479757  26.0121999  33.2345920  64.5119319
  34.0439470  39.9200379  66.5099718  33.9852016  39.2359599  65.8430301
  34.4458988  40.6619369  66.0580344  24.7681625  29.9698243  65.4088778
  24.2318982  29.5188982  66.0610374  24.1798334  30.1044152  64.6659242
  23.0630169  46.7362293  59.3033436  23.3026767  47.3680817  59.9812455
  22.2199365  46.3850333  59.5898796  24.1783884  29.4286895  47.9715241
  23.3013351  29.3075696  47.6077488  24.6541637  28.6372973  47.7194130
  34.0456877  37.8839963  64.7413697  33.1583656  37.5465885  64.8640096
  34.6155428  37.1522994  64.9782463  15.6986024  34.2164055  58.0656749
  16.3857064  33.9025785  57.4777764  15.5434153  35.1205419  57.7924000
  20.5020747  29.1054251  62.4941772  20.4178935  28.4979921  61.7592182
  19.6803453  29.5963269  62.4951269  27.5758031  42.5441415  61.7074940
  27.5028202  43.3496387  62.2194245  27.1335424  42.7433381  60.8822962
  27.3647810  41.7813185  55.2177762  26.5815332  42.3234865  55.3115987
  28.0640555  42.2987165  55.6172003  30.6744460  27.5907815  57.8611967
  31.1713160  26.8377777  57.5413038  29.9031442  27.6272131  57.2955177
  38.5274218  33.2948180  59.5030259  38.5164094  34.1772896  59.1324192
  37.6591597  32.9419731  59.3084796  30.0356714  42.4428249  63.8633099
  30.7484686  43.0775714  63.7909001  29.5446743  42.5392115  63.0473101
  31.7574241  36.3479502  55.4350391  30.8230520  36.4680964  55.2655095
  31.9350910  35.4451969  55.1710401  27.2579429  29.7325198  57.5883652
  26.8877217  29.1796238  58.2764558  27.7538522  29.1283331  57.0358652
  35.1446792  32.1896821  55.9700425  35.6107245  33.0224813  55.8960728
  35.5954293  31.7241803  56.6745683  25.0868628  40.1922693  64.6838670
  25.7878087  40.8259176  64.8368064  24.6163743  40.5337424  63.9234309
  33.2123024  38.5340642  52.9686577  33.4882867  38.4197237  53.8780451
  32.3427522  38.1358127  52.9298750  33.1163455  24.5577408  60.0091326
  32.2026535  24.7881635  60.1773533  33.5456557  24.6415852  60.8605359
  32.8869914  32.7467300  62.5091220  32.2341364  32.9943208  61.8543673
  33.2650294  31.9331438  62.1753698  29.8477088  42.7826993  56.6119391
  30.0299482  41.9648649  57.0747143  30.6710074  42.9994686  56.1744281
  30.1819253  41.7095178  53.8734439  30.7107019  41.1987633  53.2604601
  30.4447473  41.3937709  54.7379972  28.9357487  33.4887111  68.9957257
  28.2598124  33.3881241  69.6659633  29.7585121  33.3326325  69.4593255
  20.6836346  39.7259048  61.6169773  21.2689783  38.9802736  61.7497677
  20.4861184  40.0363004  62.5006437  23.5375001  42.7610295  56.6332215
  22.8685376  43.2456423  56.1496255  23.3987871  43.0079516  57.5475594
  15.2754001  32.2964648  60.3374216  15.3138100  31.7628239  61.1311334
  14.7694293  31.7699853  59.7185193  27.6780270  44.7954039  63.2314873
  28.2298578  44.9585660  63.9963959  28.0186463  45.3858476  62.5594898
  22.6544763  27.1429188  63.8336758  22.7186089  28.0044019  63.4214156
  22.5911883  26.5303190  63.1009117  22.1297035  29.2152321  67.4809792
  22.7569074  28.8329398  68.0947317  21.2724954  28.9966523  67.8465485
  32.5291144  39.6215296  69.0863528  33.0731048  40.2345254  68.5918483
  31.9477989  40.1794875  69.6030541  18.9062578  31.0228750  53.4128147
  19.2016019  30.1139429  53.3595201  18.0050614  31.0016490  53.0909150
  30.8148657  42.7436014  60.2178556  30.6899796  41.9425754  59.7089501
  31.4727748  43.2382208  59.7292525  22.4356825  29.0984747  59.3955696
  21.7143411  29.7120714  59.2563169  23.2250081  29.6342511  59.3172342
  32.8783565  40.5445034  61.8458106  31.9313901  40.4250385  61.7736432
  33.2266338  39.6567532  61.9284367  25.2383139  26.4339173  65.6696348
  25.7617540  26.6801470  66.4322657  25.0195472  27.2659208  65.2499485
  20.6350420  28.7042848  53.5367472  20.3063126  27.8240227  53.3542578
  20.9889790  28.6490516  54.4243862  29.8829999  40.3397750  58.0462458
  29.7354961  39.4114458  58.2270028  30.7083492  40.3617841  57.5619533
  23.7492243  28.9915818  53.9042950  24.0888315  29.5201739  53.1821558
  24.1964363  29.3296224  54.6801517  33.4864120  41.1626309  59.1327331
  34.4110668  40.9569171  58.9951782  33.3179424  40.9142710  60.0416672
  26.4435684  27.3752868  63.3546018  26.1032504  26.5760681  63.7566698
  25.7374690  27.6754579  62.7822851  27.0952155  24.4602181  61.8073341
  27.9178225  23.9862659  61.6852231  27.3390219  25.2392664  62.3072027
  25.7360390  27.4890439  52.1036243  26.4568752  27.8671692  51.5999960
  25.1125694  28.2079316  52.2071221  29.8791513  28.1935588  53.0394575
  30.0955127  29.0760226  52.7383403  29.3985580  27.8021802  52.3100217
  24.6190734  31.1521301  59.6165320  24.4735315  31.4661604  60.5089601
  24.1415938  31.7706202  59.0636218  26.4787117  28.1423849  59.6646209
  26.4648686  27.2464943  59.3278507  27.1959545  28.1494513  60.2984495
  28.3313248  28.5761190  61.7099337  28.0731026  29.4978260  61.7083667
  27.7998288  28.1791624  62.3999801  33.2759437  41.6811977  54.4889422
  33.4496314  41.1158399  53.7363275  33.7688328  42.4812872  54.3068912
  19.0936396  33.6926646  62.5552981  18.5489864  34.4686454  62.6873255
  19.9715746  34.0397450  62.3972102  25.8824013  27.0238230  54.9333779
  26.0039924  26.0954876  55.1324667  25.5926055  27.0376916  54.0212095
  28.7515203  24.7093140  58.0700499  28.7736900  24.7732473  57.1152479
  29.1683262  23.8697649  58.2641005  39.1298828  34.4448400  56.1079722
  39.5729974  33.6955725  55.7098845  38.2525338  34.4358536  55.7253454
  34.2634609  40.9978741  51.5886320  34.9585514  41.6185434  51.8073635
  34.6057759  40.1474092  51.8638698  19.8802418  32.8196542  65.4483138
  19.1384154  32.9679177  66.0347768  19.5595163  33.0804808  64.5849887
  36.1626032  38.4478447  53.1173651  36.6877356  38.7865719  52.3922971
  36.0748385  37.5125462  52.9336786  27.8246081  42.3612520  65.2463528
  28.1333207  42.1161667  66.1186227  28.6221563  42.5659159  64.7582398
  27.8466693  44.5150430  57.4768904  27.4071683  44.0226809  58.1701761
  28.5974810  43.9723398  57.2360980  20.3259032  40.7061971  57.4793532
  21.1517052  40.4065743  57.0992176  19.9753084  39.9369593  57.9283321
  25.2940565  40.0588439  59.5491206  24.6720574  39.3959144  59.2493434
  25.9645432  40.0849571  58.8664854  18.5267637  38.6248297  58.4382466
  17.6899545  38.1970472  58.2566467  18.4991282  38.8180741  59.3753257
  25.3665093  28.5370227  69.1423712  25.4153248  29.4132350  68.7601482
  25.9087607  27.9947620  68.5695355  35.8519938  39.0811350  68.4224849
  35.0615482  39.0635489  67.8829348  35.6153293  39.6199644  69.1773886
  35.9717813  35.9303817  65.7357578  36.0215818  35.7653824  66.6773100
  35.8631737  35.0631076  65.3455458  24.8554072  38.6092362  53.0249667
  25.0042192  39.2927827  52.3716339  25.6620515  38.5897452  53.5399122
  33.2621576  31.9134745  67.0516884  34.1631438  31.7741209  66.7600882
  33.3369550  32.0789199  67.9915062  27.5964381  29.2901599  65.8970071
  26.7267690  29.5835165  65.6252659  27.8323861  29.8742044  66.6177334
  37.4736010  38.3500758  65.9799599  37.1820818  38.7130739  66.8163060
  36.8608141  37.6367766  65.8012931  38.6731692  35.9153638  58.5002169
  39.5078584  36.3543442  58.6639730  38.8090821  35.4392291  57.6810415
  35.7223198  33.4733373  64.4479657  36.1977320  33.6661019  63.6398509
  34.7988764  33.5292559  64.2023041  22.6106705  34.6357540  54.0310735
  22.3652747  33.7319870  54.2290946  22.7802620  34.6374690  53.0890213
  30.3003415  25.5081216  63.4135491  30.8185359  26.2442243  63.0881980
  29.9458548  25.8145210  64.2482250  21.8802353  30.3685898  51.5296897
  21.1871597  30.4430252  50.8736933  21.6354104  29.6046241  52.0518414
  30.5516009  21.9281499  58.9336388  30.8317763  21.2604688  59.5596814
  31.3366616  22.1210594  58.4211051  28.3549478  41.1040493  50.4961414
  27.7823445  41.7230680  50.0431886  28.9282271  41.6539854  51.0301336
  34.4224867  30.3499133  62.6807963  35.3742290  30.4497230  62.7020187
  34.2528318  29.5577401  63.1906047  32.4439247  27.4354716  62.8667364
  31.8489179  27.7159729  62.1713852  32.1588944  27.9248617  63.6384105
  31.5746737  41.3877643  51.6269996  32.5077410  41.3223205  51.8302872
  31.4869950  42.2233910  51.1684529  34.2034754  40.7043513  48.5873944
  34.1248386  40.3703377  49.4809702  35.0244421  41.1965281  48.5865416
  36.9012945  33.5705253  61.7950262  36.8689265  32.6321253  61.9809946
  37.5113569  33.6489289  61.0616087  28.7396276  32.4401305  47.8377466
  29.6855381  32.3107514  47.9065884  28.3610521  31.7015967  48.3146895
  37.0507434  30.3616296  61.8408546  36.5346482  29.5774753  61.6538474
  37.9347382  30.0335013  62.0055065  34.7118161  24.1057312  57.8004358
  34.5142982  23.7972400  58.6847690  35.3217866  24.8318950  57.9302288
  42.7189495  34.6321259  60.9356299  43.4492884  34.3706547  61.4964002
  42.1096441  33.8949981  60.9758367  40.8004792  32.7729122  61.5330750
  40.0737956  32.6385087  60.9247242  40.3852079  33.0805951  62.3387468
  28.6234969  36.4919052  69.2978123  29.5437978  36.6697651  69.4918170
  28.5884552  35.5475097  69.1457823  26.9239193  30.3651282  47.7732352
  26.0170649  30.0684395  47.8495065  27.2015174  30.0681100  46.9066638
  17.8417134  31.6857645  58.2231398  17.5219918  30.8322953  57.9305772
  17.2950562  31.9006223  58.9789365  21.6197041  34.4020086  61.9400905
  21.8383051  35.3337194  61.9588938  22.0322815  34.0428061  62.7255708
  28.5401259  24.9088172  53.9276593  27.7301987  24.5635257  54.3031839
  29.2285676  24.5995715  54.5164204  30.4691807  23.9866218  55.5500890
  31.0222846  24.4061672  56.2090913  30.7061894  23.0601967  55.5923846
  26.4924906  29.9753292  71.3303653  26.3921633  30.9247649  71.2615745
  26.2746448  29.6471531  70.4579724  25.6937978  27.2238217  47.9144331
  26.5557142  27.5493115  48.1740148  25.8788322  26.4369713  47.4017397
  17.7105394  35.3060557  60.1924520  17.0168865  34.8914510  59.6794474
  18.4578385  35.3481093  59.5957939  33.8470614  26.0966744  55.0579554
  33.2669283  26.7551548  54.6757606  33.5806547  25.2744088  54.6466971
  32.2974181  25.4971801  57.2600874  32.7973959  25.6088336  56.4515193
  32.9409789  25.1932854  57.9001683  26.3556176  33.4050431  70.1468715
  25.8723258  34.2050791  70.3532604  26.4417116  33.4158376  69.1936159
  19.6242136  35.2378811  58.0690534  19.6012824  35.3366498  57.1172418
  19.9342773  36.0843961  58.3907701  22.2829514  37.2954966  62.1837149
  23.2372768  37.2638908  62.1167080  22.0842038  36.8345589  62.9987375
  22.8728896  35.8656082  64.7507947  23.6921785  36.3600160  64.7742784
  23.1465704  34.9488050  64.7225514  32.6295492  28.2566834  54.1135902
  31.7421347  28.5416485  53.8956097  33.0449481  28.0960597  53.2663179
  35.9810028  28.2813355  57.8290241  36.7570419  28.7709807  58.1014858
  35.2558163  28.7071409  58.2862111  38.4182587  28.9940974  58.8864182
  39.0127078  28.7536710  58.1757490  38.4909171  28.2748105  59.5137718
  20.6379743  42.8374585  59.2007347  20.5034211  42.0774986  58.6345345
  20.2211805  43.5615485  58.7336136  31.7738706  38.0211509  48.2083922
  32.4774556  38.2261511  48.8241578  31.0501355  38.5888271  48.4733006
  32.6036516  33.7721370  54.3286192  32.5471717  34.2289921  53.4893825
  33.1564859  33.0112054  54.1509035  36.4141322  29.5611102  55.1536312
  36.1578256  29.1607737  55.9844519  35.7894190  30.2754896  55.0286451
  40.7253660  32.3007175  57.6607603  40.1653218  32.3700364  58.4339165
  40.1197163  32.1248160  56.9407099  23.7948869  43.7343902  59.4125789
  23.6781253  44.6789335  59.3104480  22.9741315  43.4317464  59.8011589
  33.6825403  38.4594038  50.2582382  34.5171007  38.0275236  50.0759857
  33.5209746  38.2876051  51.1859277  33.3371295  34.9626151  51.6238721
  33.2820099  34.7970423  50.6827166  32.7117351  35.6702184  51.7800911
  18.1263810  30.1994215  65.4500144  18.7722674  29.6893169  65.9387369
  17.9180961  30.9362897  66.0243569  30.6517203  37.2675063  70.9492284
  31.5208362  37.4415715  70.5878919  30.1723954  38.0869480  70.8268014
  26.6467421  24.4634260  51.2024040  26.6346091  25.4076100  51.3592311
  27.5390843  24.2804406  50.9083501  24.8203383  44.3872164  62.6281718
  25.7230629  44.4195774  62.9448213  24.5940753  43.4572615  62.6428054
  26.5756985  43.1403151  59.2891796  25.6252616  43.1405012  59.1756169
  26.8789471  42.3935885  58.7727831  30.4619540  21.0577037  55.4569977
  29.6951936  20.5035523  55.6026659  30.8730245  21.1298906  56.3184128
  22.4661301  27.3461833  69.5475158  23.3292763  26.9898637  69.7578482
  21.8926712  27.0075727  70.2350562  42.3109678  48.9763689  60.3537559
  42.9488088  48.8570436  59.6500899  42.1930521  49.9244533  60.4125511
  39.1199385  48.9291117  60.2899084  38.7817896  48.8132182  59.4019618
  39.9889153  48.5282282  60.2700090  34.9786200  50.7826593  56.2795975
  34.4151065  50.6916530  55.5112262  34.8638595  49.9626498  56.7598467
  39.6019168  50.0825969  66.2485289  39.5907808  49.6878767  65.3765793
  39.7639807  49.3492041  66.8419061  32.5250632  52.2777785  59.1180195
  33.3171924  51.9368610  58.7026494  32.7647282  52.3872760  60.0382348
  40.5585759  54.4497561  51.5910439  39.9073739  55.0351642  51.2044453
  41.3530122  54.9803756  51.6505477  34.4841386  51.5386698  51.9897574
  35.2572262  50.9915685  51.8510450  34.8366785  52.4030948  52.2012035
  36.3226429  52.8663081  65.1964473  36.0316295  53.7708711  65.0811139
  36.9583413  52.9079608  65.9108543  37.2482636  50.2439929  61.7865833
  37.8446208  50.0195951  61.0722796  37.3057607  49.5024675  62.3891281
  36.8207664  47.6979364  49.6216024  37.0733185  47.1760886  48.8599487
  35.8832223  47.5345510  49.7242707  41.8650947  46.7015143  57.4290767
  42.6514036  46.2834566  57.0781184  42.1289651  47.6061235  57.5972415
  42.0361024  52.1387993  52.1279424  41.4006857  52.2122620  52.8400328
  41.7058431  52.7281592  51.4498503  47.2659374  46.6390376  58.3323745
  47.9984546  46.0689593  58.5661575  46.5098730  46.2511976  58.7730251
  36.5403953  49.6007470  51.8240399  36.4240211  48.9252374  52.4921483
  36.6506213  49.1139844  51.0072552  38.8835494  49.0617617  55.5287088
  38.5193701  48.5348238  56.2400009  39.7402610  48.6716087  55.3553573
  44.7884794  40.3511950  62.7918354  44.4568119  41.2207361  62.5679569
  44.1930408  40.0348234  63.4712384  38.5240981  44.0907517  50.5248436
  38.6915383  44.9587754  50.8918907  38.3338150  44.2534799  49.6009726
  34.7328795  49.0038293  58.2250971  33.8079292  48.8714507  58.4328663
  34.9813208  49.7832512  58.7220914  44.6813458  45.0707036  59.8711704
  43.7730335  45.0022445  59.5770465  44.6301053  45.5478981  60.6993530
  38.5030201  46.5465175  51.5095103  38.3829827  46.9922225  52.3480584
  37.8082790  46.8950492  50.9508641  32.0937606  48.6471566  59.0594760
  32.2229987  48.9006045  59.9734172  31.4135058  49.2399274  58.7399415
  36.2637094  59.3168816  55.1585234  36.1861123  60.2676641  55.2373715
  35.6598737  58.9714689  55.8160161  38.7554323  46.4896682  67.8146601
  37.9787657  47.0490602  67.8049466  39.3944886  46.9753465  68.3361471
  46.5475104  43.2723475  61.6489578  45.9049484  43.5656008  61.0029373
  46.0430032  43.1576395  62.4542775  44.2015268  47.0186648  52.3375437
  45.1133124  47.2514035  52.1623135  43.6924915  47.6023692  51.7750516
  37.0100696  49.2982135  67.3764568  37.7515380  49.8367179  67.0999392
  36.3037681  49.9248424  67.5336120  42.4856035  51.4411276  65.9736730
  42.8939391  50.9993686  65.2291362  41.7633297  50.8663903  66.2270923
  38.8387105  46.3783882  63.3470287  39.6848301  46.8023296  63.4904936
  38.7785743  45.7217507  64.0408850  46.6874082  52.9366904  57.0833382
  46.0025120  53.3165806  56.5330416  46.7717931  53.5462231  57.8165330
  41.9886551  44.0388251  65.0051460  41.7447483  44.7930311  64.4685736
  42.2646481  44.4173598  65.8398707  43.9425013  50.5826863  63.6828726
  44.1541909  51.2258623  63.0063107  43.8954762  49.7489180  63.2150656
  41.5451242  43.1944684  60.5865298  40.6835721  43.4925937  60.8782036
  41.5713677  43.4115083  59.6546331  38.3612812  51.7386874  56.9939104
  38.8251157  52.0174577  56.2043726  38.0969610  50.8370319  56.8112195
  35.2536893  51.2858356  59.9318867  35.8238250  51.7145624  59.2936352
  35.8445005  51.0040941  60.6303053  37.2981698  47.8610027  53.8028669
  38.0005741  48.3131070  54.2702595  36.9662326  47.2193846  54.4308562
  35.7462059  46.4521783  68.1779878  35.1160720  47.1338064  68.4115275
  35.6398147  46.3404865  67.2333017  31.0407032  46.1193579  59.1045803
  30.2506086  46.3751108  58.6285913  31.5318279  46.9341917  59.2097843
  32.9921777  46.4838159  56.0629279  32.1952940  46.5956853  56.5812775
  32.7647369  46.8224811  55.1970170  38.8227445  53.0082862  64.0111794
  38.8871877  53.4703269  64.8469966  38.1138369  52.3780227  64.1394104
  29.3244735  46.3724070  61.5360793  29.5752773  47.2571080  61.8018369
  29.8604283  46.1928671  60.7635885  53.1476834  49.8037567  58.2036055
  52.3940543  49.2344965  58.0480059  53.2824376  49.7700232  59.1506690
  38.5375462  54.6750969  53.8790774  38.4021137  55.5202505  54.3075622
  39.0785275  54.8770247  53.1156708  35.0242802  40.7542549  70.5405129
  34.6309748  40.2008748  71.2152774  35.8408942  41.0653128  70.9311647
  31.9904860  52.1926407  54.4518699  32.5029380  52.9869658  54.6024264
  32.6427573  51.4952698  54.3852301  33.7999745  55.3092164  56.5341452
  33.9766373  56.2310128  56.3462436  34.5956578  54.9950583  56.9635832
  37.9410763  42.1700428  68.1325386  38.6820476  42.7707581  68.0529848
  38.1728686  41.4278066  67.5743429  33.0852101  47.3556796  66.4103616
  32.9705616  46.4542053  66.7110715  32.2296619  47.6020492  66.0588432
  38.7198231  53.0921465  66.8796026  39.2526568  52.3309753  66.6495334
  38.1912312  52.7995117  67.6220180  41.8867926  38.1981531  62.4089668
  41.5432195  39.0883173  62.3328778  42.2546889  38.0083189  61.5459253
  29.9553777  50.5215062  55.2278270  30.7928999  50.9312070  55.0111978
  30.1332044  49.5814504  55.1978464  41.8518209  48.1890142  50.9162103
  41.3364832  48.9594747  51.1550490  41.5795517  47.5155279  51.5395164
  39.4365320  43.0339843  55.9747341  38.5806916  42.6446694  55.7952980
  39.8492272  43.1131804  55.1147127  40.9664466  40.5686186  60.3738901
  40.4629262  40.5316322  59.5606706  41.2595073  41.4778929  60.4335558
  37.2107352  40.6524916  59.3805083  38.0760349  40.4567725  59.0210972
  37.2784861  40.4235268  60.3074439  41.6404512  46.0617234  52.7421884
  41.3354648  46.3763384  53.5932027  42.5934954  46.1398654  52.7849217
  40.0850944  52.2207458  54.3914838  39.5572305  51.4860217  54.0788075
  39.5838447  52.9982134  54.1454806  45.0643790  50.4156478  59.5081884
  44.4067464  51.1055740  59.5962013  45.8684189  50.8052910  59.8515871
  34.8169671  42.8827124  56.7521449  35.3913423  42.6602306  56.0194642
  35.4040654  42.9515819  57.5050051  43.8749249  48.7700851  57.5585826
  44.3881130  49.4030843  58.0607536  44.5250473  48.1702046  57.1929186
  35.1439259  44.9131585  50.7717335  34.3076571  45.2506272  51.0926609
  35.0044028  44.7780565  49.8344472  37.1192339  39.7568373  55.4796519
  36.4656751  39.4417390  54.8553134  37.0772813  39.1344113  56.2056342
  38.2303544  50.0387668  47.3949811  37.3230606  49.8076921  47.5940960
  38.7274576  49.2425287  47.5823793  40.3530079  46.2450306  59.8044167
  39.4352641  46.4665254  59.6465855  40.7690223  46.3196617  58.9455874
  41.1365127  47.6441722  54.9346847  41.8836946  48.1563119  54.6253969
  41.4056717  47.3225775  55.7951240  39.4091777  50.1400263  51.9173801
  38.5002997  49.8559296  52.0146271  39.4386861  50.5599341  51.0577108
  44.6411045  53.7506852  55.6864969  44.1873372  52.9097762  55.7430159
  44.0105012  54.3868251  56.0239749  43.5843964  44.6798838  56.9165636
  42.8466721  44.1676225  57.2475879  43.8370738  44.2399220  56.1048913
  43.6855592  37.4575090  57.5107405  43.9914469  36.5972454  57.2233320
  44.4108197  38.0492711  57.3106399  29.9779948  47.8605777  55.8989003
  29.7804348  47.2675138  55.1740070  29.4226612  47.5557987  56.6164942
  37.9576671  47.7528884  58.0183596  38.0125281  46.8002720  57.9426073
  37.1467873  47.9088323  58.5024895  39.1067865  51.6809007  49.2561880
  38.6687295  50.9644866  48.7967517  39.8478306  51.9085121  48.6946971
  35.8969031  46.3705943  55.7773975  35.0836897  46.6700114  56.1839167
  36.3928026  45.9761632  56.4948458  41.4943243  46.8347768  64.6088869
  41.8492631  47.0619241  65.4683335  42.1415374  47.1666145  63.9866124
  35.3883106  43.9424299  61.3935210  36.0282485  43.8013058  60.6958174
  34.5560637  43.6558812  61.0173812  47.2510360  52.0242731  60.3249470
  47.6846866  51.9318020  61.1732524  47.9641940  52.0000231  59.6869486
  36.1643410  53.2426729  57.5070203  36.9584009  52.7477049  57.3052778
  35.4535102  52.7144592  57.1437908  32.4726174  47.3869811  53.5829955
  31.5423762  47.3254266  53.7999917  32.5683645  46.8645764  52.7866597
  32.3911723  43.9124624  56.1708197  32.6518540  44.8269957  56.0617357
  33.2128895  43.4449066  56.3204810  33.8636648  45.3262381  63.3407022
  34.5359701  45.1179743  62.6919670  33.0366434  45.1284467  62.9012254
  48.1125909  52.0666431  62.8582355  48.3061799  52.9712242  63.1041630
  48.0126527  51.6073850  63.6920940  39.7662220  41.9524322  65.3572682
  39.1190135  42.6514272  65.2637159  40.5363235  42.3860466  65.7248931
  43.1741018  52.2173174  68.4323236  43.0226524  51.9883726  67.5153319
  43.1645697  53.1743775  68.4454581  39.9426354  49.7905087  63.4169502
  40.8718414  49.9416246  63.2438469  39.5217384  49.8789108  62.5618149
  39.3362838  58.9164848  52.5293576  39.5114594  58.4452891  53.3439199
  38.6495626  59.5430614  52.7574837  34.2664145  48.6004984  64.1009459
  34.1283943  47.8685223  64.7020998  35.1769069  48.5113884  63.8193646
  43.2279093  50.5393388  48.8493937  42.6108263  49.8140216  48.7526990
  42.7595581  51.3002748  48.5061011  36.8946446  48.3124943  63.5893138
  37.6046064  47.6718135  63.5479757  36.8515754  48.5637838  64.5119319
  35.6075380  45.2990161  65.4088778  35.0712737  44.8480900  66.0610374
  35.0192088  45.4336070  64.6659242  35.0177639  44.7578813  47.9715241
  34.1407105  44.6367613  47.6077488  35.4935392  43.9664891  47.7194130
  44.8850632  53.2131881  64.7413697  43.9977411  52.8757802  64.8640096
  45.4549183  52.4814912  64.9782463  26.5379779  49.5455972  58.0656749
  27.2250819  49.2317702  57.4777764  26.3827908  50.4497337  57.7924000
  31.3414501  44.4346169  62.4941772  31.2572690  43.8271838  61.7592182
  30.5197207  44.9255187  62.4951269  38.2041565  57.1105103  55.2177762
  37.4209087  57.6526783  55.3115987  38.9034310  57.6279083  55.6172003
  41.5138215  42.9199732  57.8611967  42.0106914  42.1669695  57.5413038
  40.7425196  42.9564049  57.2955177  49.3667972  48.6240098  59.5030259
  49.3557849  49.5064813  59.1324192  48.4985352  48.2711649  59.3084796
  42.5967996  51.6771420  55.4350391  41.6624274  51.7972882  55.2655095
  42.7744664  50.7743886  55.1710401  38.0973184  45.0617115  57.5883652
  37.7270971  44.5088156  58.2764558  38.5932276  44.4575249  57.0358652
  35.9262382  55.5214610  64.6838670  36.6271842  56.1551093  64.8368064
  35.4557497  55.8629342  63.9234309  43.9557210  39.8869326  60.0091326
  43.0420289  40.1173553  60.1773533  44.3850311  39.9707770  60.8605359
  43.7263668  48.0759218  62.5091220  43.0735118  48.3235125  61.8543673
  44.1044048  47.2623356  62.1753698  39.7751241  48.8179029  68.9957257
  39.0991878  48.7173158  69.6659633  40.5978875  48.6618243  69.4593255
  31.5230100  55.0550965  61.6169773  32.1083537  54.3094653  61.7497677
  31.3254939  55.3654922  62.5006437  34.3768755  58.0902213  56.6332215
  33.7079131  58.5748340  56.1496255  34.2381625  58.3371433  57.5475594
  26.1147755  47.6256566  60.3374216  26.1531855  47.0920156  61.1311334
  25.6088048  47.0991771  59.7185193  33.4938517  42.4721106  63.8336758
  33.5579844  43.3335937  63.4214156  33.4305638  41.8595108  63.1009117
  32.9690790  44.5444239  67.4809792  33.5962829  44.1621316  68.0947317
  32.1118709  44.3258441  67.8465485  29.7456333  46.3520668  53.4128147
  30.0409774  45.4431346  53.3595201  28.8444368  46.3308407  53.0909150
  33.2750580  44.4276664  59.3955696  32.5537165  45.0412632  59.2563169
  34.0643835  44.9634429  59.3172342  36.0776893  41.7631091  65.6696348
  36.6011295  42.0093387  66.4322657  35.8589226  42.5951126  65.2499485
  31.4744174  44.0334765  53.5367472  31.1456880  43.1532144  53.3542578
  31.8283545  43.9782434  54.4243862  34.5885997  44.3207735  53.9042950
  34.9282070  44.8493656  53.1821558  35.0358118  44.6588141  54.6801517
  37.2829438  42.7044786  63.3546018  36.9426259  41.9052599  63.7566698
  36.5768444  43.0046497  62.7822851  37.9345910  39.7894098  61.8073341
  38.7571979  39.3154577  61.6852231  38.1783974  40.5684582  62.3072027
  36.5754144  42.8182357  52.1036243  37.2962507  43.1963610  51.5999960
  35.9519449  43.5371234  52.2071221  40.7185267  43.5227506  53.0394575
  40.9348882  44.4052144  52.7383403  40.2379335  43.1313719  52.3100217
  35.4584489  46.4813219  59.6165320  35.3129069  46.7953522  60.5089601
  34.9809692  47.0998119  59.0636218  37.3180872  43.4715767  59.6646209
  37.3042440  42.5756860  59.3278507  38.0353300  43.4786431  60.2984495
  39.1707002  43.9053107  61.7099337  38.9124780  44.8270178  61.7083667
  38.6392043  43.5083542  62.3999801  29.9330151  49.0218563  62.5552981
  29.3883619  49.7978371  62.6873255  30.8109501  49.3689368  62.3972102
  36.7217768  42.3530147  54.9333779  36.8433679  41.4246793  55.1324667
  36.4319810  42.3668833  54.0212095  39.5908958  40.0385058  58.0700499
  39.6130655  40.1024391  57.1152479  40.0077017  39.1989566  58.2641005
  49.9692582  49.7740317  56.1079722  50.4123728  49.0247642  55.7098845
  49.0919093  49.7650454  55.7253454  30.7196173  48.1488460  65.4483138
  29.9777909  48.2971095  66.0347768  30.3988917  48.4096725  64.5849887
  31.1652786  56.0353888  57.4793532  31.9910806  55.7357660  57.0992176
  30.8146838  55.2661511  57.9283321  29.3661391  53.9540215  58.4382466
  28.5293300  53.5262389  58.2566467  29.3385037  54.1472658  59.3753257
  36.2058847  43.8662145  69.1423712  36.2547003  44.7424267  68.7601482
  36.7481361  43.3239538  68.5695355  46.8111568  51.2595734  65.7357578
  46.8609573  51.0945742  66.6773100  46.7025491  50.3922993  65.3455458
  35.6947827  53.9384280  53.0249667  35.8435947  54.6219744  52.3716339
  36.5014270  53.9189370  53.5399122  44.1015330  47.2426662  67.0516884
  45.0025193  47.1033127  66.7600882  44.1763305  47.4081117  67.9915062
  38.4358136  44.6193517  65.8970071  37.5661445  44.9127083  65.6252659
  38.6717616  45.2033962  66.6177334  49.5125447  51.2445556  58.5002169
  50.3472338  51.6835360  58.6639730  49.6484576  50.7684209  57.6810415
  46.5616953  48.8025290  64.4479657  47.0371074  48.9952937  63.6398509
  45.6382518  48.8584476  64.2023041  33.4500459  49.9649458  54.0310735
  33.2046501  49.0611788  54.2290946  33.6196374  49.9666608  53.0890213
  41.1397169  40.8373134  63.4135491  41.6579113  41.5734161  63.0881980
  40.7852302  41.1437127  64.2482250  32.7196107  45.6977815  51.5296897
  32.0265352  45.7722170  50.8736933  32.4747859  44.9338159  52.0518414
  41.3909764  37.2573417  58.9336388  41.6711517  36.5896606  59.5596814
  42.1760370  37.4502512  58.4211051  39.1943232  56.4332410  50.4961414
  38.6217199  57.0522598  50.0431886  39.7676026  56.9831772  51.0301336
  45.2618622  45.6791050  62.6807963  46.2136045  45.7789148  62.7020187
  45.0922072  44.8869319  63.1906047  43.2833001  42.7646634  62.8667364
  42.6882933  43.0451646  62.1713852  42.9982698  43.2540535  63.6384105
  47.7406700  48.8997170  61.7950262  47.7083020  47.9613171  61.9809946
  48.3507323  48.9781207  61.0616087  39.5790031  47.7693223  47.8377466
  40.5249135  47.6399431  47.9065884  39.2004275  47.0307885  48.3146895
  47.8901188  45.6908214  61.8408546  47.3740237  44.9066670  61.6538474
  48.7741137  45.3626930  62.0055065  45.5511915  39.4349229  57.8004358
  45.3536736  39.1264317  58.6847690  46.1611621  40.1610868  57.9302288
  53.5583250  49.9613177  60.9356299  54.2886638  49.6998465  61.4964002
  52.9490195  49.2241899  60.9758367  51.6398547  48.1021040  61.5330750
  50.9131710  47.9677005  60.9247242  51.2245834  48.4097868  62.3387468
  39.4628723  51.8210969  69.2978123  40.3831733  51.9989568  69.4918170
  39.4278306  50.8767015  69.1457823  37.7632948  45.6943200  47.7732352
  36.8564403  45.3976312  47.8495065  38.0408929  45.3973018  46.9066638
  28.6810888  47.0149563  58.2231398  28.3613672  46.1614871  57.9305772
  28.1344316  47.2298141  58.9789365  32.4590796  49.7312004  61.9400905
  32.6776805  50.6629112  61.9588938  32.8716569  49.3719978  62.7255708
  39.3795013  40.2380089  53.9276593  38.5695742  39.8927174  54.3031839
  40.0679430  39.9287633  54.5164204  41.3085562  39.3158136  55.5500890
  41.8616600  39.7353589  56.2090913  41.5455648  38.3893884  55.5923846
  37.3318661  45.3045210  71.3303653  37.2315388  46.2539567  71.2615745
  37.1140203  44.9763449  70.4579724  36.5331732  42.5530135  47.9144331
  37.3950896  42.8785033  48.1740148  36.7182076  41.7661631  47.4017397
  28.5499148  50.6352474  60.1924520  27.8562619  50.2206427  59.6794474
  29.2972139  50.6773011  59.5957939  44.6864369  41.4258661  55.0579554
  44.1063038  42.0843465  54.6757606  44.4200301  40.6036006  54.6466971
  43.1367935  40.8263719  57.2600874  43.6367714  40.9380253  56.4515193
  43.7803543  40.5224772  57.9001683  37.1949931  48.7342349  70.1468715
  36.7117013  49.5342709  70.3532604  37.2810870  48.7450293  69.1936159
  30.4635891  50.5670728  58.0690534  30.4406579  50.6658416  57.1172418
  30.7736527  51.4135879  58.3907701  33.1223268  52.6246883  62.1837149
  34.0766522  52.5930826  62.1167080  32.9235792  52.1637507  62.9987375
  33.7122651  51.1947999  64.7507947  34.5315540  51.6892078  64.7742784
  33.9859458  50.2779967  64.7225514  43.4689247  43.5858752  54.1135902
  42.5815102  43.8708402  53.8956097  43.8843236  43.4252515  53.2663179
  46.8203783  43.6105273  57.8290241  47.5964173  44.1001725  58.1014858
  46.0951917  44.0363327  58.2862111  49.2576342  44.3232892  58.8864182
  49.8520832  44.0828628  58.1757490  49.3302925  43.6040022  59.5137718
  31.4773497  58.1666503  59.2007347  31.3427965  57.4066904  58.6345345
  31.0605560  58.8907403  58.7336136  42.6132460  53.3503426  48.2083922
  43.3168310  53.5553429  48.8241578  41.8895109  53.9180188  48.4733006
  43.4430271  49.1013288  54.3286192  43.3865472  49.5581839  53.4893825
  43.9958613  48.3403972  54.1509035  51.5647414  47.6299093  57.6607603
  51.0046972  47.6992282  58.4339165  50.9590918  47.4540077  56.9407099
  28.9657565  45.5286133  65.4500144  29.6116428  45.0185087  65.9387369
  28.7574716  46.2654815  66.0243569  41.4910957  52.5966981  70.9492284
  42.3602117  52.7707633  70.5878919  41.0117709  53.4161397  70.8268014
  37.4861175  39.7926178  51.2024040  37.4739845  40.7368018  51.3592311
  38.3784597  39.6096323  50.9083501  41.3013295  36.3868954  55.4569977
  40.5345691  35.8327441  55.6026659  41.7124000  36.4590823  56.3184128
  33.3055056  42.6753750  69.5475158  34.1686517  42.3190555  69.7578482
  32.7320466  42.3367645  70.2350562  55.6278549  55.6803868  62.7918354
  55.2961874  56.5499279  62.5679569  55.0324162  55.3640152  63.4712384
  57.3868858  58.6015392  61.6489578  56.7443239  58.8947925  61.0029373
  56.8823787  58.4868313  62.4542775  52.7261681  53.5273449  62.4089668
  52.3825950  54.4175091  62.3328778  53.0940643  53.3375107  61.5459253
  54.5249346  52.7867008  57.5107405  54.8308223  51.9264372  57.2233320
  55.2501951  53.3784628  57.3106399  54.7950964  55.2161244  60.0091326
  53.8814044  55.4465470  60.1773533  55.2244066  55.2999688  60.8605359
  40.5850087  61.6812585  53.4128147  40.8803528  60.7723264  53.3595201
  39.6838123  61.6600325  53.0909150  48.7739664  55.1186016  61.8073341
  49.5965734  54.6446494  61.6852231  49.0177728  55.8976500  62.3072027
  50.4302712  55.3676975  58.0700499  50.4524409  55.4316308  57.1152479
  50.8470771  54.5281484  58.2641005  51.9790924  56.1665052  63.4135491
  52.4972868  56.9026079  63.0881980  51.6246057  56.4729045  64.2482250
  52.2303518  52.5865334  58.9336388  52.5105272  51.9188523  59.5596814
  53.0154125  52.7794430  58.4211051  54.1226756  58.0938551  62.8667364
  53.5276688  58.3743564  62.1713852  53.8376453  58.5832452  63.6384105
  56.3905670  54.7641147  57.8004358  56.1930491  54.4556235  58.6847690
  57.0005375  55.4902786  57.9302288  52.1407049  51.7160872  55.4569977
  51.3739445  51.1619359  55.6026659  52.5517754  51.7882741  56.3184128
  74.8264343  80.4621402  58.2036055  74.0728052  79.8928800  58.0480059
  74.9611885  80.4284067  59.1506690  55.5811432  92.7238046  59.3033436
  55.8208030  93.3556570  59.9812455  54.7380629  92.3726086  59.5898796
  57.3735335  84.5968115  53.0249667  57.5223456  85.2803580  52.3716339
  58.1801779  84.5773205  53.5399122  74.8290942  94.9639442  60.3537559
  75.4669352  94.8446189  59.6500899  74.7111785  95.9120286  60.4125511
  71.6380648  94.9166870  60.2899084  71.2999160  94.8007935  59.4019618
  72.5070416  94.5158035  60.2700090  67.4967464  96.7702346  56.2795975
  66.9332329  96.6792283  55.5112262  67.3819859  95.9502251  56.7598467
  72.1200431  96.0701722  66.2485289  72.1089072  95.6754520  65.3765793
  72.2821070  95.3367794  66.8419061  65.0431896  98.2653538  59.1180195
  65.8353188  97.9244363  58.7026494  65.2828546  98.3748513  60.0382348
  73.0767022 100.4373314  51.5910439  72.4255002 101.0227395  51.2044453
  73.8711385 100.9679509  51.6505477  67.0022650  97.5262451  51.9897574
  67.7753526  96.9791438  51.8510450  67.3548048  98.3906701  52.2012035
  68.8407692  98.8538834  65.1964473  68.5497558  99.7584464  65.0811139
  69.4764677  98.8955361  65.9108543  69.7663899  96.2315682  61.7865833
  70.3627471  96.0071705  61.0722796  69.8238871  95.4900428  62.3891281
  69.3388927  93.6855117  49.6216024  69.5914448  93.1636639  48.8599487
  68.4013487  93.5221263  49.7242707  74.3832210  92.6890896  57.4290767
  75.1695299  92.2710319  57.0781184  74.6470915  93.5936988  57.5972415
  74.5542288  98.1263746  52.1279424  73.9188121  98.1998373  52.8400328
  74.2239694  98.7157345  51.4498503  79.7840637  92.6266129  58.3323745
  80.5165809  92.0565346  58.5661575  79.0279993  92.2387729  58.7730251
  69.0585216  95.5883223  51.8240399  68.9421474  94.9128127  52.4921483
  69.1687476  95.1015597  51.0072552  71.4016757  95.0493370  55.5287088
  71.0374964  94.5223991  56.2400009  72.2583873  94.6591840  55.3553573
  73.7997577  98.5400249  62.1914267  73.4998300  99.4425288  62.0830074
  73.4548637  98.2732432  63.0435420  67.2510059  94.9914046  58.2250971
  66.3260555  94.8590260  58.4328663  67.4994472  95.7708265  58.7220914
  77.1994721  91.0582789  59.8711704  76.2911598  90.9898198  59.5770465
  77.1482317  91.5354734  60.6993530  71.0211465  92.5340928  51.5095103
  70.9011090  92.9797978  52.3480584  70.3264053  92.8826245  50.9508641
  68.7818357 105.3044569  55.1585234  68.7042387 106.2552395  55.2373715
  68.1780001 104.9590442  55.8160161  79.0656367  89.2599228  61.6489578
  78.4230748  89.5531761  61.0029373  78.5611296  89.1452148  62.4542775
  76.7196531  93.0062401  52.3375437  77.6314387  93.2389788  52.1623135
  76.2106178  93.5899445  51.7750516  69.5281959  95.2857888  67.3764568
  70.2696643  95.8242932  67.0999392  68.8218945  95.9124177  67.5336120
  75.0037299  97.4287029  65.9736730  75.4120655  96.9869439  65.2291362
  74.2814560  96.8539656  66.2270923  71.3568369  92.3659635  63.3470287
  72.2029564  92.7899049  63.4904936  71.2967006  91.7093260  64.0408850
  75.3266113  97.9888219  59.7289019  74.6974976  98.1533933  59.0265087
  74.9391775  98.4029829  60.4999983  79.2055345  98.9242657  57.0833382
  78.5206383  99.3041559  56.5330416  79.2899195  99.5337984  57.8165330
  76.4606277  96.5702616  63.6828726  76.6723172  97.2134376  63.0063107
  76.4136025  95.7364933  63.2150656  74.0632506  89.1820437  60.5865298
  73.2016985  89.4801690  60.8782036  74.0894941  89.3990836  59.6546331
  70.8794075  97.7262627  56.9939104  71.3432421  98.0050330  56.2043726
  70.6150873  96.8246072  56.8112195  67.7718156  97.2734109  59.9318867
  68.3419513  97.7021377  59.2936352  68.3626268  96.9916694  60.6303053
  69.8162961  93.8485780  53.8028669  70.5187005  94.3006823  54.2702595
  69.4843590  93.2069599  54.4308562  68.2643323  92.4397536  68.1779878
  67.6341983  93.1213817  68.4115275  68.1579411  92.3280618  67.2333017
  77.5752105  99.4474572  61.8551083  78.3969549  99.0454759  61.5733765
  77.5714508  99.3442806  62.8067199  71.3408708  98.9958615  64.0111794
  71.4053141  99.4579022  64.8469966  70.6319632  98.3655980  64.1394104
  71.0556726 100.6626722  53.8790774  70.9202401 101.5078258  54.3075622
  71.5966538 100.8646000  53.1156708  66.3181008 101.2967917  56.5341452
  66.4947636 102.2185881  56.3462436  67.1137842 100.9826336  56.9635832
  72.6825202 101.2850289  68.0091116  72.2389057 100.4986667  67.6912021
  73.3442416 101.4729439  67.3435007  67.4412324 102.8146091  62.5351795
  67.9919749 102.6863154  61.7628789  66.6023799 103.1140980  62.1846688
  74.7806440 101.5653089  66.0372518  74.7624916 102.3861970  65.5452787
  75.7026360 101.4407164  66.2622659  71.2379495  99.0797218  66.8796026
  71.7707831  98.3185507  66.6495334  70.7093576  98.7870870  67.6220180
  74.3699472  94.1765895  50.9162103  73.8546096  94.9470500  51.1550490
  74.0976781  93.5031032  51.5395164  73.4845730  86.5561939  60.3738901
  72.9810526  86.5192075  59.5606706  73.7776337  87.4654682  60.4335558
  79.3433746  96.9298250  52.8515276  78.5663189  96.5909410  52.4070438
  80.0225227  96.9350873  52.1770241  74.1585775  92.0492987  52.7421884
  73.8535911  92.3639137  53.5932027  75.1116218  92.1274407  52.7849217
  72.6032207  98.2083211  54.3914838  72.0753569  97.4735970  54.0788075
  72.1019710  98.9857887  54.1454806  77.5825053  96.4032231  59.5081884
  76.9248728  97.0931493  59.5962013  78.3865453  96.7928663  59.8515871
  76.3930512  94.7576604  57.5585826  76.9062394  95.3906596  58.0607536
  77.0431736  94.1577799  57.1929186  70.7484807  96.0263421  47.3949811
  69.8411869  95.7952675  47.5940960  71.2455839  95.2301040  47.5823793
  73.6552886 104.7360928  50.3146497  72.9814585 105.0392625  50.9231455
  74.0418708 105.5390009  49.9651954  72.8711343  92.2326060  59.8044167
  71.9533904  92.4541007  59.6465855  73.2871487  92.3072370  58.9455874
  73.6546391  93.6317475  54.9346847  74.4018210  94.1438872  54.6253969
  73.9237980  93.3101528  55.7951240  71.9273041  96.1276016  51.9173801
  71.0184260  95.8435049  52.0146271  71.9568125  96.5475094  51.0577108
  77.1592308  99.7382605  55.6864969  76.7054635  98.8973515  55.7430159
  76.5286275 100.3744004  56.0239749  76.1025228  90.6674591  56.9165636
  75.3647985  90.1551978  57.2475879  76.3552001  90.2274973  56.1048913
  75.6025248 101.5759102  56.6214787  75.8948222 102.1364159  55.9027152
  76.1123868 101.8687663  57.3767946  70.4757935  93.7404637  58.0183596
  70.5306545  92.7878473  57.9426073  69.6649137  93.8964076  58.5024895
  71.6249129  97.6684760  49.2561880  71.1868559  96.9520619  48.7967517
  72.3659570  97.8960874  48.6946971  70.5658873 102.3539453  57.7108240
  70.5235052 102.5800300  56.7816772  71.4821572 102.1202828  57.8594041
  74.0124507  92.8223521  64.6088869  74.3673894  93.0494994  65.4683335
  74.6596638  93.1541898  63.9866124  79.7422243  95.9441957  55.3138198
  79.6040142  96.1343553  54.3859387  79.3858462  96.7061339  55.7706249
  79.7691623  98.0118484  60.3249470  80.2028130  97.9193773  61.1732524
  80.4823204  97.9875984  59.6869486  68.6824674  99.2302482  57.5070203
  69.4765272  98.7352802  57.3052778  67.9716366  98.7020345  57.1437908
  73.5019518 101.6120578  61.8582570  73.5556540 102.1811514  62.6260286
  72.6334299 101.7822463  61.4936607  80.6307173  98.0542184  62.8582355
  80.8243063  98.9587995  63.1041630  80.5307791  97.5949603  63.6920940
  75.6922281  98.2048927  68.4323236  75.5407788  97.9759479  67.5153319
  75.6826961  99.1619528  68.4454581  72.4607618  95.7780840  63.4169502
  73.3899678  95.9291999  63.2438469  72.0398648  95.8664861  62.5618149
  71.2595950  99.8031504  61.1868040  71.1207035  99.4350289  62.0593978
  70.4710546 100.3179144  61.0151998  71.8544101 104.9040601  52.5293576
  72.0295857 104.4328644  53.3439199  71.1676890 105.5306367  52.7574837
  72.8101165  99.1813107  58.5756878  72.4750997  99.1413877  59.4714527
  72.3105110  98.5157823  58.1027288  75.7460356  96.5269141  48.8493937
  75.1289527  95.8015969  48.7526990  75.2776845  97.2878502  48.5061011
  69.4127709  94.3000696  63.5893138  70.1227328  93.6593888  63.5479757
  69.3697017  94.5513591  64.5119319  77.4014488 101.2368050  66.5099718
  77.3427034 100.5527270  65.8430301  77.8034006 101.9787040  66.0580344
  66.4205187 108.0529963  59.3033436  66.6601785 108.6848488  59.9812455
  65.5774383 107.7018003  59.5898796  67.5358902  90.7454566  47.9715241
  66.6588369  90.6243366  47.6077488  68.0116655  89.9540644  47.7194130
  77.4031895  99.2007634  64.7413697  76.5158674  98.8633555  64.8640096
  77.9730446  98.4690665  64.9782463  70.9333049 103.8609086  61.7074940
  70.8603220 104.6664057  62.2194245  70.4910442 104.0601052  60.8822962
  70.7222828 103.0980856  55.2177762  69.9390350 103.6402536  55.3115987
  71.4215573 103.6154836  55.6172003  74.0319478  88.9075485  57.8611967
  74.5288178  88.1545448  57.5413038  73.2606460  88.9439802  57.2955177
  73.3931732 103.7595920  63.8633099  74.1059704 104.3943385  63.7909001
  72.9021761 103.8559786  63.0473101  75.1149259  97.6647173  55.4350391
  74.1805538  97.7848635  55.2655095  75.2925928  96.7619639  55.1710401
  70.6154447  91.0492868  57.5883652  70.2452235  90.4963909  58.2764558
  71.1113540  90.4451002  57.0358652  78.5021810  93.5064492  55.9700425
  78.9682263  94.3392483  55.8960728  78.9529311  93.0409473  56.6745683
  68.4443646 101.5090363  64.6838670  69.1453105 102.1426846  64.8368064
  67.9738761 101.8505095  63.9234309  76.5698042  99.8508313  52.9686577
  76.8457885  99.7364908  53.8780451  75.7002540  99.4525798  52.9298750
  76.4738473  85.8745079  60.0091326  75.5601553  86.1049306  60.1773533
  76.9031575  85.9583523  60.8605359  76.2444932  94.0634971  62.5091220
  75.5916382  94.3110878  61.8543673  76.6225312  93.2499109  62.1753698
  73.2052106 104.0994664  56.6119391  73.3874500 103.2816320  57.0747143
  74.0285092 104.3162356  56.1744281  73.5394271 103.0262849  53.8734439
  74.0682037 102.5155304  53.2604601  73.8022491 102.7105379  54.7379972
  72.2932505  94.8054782  68.9957257  71.6173142  94.7048911  69.6659633
  73.1160139  94.6493996  69.4593255  64.0411364 101.0426718  61.6169773
  64.6264801 100.2970406  61.7497677  63.8436202 101.3530675  62.5006437
  66.8950019 104.0777966  56.6332215  66.2260394 104.5624093  56.1496255
  66.7562889 104.3247186  57.5475594  71.0355288 106.1121709  63.2314873
  71.5873596 106.2753331  63.9963959  71.3761481 106.7026147  62.5594898
  75.8866162 100.9382967  69.0863528  76.4306066 101.5512925  68.5918483
  75.3053007 101.4962545  69.6030541  74.1723675 104.0603685  60.2178556
  74.0474814 103.2593425  59.7089501  74.8302766 104.5549878  59.7292525
  76.2358583 101.8612705  61.8458106  75.2888919 101.7418056  61.7736432
  76.5841356 100.9735203  61.9284367  73.2405017 101.6565421  58.0462458
  73.0929979 100.7282129  58.2270028  74.0658510 101.6785512  57.5619533
  76.8439138 102.4793980  59.1327331  77.7685686 102.2736841  58.9951782
  76.6754442 102.2310381  60.0416672  67.9765752  92.4688972  59.6165320
  67.8310333  92.7829275  60.5089601  67.4990956  93.0873872  59.0636218
  69.8362135  89.4591520  59.6646209  69.8223704  88.5632613  59.3278507
  70.5534563  89.4662184  60.2984495  71.6888266  89.8928860  61.7099337
  71.4306044  90.8145931  61.7083667  71.1573306  89.4959295  62.3999801
  76.6334455 102.9979647  54.4889422  76.8071332 102.4326070  53.7363275
  77.1263346 103.7980542  54.3068912  72.1090221  86.0260811  58.0700499
  72.1311918  86.0900144  57.1152479  72.5258280  85.1865319  58.2641005
  77.6209627 102.3146412  51.5886320  78.3160532 102.9353104  51.8073635
  77.9632777 101.4641763  51.8638698  79.5201050  99.7646117  53.1173651
  80.0452374 100.1033390  52.3922971  79.4323403  98.8293133  52.9336786
  71.1821099 103.6780191  65.2463528  71.4908225 103.4329338  66.1186227
  71.9796581 103.8826829  64.7582398  71.2041711 105.8318101  57.4768904
  70.7646701 105.3394479  58.1701761  71.9549828 105.2891068  57.2360980
  63.6834050 102.0229641  57.4793532  64.5092070 101.7233413  57.0992176
  63.3328102 101.2537264  57.9283321  68.6515583 101.3756110  59.5491206
  68.0295592 100.7126815  59.2493434  69.3220450 101.4017242  58.8664854
  61.8842655  99.9415968  58.4382466  61.0474563  99.5138142  58.2566467
  61.8566300 100.1348411  59.3753257  79.2094956 100.3979021  68.4224849
  78.4190500 100.3803160  67.8829348  78.9728311 100.9367315  69.1773886
  79.3292831  97.2471487  65.7357578  79.3790836  97.0821495  66.6773100
  79.2206755  96.3798746  65.3455458  68.2129090  99.9260033  53.0249667
  68.3617210 100.6095497  52.3716339  69.0195533  99.9065123  53.5399122
  76.6196594  93.2302415  67.0516884  77.5206456  93.0908880  66.7600882
  76.6944568  93.3956870  67.9915062  80.8311028  99.6668429  65.9799599
  80.5395836 100.0298409  66.8163060  80.2183159  98.9535437  65.8012931
  82.0306710  97.2321309  58.5002169  82.8653602  97.6711113  58.6639730
  82.1665839  96.7559962  57.6810415  79.0798216  94.7901043  64.4479657
  79.5552338  94.9828690  63.6398509  78.1563782  94.8460229  64.2023041
  71.7124496 102.4208163  50.4961414  71.1398463 103.0398351  50.0431886
  72.2857289 102.9707525  51.0301336  77.7799885  91.6666804  62.6807963
  78.7317308  91.7664901  62.7020187  77.6103336  90.8745072  63.1906047
  75.8014265  88.7522387  62.8667364  75.2064197  89.0327399  62.1713852
  75.5163962  89.2416288  63.6384105  74.9321755 102.7045314  51.6269996
  75.8652428 102.6390875  51.8302872  74.8444968 103.5401580  51.1684529
  77.5609772 102.0211184  48.5873944  77.4823403 101.6871048  49.4809702
  78.3819439 102.5132952  48.5865416  80.2587963  94.8872923  61.7950262
  80.2264283  93.9488924  61.9809946  80.8688587  94.9656960  61.0616087
  72.0971294  93.7568976  47.8377466  73.0430399  93.6275184  47.9065884
  71.7185539  93.0183638  48.3146895  80.4082452  91.6783967  61.8408546
  79.8921500  90.8942423  61.6538474  81.2922400  91.3502683  62.0055065
  71.9809987  97.8086722  69.2978123  72.9012996  97.9865321  69.4918170
  71.9459570  96.8642768  69.1457823  70.2814211  91.6818953  47.7732352
  69.3745667  91.3852065  47.8495065  70.5590192  91.3848771  46.9066638
  73.8266825  85.3033889  55.5500890  74.3797864  85.7229343  56.2090913
  74.0636912  84.3769637  55.5923846  69.8499924  91.2920963  71.3303653
  69.7496651  92.2415320  71.2615745  69.6321466  90.9639202  70.4579724
  61.0680412  96.6228227  60.1924520  60.3743883  96.2082180  59.6794474
  61.8153403  96.6648764  59.5957939  75.6549199  86.8139472  57.2600874
  76.1548977  86.9256006  56.4515193  76.2984807  86.5100525  57.9001683
  69.7131194  94.7218102  70.1468715  69.2298276  95.5218462  70.3532604
  69.7992133  94.7326046  69.1936159  65.6404532  98.6122636  62.1837149
  66.5947785  98.5806579  62.1167080  65.4417056  98.1513260  62.9987375
  66.2303914  97.1823752  64.7507947  67.0496803  97.6767831  64.7742784
  66.5040722  96.2655720  64.7225514  75.9870510  89.5734505  54.1135902
  75.0996365  89.8584155  53.8956097  76.4024499  89.4128268  53.2663179
  63.9954761 104.1542256  59.2007347  63.8609229 103.3942657  58.6345345
  63.5786823 104.8783156  58.7336136  75.1313724  99.3379179  48.2083922
  75.8349574  99.5429182  48.8241578  74.4076373  99.9055941  48.4733006
  75.9611534  95.0889041  54.3286192  75.9046735  95.5457592  53.4893825
  76.5139876  94.3279725  54.1509035  67.1523887 105.0511573  59.4125789
  67.0356271 105.9957005  59.3104480  66.3316333 104.7485134  59.8011589
  77.0400421  99.7761709  50.2582382  77.8746025  99.3442907  50.0759857
  76.8784764  99.6043722  51.1859277  76.6946313  96.2793822  51.6238721
  76.6395117  96.1138093  50.6827166  76.0692369  96.9869855  51.7800911
  74.0092221  98.5842734  70.9492284  74.8783380  98.7583386  70.5878919
  73.5298972  99.4037151  70.8268014  68.1778401 105.7039835  62.6281718
  69.0805647 105.7363445  62.9448213  67.9515771 104.7740286  62.6428054
  69.9332003 104.4570821  59.2891796  68.9827634 104.4572683  59.1756169
  70.2364489 103.7103556  58.7727831  85.6684696 110.2931360  60.3537559
  86.3063106 110.1738107  59.6500899  85.5505539 111.2412204  60.4125511
  82.4774403 110.2458788  60.2899084  82.1392914 110.1299852  59.4019618
  83.3464171 109.8449953  60.2700090  78.3361218 112.0994264  56.2795975
  77.7726083 112.0084201  55.5112262  78.2213613 111.2794169  56.7598467
  82.9594186 111.3993639  66.2485289  82.9482826 111.0046438  65.3765793
  83.1214825 110.6659712  66.8419061  75.8825650 113.5945456  59.1180195
  76.6746942 113.2536280  58.7026494  76.1222300 113.7040431  60.0382348
  83.9160777 115.7665232  51.5910439  83.2648757 116.3519312  51.2044453
  84.7105140 116.2971427  51.6505477  77.8416404 112.8554369  51.9897574
  78.6147280 112.3083356  51.8510450  78.1941803 113.7198618  52.2012035
  79.6801447 114.1830751  65.1964473  79.3891313 115.0876382  65.0811139
  80.3158431 114.2247279  65.9108543  80.6057654 111.5607600  61.7865833
  81.2021226 111.3363622  61.0722796  80.6632625 110.8192345  62.3891281
  80.1782682 109.0147035  49.6216024  80.4308203 108.4928556  48.8599487
  79.2407241 108.8513181  49.7242707  85.2225965 108.0182813  57.4290767
  86.0089054 107.6002237  57.0781184  85.4864669 108.9228906  57.5972415
  85.3936042 113.4555664  52.1279424  84.7581875 113.5290290  52.8400328
  85.0633448 114.0449263  51.4498503  90.6234392 107.9558047  58.3323745
  91.3559564 107.3857263  58.5661575  89.8673748 107.5679647  58.7730251
  79.8978971 110.9175141  51.8240399  79.7815229 110.2420044  52.4921483
  80.0081231 110.4307515  51.0072552  82.2410512 110.3785288  55.5287088
  81.8768719 109.8515909  56.2400009  83.0977627 109.9883757  55.3553573
  88.1459812 101.6679621  62.7918354  87.8143137 102.5375032  62.5679569
  87.5505426 101.3515905  63.4712384  81.8815999 105.4075188  50.5248436
  82.0490401 106.2755424  50.8918907  81.6913168 105.5702470  49.6009726
  84.6391332 113.8692167  62.1914267  84.3392055 114.7717206  62.0830074
  84.2942391 113.6024350  63.0435420  78.0903813 110.3205964  58.2250971
  77.1654310 110.1882178  58.4328663  78.3388226 111.1000183  58.7220914
  88.0388476 106.3874707  59.8711704  87.1305353 106.3190115  59.5770465
  87.9876071 106.8646652  60.6993530  81.8605219 107.8632845  51.5095103
  81.7404845 108.3089896  52.3480584  81.1657808 108.2118163  50.9508641
  75.4512624 109.9639237  59.0594760  75.5805005 110.2173716  59.9734172
  74.7710076 110.5566945  58.7399415  79.6212112 120.6336487  55.1585234
  79.5436141 121.5844312  55.2373715  79.0173755 120.2882360  55.8160161
  82.1129341 107.8064353  67.8146601  81.3362675 108.3658273  67.8049466
  82.7519904 108.2921136  68.3361471  89.9050122 104.5891145  61.6489578
  89.2624502 104.8823679  61.0029373  89.4005050 104.4744066  62.4542775
  87.5590286 108.3354319  52.3375437  88.4708142 108.5681705  52.1623135
  87.0499933 108.9191363  51.7750516  80.3675714 110.6149806  67.3764568
  81.1090398 111.1534850  67.0999392  79.6612699 111.2416095  67.5336120
  85.8431053 112.7578946  65.9736730  86.2514409 112.3161357  65.2291362
  85.1208315 112.1831574  66.2270923  82.1962123 107.6951553  63.3470287
  83.0423319 108.1190967  63.4904936  82.1360761 107.0385177  64.0408850
  86.1659868 113.3180137  59.7289019  85.5368730 113.4825851  59.0265087
  85.7785530 113.7321747  60.4999983  90.0449100 114.2534575  57.0833382
  89.3600138 114.6333476  56.5330416  90.1292949 114.8629902  57.8165330
  85.3461569 105.3555922  65.0051460  85.1022501 106.1097982  64.4685736
  85.6221499 105.7341269  65.8398707  87.3000031 111.8994534  63.6828726
  87.5116927 112.5426294  63.0063107  87.2529780 111.0656850  63.2150656
  84.9026260 104.5112355  60.5865298  84.0410739 104.8093608  60.8782036
  84.9288695 104.7282753  59.6546331  81.7187830 113.0554545  56.9939104
  82.1826175 113.3342248  56.2043726  81.4544628 112.1537990  56.8112195
  78.6111911 112.6026027  59.9318867  79.1813268 113.0313295  59.2936352
  79.2020023 112.3208611  60.6303053  80.6556716 109.1777697  53.8028669
  81.3580759 109.6298741  54.2702595  80.3237344 108.5361516  54.4308562
  79.1037077 107.7689454  68.1779878  78.4735738 108.4505735  68.4115275
  78.9973165 107.6572536  67.2333017  74.3982050 107.4361250  59.1045803
  73.6081104 107.6918779  58.6285913  74.8893297 108.2509588  59.2097843
  88.4145859 114.7766489  61.8551083  89.2363303 114.3746677  61.5733765
  88.4108262 114.6734723  62.8067199  76.3496795 107.8005829  56.0629279
  75.5527958 107.9124524  56.5812775  76.1222387 108.1392482  55.1970170
  82.1802463 114.3250533  64.0111794  82.2446895 114.7870940  64.8469966
  81.4713387 113.6947898  64.1394104  72.6819753 107.6891741  61.5360793
  72.9327791 108.5738750  61.8018369  73.2179301 107.5096342  60.7635885
  96.5051852 111.1205238  58.2036055  95.7515561 110.5512636  58.0480059
  96.6399394 111.0867902  59.1506690  81.8950480 115.9918640  53.8790774
  81.7596155 116.8370176  54.3075622  82.4360293 116.1937918  53.1156708
  78.3817820 102.0710220  70.5405129  77.9884766 101.5176418  71.2152774
  79.1983960 102.3820798  70.9311647  75.3479878 113.5094078  54.4518699
  75.8604398 114.3037328  54.6024264  76.0002591 112.8120369  54.3852301
  77.1574763 116.6259834  56.5341452  77.3341391 117.5477799  56.3462436
  77.9531596 116.3118254  56.9635832  81.2985781 103.4868099  68.1325386
  82.0395494 104.0875252  68.0529848  81.5303704 102.7445737  67.5743429
  76.4427119 108.6724466  66.4103616  76.3280634 107.7709724  66.7110715
  75.5871637 108.9188163  66.0588432  83.5218957 116.6142207  68.0091116
  83.0782811 115.8278585  67.6912021  84.1836170 116.8021357  67.3435007
  78.2806078 118.1438008  62.5351795  78.8313503 118.0155072  61.7628789
  77.4417554 118.4432897  62.1846688  85.6200195 116.8945007  66.0372518
  85.6018670 117.7153888  65.5452787  86.5420115 116.7699082  66.2622659
  82.0773249 114.4089136  66.8796026  82.6101586 113.6477424  66.6495334
  81.5487330 114.1162788  67.6220180  85.2442944  99.5149202  62.4089668
  84.9007213 100.4050844  62.3328778  85.6121907  99.3250860  61.5459253
  73.3128795 111.8382732  55.2278270  74.1504017 112.2479741  55.0111978
  73.4907062 110.8982175  55.1978464  85.2093227 109.5057813  50.9162103
  84.6939850 110.2762418  51.1550490  84.9370535 108.8322949  51.5395164
  82.7940338 104.3507514  55.9747341  81.9381934 103.9614364  55.7952980
  83.2067290 104.4299475  55.1147127  84.3239484 101.8853857  60.3738901
  83.8204280 101.8483992  59.5606706  84.6170091 102.7946600  60.4335558
  80.5682370 101.9692587  59.3805083  81.4335367 101.7735396  59.0210972
  80.6359879 101.7402939  60.3074439  90.1827501 112.2590168  52.8515276
  89.4056944 111.9201327  52.4070438  90.8618982 112.2642791  52.1770241
  84.9979530 107.3784905  52.7421884  84.6929665 107.6931054  53.5932027
  85.9509972 107.4566325  52.7849217  83.4425962 113.5375128  54.3914838
  82.9147323 112.8027888  54.0788075  82.9413464 114.3149805  54.1454806
  88.4218808 111.7324149  59.5081884  87.7642482 112.4223410  59.5962013
  89.2259207 112.1220581  59.8515871  78.1744689 104.1994795  56.7521449
  78.7488441 103.9769976  56.0194642  78.7615672 104.2683489  57.5050051
  87.2324267 110.0868522  57.5585826  87.7456148 110.7198513  58.0607536
  87.8825490 109.4869717  57.1929186  78.5014276 106.2299256  50.7717335
  77.6651589 106.5673942  51.0926609  78.3619046 106.0948236  49.8344472
  80.4767357 101.0736044  55.4796519  79.8231769 100.7585061  54.8553134
  80.4347831 100.4511784  56.2056342  81.5878562 111.3555339  47.3949811
  80.6805624 111.1244592  47.5940960  82.0849594 110.5592958  47.5823793
  84.4946641 120.0652846  50.3146497  83.8208340 120.3684543  50.9231455
  84.8812463 120.8681926  49.9651954  83.7105097 107.5617977  59.8044167
  82.7927659 107.7832924  59.6465855  84.1265241 107.6364288  58.9455874
  84.4940145 108.9609393  54.9346847  85.2411964 109.4730790  54.6253969
  84.7631735 108.6393446  55.7951240  82.7666795 111.4567934  51.9173801
  81.8578015 111.1726966  52.0146271  82.7961879 111.8767012  51.0577108
  87.9986063 115.0674523  55.6864969  87.5448390 114.2265433  55.7430159
  87.3680030 115.7035921  56.0239749  86.9418982 105.9966509  56.9165636
  86.2041739 105.4843895  57.2475879  87.1945756 105.5566891  56.1048913
  86.4419002 116.9051020  56.6214787  86.7341976 117.4656077  55.9027152
  86.9517623 117.1979581  57.3767946  87.0430610  98.7742761  57.5107405
  87.3489486  97.9140125  57.2233320  87.7683214  99.3660381  57.3106399
  73.3354966 109.1773448  55.8989003  73.1379366 108.5842808  55.1740070
  72.7801630 108.8725658  56.6164942  81.3151689 109.0696554  58.0183596
  81.3700299 108.1170391  57.9426073  80.5042891 109.2255993  58.5024895
  82.4642883 112.9976677  49.2561880  82.0262313 112.2812536  48.7967517
  83.2053324 113.2252792  48.6946971  79.2544049 107.6873614  55.7773975
  78.4411915 107.9867785  56.1839167  79.7503044 107.2929303  56.4948458
  81.4052627 117.6831371  57.7108240  81.3628806 117.9092217  56.7816772
  82.3215326 117.4494745  57.8594041  84.8518261 108.1515438  64.6088869
  85.2067649 108.3786912  65.4683335  85.4990392 108.4833815  63.9866124
  90.5815998 111.2733874  55.3138198  90.4433897 111.4635470  54.3859387
  90.2252217 112.0353257  55.7706249  78.7458124 105.2591969  61.3935210
  79.3857503 105.1180729  60.6958174  77.9135655 104.9726483  61.0173812
  90.6085378 113.3410401  60.3249470  91.0421884 113.2485690  61.1732524
  91.3216958 113.3167902  59.6869486  79.5218428 114.5594400  57.5070203
  80.3159026 114.0644720  57.3052778  78.8110120 114.0312263  57.1437908
  84.3413272 116.9412495  61.8582570  84.3950295 117.5103432  62.6260286
  83.4728054 117.1114380  61.4936607  75.8301191 108.7037482  53.5829955
  74.8998780 108.6421937  53.7999917  75.9258663 108.1813434  52.7866597
  75.7486741 105.2292294  56.1708197  76.0093558 106.1437628  56.0617357
  76.5703913 104.7616737  56.3204810  77.2211666 106.6430052  63.3407022
  77.8934719 106.4347414  62.6919670  76.3941452 106.4452138  62.9012254
  91.4700927 113.3834102  62.8582355  91.6636817 114.2879912  63.1041630
  91.3701545 112.9241521  63.6920940  83.1237238 103.2691993  65.3572682
  82.4765153 103.9681942  65.2637159  83.8938253 103.7028136  65.7248931
  86.5316036 113.5340845  68.4323236  86.3801542 113.3051396  67.5153319
  86.5220715 114.4911446  68.4454581  83.3001372 111.1072757  63.4169502
  84.2293432 111.2583917  63.2438469  82.8792402 111.1956778  62.5618149
  82.0989704 115.1323422  61.1868040  81.9600790 114.7642206  62.0593978
  81.3104300 115.6471061  61.0151998  82.6937856 120.2332518  52.5293576
  82.8689612 119.7620562  53.3439199  82.0070644 120.8598285  52.7574837
  83.6494919 114.5105025  58.5756878  83.3144752 114.4705795  59.4714527
  83.1498865 113.8449741  58.1027288  77.6239163 109.9172655  64.1009459
  77.4858961 109.1852893  64.7020998  78.5344087 109.8281555  63.8193646
  86.5854111 111.8561059  48.8493937  85.9683281 111.1307887  48.7526990
  86.1170599 112.6170419  48.5061011  80.2521464 109.6292614  63.5893138
  80.9621082 108.9885806  63.5479757  80.2090772 109.8805509  64.5119319
  88.2408242 116.5659967  66.5099718  88.1820789 115.8819187  65.8430301
  88.6427761 117.3078957  66.0580344  78.9650398 106.6157832  65.4088778
  78.4287755 106.1648570  66.0610374  78.3767106 106.7503741  64.6659242
  77.2598941 123.3821881  59.3033436  77.4995539 124.0140405  59.9812455
  76.4168138 123.0309921  59.5898796  78.3752657 106.0746483  47.9715241
  77.4982123 105.9535284  47.6077488  78.8510410 105.2832562  47.7194130
  88.2425650 114.5299551  64.7413697  87.3552428 114.1925473  64.8640096
  88.8124201 113.7982582  64.9782463  69.8954797 110.8623643  58.0656749
  70.5825837 110.5485373  57.4777764  69.7402926 111.7665008  57.7924000
  74.6989519 105.7513840  62.4941772  74.6147708 105.1439509  61.7592182
  73.8772225 106.2422858  62.4951269  81.7726803 119.1901004  61.7074940
  81.6996975 119.9955975  62.2194245  81.3304196 119.3892969  60.8822962
  81.5616583 118.4272774  55.2177762  80.7784105 118.9694454  55.3115987
  82.2609328 118.9446753  55.6172003  84.8713233 104.2367403  57.8611967
  85.3681932 103.4837365  57.5413038  84.1000214 104.2731720  57.2955177
  92.7242990 109.9407769  59.5030259  92.7132867 110.8232484  59.1324192
  91.8560370 109.5879319  59.3084796  84.2325487 119.0887838  63.8633099
  84.9453459 119.7235302  63.7909001  83.7415515 119.1851704  63.0473101
  85.9543014 112.9939090  55.4350391  85.0199292 113.1140553  55.2655095
  86.1319682 112.0911557  55.1710401  81.4548202 106.3784786  57.5883652
  81.0845989 105.8255826  58.2764558  81.9507294 105.7742920  57.0358652
  89.3415565 108.8356410  55.9700425  89.8076017 109.6684401  55.8960728
  89.7923065 108.3701391  56.6745683  79.2837400 116.8382281  64.6838670
  79.9846860 117.4718764  64.8368064  78.8132515 117.1797013  63.9234309
  87.4091796 115.1800231  52.9686577  87.6851640 115.0656825  53.8780451
  86.5396295 114.7817716  52.9298750  87.3132228 101.2036997  60.0091326
  86.3995307 101.4341223  60.1773533  87.7425329 101.2875441  60.8605359
  87.0838686 109.3926889  62.5091220  86.4310136 109.6402796  61.8543673
  87.4619066 108.5791027  62.1753698  84.0445860 119.4286582  56.6119391
  84.2268255 118.6108238  57.0747143  84.8678846 119.6454274  56.1744281
  84.3788026 118.3554767  53.8734439  84.9075792 117.8447221  53.2604601
  84.6416245 118.0397297  54.7379972  83.1326259 110.1346700  68.9957257
  82.4566896 110.0340829  69.6659633  83.9553893 109.9785913  69.4593255
  74.8805118 116.3718636  61.6169773  75.4658555 115.6262324  61.7497677
  74.6829957 116.6822593  62.5006437  77.7343773 119.4069883  56.6332215
  77.0654149 119.8916011  56.1496255  77.5956643 119.6539104  57.5475594
  69.4722773 108.9424236  60.3374216  69.5106872 108.4087827  61.1311334
  68.9663066 108.4159442  59.7185193  81.8749042 121.4413627  63.2314873
  82.4267350 121.6045249  63.9963959  82.2155235 122.0318065  62.5594898
  76.8513535 103.7888777  63.8336758  76.9154862 104.6503608  63.4214156
  76.7880656 103.1762778  63.1009117  76.3265808 105.8611909  67.4809792
  76.9537847 105.4788987  68.0947317  75.4693727 105.6426111  67.8465485
  86.7259916 116.2674885  69.0863528  87.2699820 116.8804843  68.5918483
  86.1446761 116.8254463  69.6030541  73.1031351 107.6688338  53.4128147
  73.3984792 106.7599017  53.3595201  72.2019386 107.6476078  53.0909150
  85.0117429 119.3895603  60.2178556  84.8868569 118.5885342  59.7089501
  85.6696520 119.8841796  59.7292525  76.6325598 105.7444335  59.3955696
  75.9112183 106.3580303  59.2563169  77.4218853 106.2802100  59.3172342
  87.0752338 117.1904623  61.8458106  86.1282673 117.0709974  61.7736432
  87.4235111 116.3027121  61.9284367  79.4351911 103.0798762  65.6696348
  79.9586313 103.3261058  66.4322657  79.2164244 103.9118796  65.2499485
  74.8319192 105.3502436  53.5367472  74.5031898 104.4699815  53.3542578
  75.1858563 105.2950105  54.4243862  84.0798771 116.9857339  58.0462458
  83.9323733 116.0574046  58.2270028  84.9052265 117.0077430  57.5619533
  77.9461015 105.6375406  53.9042950  78.2857088 106.1661327  53.1821558
  78.3933136 105.9755812  54.6801517  87.6832893 117.8085898  59.1327331
  88.6079440 117.6028759  58.9951782  87.5148196 117.5602299  60.0416672
  80.6404456 104.0212457  63.3546018  80.3001276 103.2220270  63.7566698
  79.9343462 104.3214167  62.7822851  81.2920928 101.1061769  61.8073341
  82.1146997 100.6322247  61.6852231  81.5358991 101.8852253  62.3072027
  79.9329162 104.1350028  52.1036243  80.6537525 104.5131280  51.5999960
  79.3094467 104.8538904  52.2071221  84.0760285 104.8395176  53.0394575
  84.2923900 105.7219814  52.7383403  83.5954352 104.4481390  52.3100217
  78.8159507 107.7980890  59.6165320  78.6704087 108.1121193  60.5089601
  78.3384710 108.4165790  59.0636218  80.6755890 104.7883438  59.6646209
  80.6617458 103.8924531  59.3278507  81.3928318 104.7954101  60.2984495
  82.5282020 105.2220778  61.7099337  82.2699798 106.1437849  61.7083667
  81.9967061 104.8251212  62.3999801  87.4728209 118.3271565  54.4889422
  87.6465087 117.7617988  53.7363275  87.9657100 119.1272460  54.3068912
  73.2905169 110.3386234  62.5552981  72.7458637 111.1146042  62.6873255
  74.1684519 110.6857039  62.3972102  80.0792786 103.6697818  54.9333779
  80.2008697 102.7414464  55.1324667  79.7894828 103.6836504  54.0212095
  82.9483976 101.3552728  58.0700499  82.9705673 101.4192062  57.1152479
  83.3652035 100.5157237  58.2641005  93.3267600 111.0907988  56.1079722
  93.7698746 110.3415313  55.7098845  92.4494111 111.0818124  55.7253454
  88.4603382 117.6438329  51.5886320  89.1554286 118.2645022  51.8073635
  88.8026532 116.7933681  51.8638698  74.0771191 109.4656130  65.4483138
  73.3352927 109.6138766  66.0347768  73.7563935 109.7264396  64.5849887
  90.3594805 115.0938035  53.1173651  90.8846129 115.4325308  52.3922971
  90.2717157 114.1585050  52.9336786  82.0214853 119.0072109  65.2463528
  82.3301980 118.7621255  66.1186227  82.8190335 119.2118747  64.7582398
  82.0435465 121.1610018  57.4768904  81.6040456 120.6686397  58.1701761
  82.7943582 120.6182986  57.2360980  74.5227804 117.3521559  57.4793532
  75.3485824 117.0525331  57.0992176  74.1721856 116.5829182  57.9283321
  79.4909338 116.7048027  59.5491206  78.8689347 116.0418732  59.2493434
  80.1614204 116.7309159  58.8664854  72.7236409 115.2707886  58.4382466
  71.8868318 114.8430060  58.2566467  72.6960055 115.4640329  59.3753257
  79.5633865 105.1829815  69.1423712  79.6122021 106.0591938  68.7601482
  80.1056379 104.6407208  68.5695355  90.0488711 115.7270939  68.4224849
  89.2584254 115.7095077  67.8829348  89.8122065 116.2659232  69.1773886
  90.1686586 112.5763405  65.7357578  90.2184591 112.4113412  66.6773100
  90.0600509 111.7090664  65.3455458  79.0522844 115.2551951  53.0249667
  79.2010965 115.9387415  52.3716339  79.8589288 115.2357041  53.5399122
  87.4590348 108.5594333  67.0516884  88.3600211 108.4200798  66.7600882
  87.5338323 108.7248788  67.9915062  81.7933153 105.9361188  65.8970071
  80.9236463 106.2294754  65.6252659  82.0292634 106.5201633  66.6177334
  91.6704783 114.9960346  65.9799599  91.3789591 115.3590327  66.8163060
  91.0576914 114.2827355  65.8012931  92.8700465 112.5613226  58.5002169
  93.7047356 113.0003030  58.6639730  93.0059594 112.0851879  57.6810415
  89.9191971 110.1192961  64.4479657  90.3946092 110.3120607  63.6398509
  88.9957536 110.1752147  64.2023041  76.8075477 111.2817128  54.0310735
  76.5621519 110.3779458  54.2290946  76.9771392 111.2834279  53.0890213
  84.4972187 102.1540805  63.4135491  85.0154131 102.8901832  63.0881980
  84.1427320 102.4604798  64.2482250  76.0771125 107.0145486  51.5296897
  75.3840370 107.0889841  50.8736933  75.8322877 106.2505830  52.0518414
  84.7484781  98.5741087  58.9336388  85.0286535  97.9064276  59.5596814
  85.5335388  98.7670183  58.4211051  82.5518250 117.7500081  50.4961414
  81.9792217 118.3690268  50.0431886  83.1251044 118.2999443  51.0301336
  88.6193640 106.9958721  62.6807963  89.5711063 107.0956819  62.7020187
  88.4497090 106.2036990  63.1906047  86.6408019 104.0814304  62.8667364
  86.0457951 104.3619317  62.1713852  86.3557716 104.5708205  63.6384105
  85.7715510 118.0337231  51.6269996  86.7046183 117.9682793  51.8302872
  85.6838723 118.8693498  51.1684529  88.4003526 117.3503102  48.5873944
  88.3217158 117.0162965  49.4809702  89.2213193 117.8424869  48.5865416
  91.0981718 110.2164841  61.7950262  91.0658038 109.2780842  61.9809946
  91.7082341 110.2948878  61.0616087  82.9365048 109.0860894  47.8377466
  83.8824153 108.9567102  47.9065884  82.5579293 108.3475556  48.3146895
  91.2476206 107.0075884  61.8408546  90.7315255 106.2234341  61.6538474
  92.1316155 106.6794601  62.0055065  88.9086933 100.7516900  57.8004358
  88.7111754 100.4431988  58.6847690  89.5186639 101.4778539  57.9302288
  96.9158267 111.2780848  60.9356299  97.6461656 111.0166136  61.4964002
  96.3065213 110.5409570  60.9758367  94.9973565 109.4188710  61.5330750
  94.2706728 109.2844675  60.9247242  94.5820851 109.7265539  62.3387468
  82.8203741 113.1378640  69.2978123  83.7406750 113.3157239  69.4918170
  82.7853324 112.1934685  69.1457823  81.1207966 107.0110870  47.7732352
  80.2139421 106.7143983  47.8495065  81.3983947 106.7140688  46.9066638
  72.0385906 108.3317234  58.2231398  71.7188690 107.4782542  57.9305772
  71.4919334 108.5465812  58.9789365  75.8165814 111.0479675  61.9400905
  76.0351823 111.9796782  61.9588938  76.2291587 110.6887649  62.7255708
  82.7370031 101.5547760  53.9276593  81.9270760 101.2094845  54.3031839
  83.4254448 101.2455304  54.5164204  84.6660580 100.6325807  55.5500890
  85.2191618 101.0521260  56.2090913  84.9030666  99.7061555  55.5923846
  80.6893679 106.6212880  71.3303653  80.5890406 107.5707237  71.2615745
  80.4715221 106.2931119  70.4579724  79.8906750 103.8697805  47.9144331
  80.7525914 104.1952704  48.1740148  80.0757094 103.0829301  47.4017397
  71.9074166 111.9520145  60.1924520  71.2137637 111.5374098  59.6794474
  72.6547157 111.9940682  59.5957939  88.0439387 102.7426332  55.0579554
  87.4638056 103.4011136  54.6757606  87.7775319 101.9203677  54.6466971
  86.4942953 102.1431390  57.2600874  86.9942731 102.2547924  56.4515193
  87.1378561 101.8392442  57.9001683  80.5524949 110.0510019  70.1468715
  80.0692031 110.8510379  70.3532604  80.6385888 110.0617964  69.1936159
  73.8210909 111.8838399  58.0690534  73.7981597 111.9826086  57.1172418
  74.1311545 112.7303550  58.3907701  76.4798286 113.9414554  62.1837149
  77.4341540 113.9098496  62.1167080  76.2810810 113.4805178  62.9987375
  77.0697669 112.5115670  64.7507947  77.8890558 113.0059749  64.7742784
  77.3434476 111.5947638  64.7225514  86.8264265 104.9026422  54.1135902
  85.9390120 105.1876073  53.8956097  87.2418254 104.7420186  53.2663179
  90.1778801 104.9272943  57.8290241  90.9539191 105.4169396  58.1014858
  89.4526935 105.3530997  58.2862111  92.6151360 105.6400563  58.8864182
  93.2095850 105.3996298  58.1757490  92.6877943 104.9207693  59.5137718
  74.8348515 119.4834173  59.2007347  74.7002983 118.7234574  58.6345345
  74.4180577 120.2075073  58.7336136  85.9707478 114.6671097  48.2083922
  86.6743328 114.8721099  48.8241578  85.2470127 115.2347859  48.4733006
  86.8005289 110.4180958  54.3286192  86.7440490 110.8749510  53.4893825
  87.3533631 109.6571643  54.1509035  90.6110094 106.2070690  55.1536312
  90.3547029 105.8067326  55.9844519  89.9862962 106.9214484  55.0286451
  94.9222432 108.9466763  57.6607603  94.3621990 109.0159953  58.4339165
  94.3165936 108.7707748  56.9407099  77.9917641 120.3803490  59.4125789
  77.8750025 121.3248923  59.3104480  77.1710087 120.0777052  59.8011589
  87.8794176 115.1053626  50.2582382  88.7139780 114.6734825  50.0759857
  87.7178519 114.9335640  51.1859277  87.5340068 111.6085740  51.6238721
  87.4788872 111.4430011  50.6827166  86.9086123 112.3161772  51.7800911
  72.3232583 106.8453804  65.4500144  72.9691446 106.3352758  65.9387369
  72.1149734 107.5822486  66.0243569  84.8485975 113.9134651  70.9492284
  85.7177135 114.0875304  70.5878919  84.3692726 114.7329068  70.8268014
  80.8436193 101.1093849  51.2024040  80.8314863 102.0535688  51.3592311
  81.7359615 100.9263994  50.9083501  79.0172155 121.0331752  62.6281718
  79.9199402 121.0655363  62.9448213  78.7909525 120.1032203  62.6428054
  80.7725757 119.7862739  59.2891796  79.8221388 119.7864601  59.1756169
  81.0758243 119.0395473  58.7727831  84.6588313  97.7036625  55.4569977
  83.8920709  97.1495112  55.6026659  85.0699018  97.7758494  56.3184128
  76.6630074 103.9921421  69.5475158  77.5261535 103.6358226  69.7578482
  76.0895484 103.6535316  70.2350562  96.5078451 125.6223277  60.3537559
  97.1456861 125.5030025  59.6500899  96.3899294 126.5704121  60.4125511
  93.3168157 125.5750705  60.2899084  92.9786669 125.4591770  59.4019618
  94.1857925 125.1741870  60.2700090  89.1754973 127.4286182  56.2795975
  88.6119838 127.3376119  55.5112262  89.0607368 126.6086086  56.7598467
  93.7987940 126.7285557  66.2485289  93.7876581 126.3338355  65.3765793
  93.9608579 125.9951630  66.8419061  86.7219405 128.9237373  59.1180195
  87.5140697 128.5828198  58.7026494  86.9616055 129.0332348  60.0382348
  94.7554531 131.0957150  51.5910439  94.1042511 131.6811230  51.2044453
  95.5498894 131.6263344  51.6505477  88.6810159 128.1846287  51.9897574
  89.4541035 127.6375274  51.8510450  89.0335557 129.0490536  52.2012035
  90.5195201 129.5122669  65.1964473  90.2285067 130.4168300  65.0811139
  91.1552186 129.5539197  65.9108543  91.4451408 126.8899517  61.7865833
  92.0414980 126.6655540  61.0722796  91.5026380 126.1484263  62.3891281
  91.0176436 124.3438953  49.6216024  91.2701957 123.8220474  48.8599487
  90.0800995 124.1805098  49.7242707  96.0619719 123.3474731  57.4290767
  96.8482808 122.9294154  57.0781184  96.3258424 124.2520823  57.5972415
  96.2329797 128.7847581  52.1279424  95.5975630 128.8582208  52.8400328
  95.9027203 129.3741180  51.4498503 101.4628146 123.2849964  58.3323745
 102.1953318 122.7149181  58.5661575 100.7067502 122.8971565  58.7730251
  90.7372725 126.2467059  51.8240399  90.6208983 125.5711962  52.4921483
  90.8474985 125.7599433  51.0072552  93.0804266 125.7077206  55.5287088
  92.7162473 125.1807827  56.2400009  93.9371382 125.3175675  55.3553573
  98.9853567 116.9971538  62.7918354  98.6536891 117.8666949  62.5679569
  98.3899180 116.6807822  63.4712384  92.7209753 120.7367106  50.5248436
  92.8884155 121.6047342  50.8918907  92.5306922 120.8994387  49.6009726
  95.4785086 129.1984084  62.1914267  95.1785809 130.1009123  62.0830074
  95.1336146 128.9316268  63.0435420  88.9297568 125.6497881  58.2250971
  88.0048064 125.5174095  58.4328663  89.1781981 126.4292101  58.7220914
  98.8782230 121.7166625  59.8711704  97.9699107 121.6482033  59.5770465
  98.8269826 122.1938570  60.6993530  92.6998974 123.1924763  51.5095103
  92.5798599 123.6381814  52.3480584  92.0051562 123.5410081  50.9508641
  86.2906379 125.2931155  59.0594760  86.4198760 125.5465634  59.9734172
  85.6103830 125.8858863  58.7399415  90.4605866 135.9628405  55.1585234
  90.3829896 136.9136230  55.2373715  89.8567510 135.6174277  55.8160161
  92.9523096 123.1356270  67.8146601  92.1756430 123.6950190  67.8049466
  93.5913659 123.6213053  68.3361471 100.7443876 119.9183063  61.6489578
 100.1018257 120.2115596  61.0029373 100.2398805 119.8035983  62.4542775
  98.3984040 123.6646236  52.3375437  99.3101896 123.8973623  52.1623135
  97.8893687 124.2483280  51.7750516  91.2069468 125.9441724  67.3764568
  91.9484152 126.4826768  67.0999392  90.5006454 126.5708012  67.5336120
  96.6824808 128.0870864  65.9736730  97.0908164 127.6453275  65.2291362
  95.9602069 127.5123492  66.2270923  93.0355878 123.0243471  63.3470287
  93.8817073 123.4482884  63.4904936  92.9754515 122.3677095  64.0408850
  97.0053622 128.6472055  59.7289019  96.3762485 128.8117769  59.0265087
  96.6179284 129.0613664  60.4999983 100.8842854 129.5826493  57.0833382
 100.1993892 129.9625394  56.5330416 100.9686704 130.1921819  57.8165330
  96.1855323 120.6847839  65.0051460  95.9416255 121.4389900  64.4685736
  96.4615254 121.0633187  65.8398707  98.1393786 127.2286452  63.6828726
  98.3510681 127.8718211  63.0063107  98.0923534 126.3948768  63.2150656
  95.7420015 119.8404272  60.5865298  94.8804494 120.1385526  60.8782036
  95.7682450 120.0574671  59.6546331  92.5581584 128.3846463  56.9939104
  93.0219930 128.6634166  56.2043726  92.2938382 127.4829907  56.8112195
  89.4505665 127.9317944  59.9318867  90.0207022 128.3605213  59.2936352
  90.0413777 127.6500529  60.6303053  91.4950470 124.5069615  53.8028669
  92.1974514 124.9590659  54.2702595  91.1631099 123.8653434  54.4308562
  89.9430832 123.0981372  68.1779878  89.3129492 123.7797653  68.4115275
  89.8366920 122.9864453  67.2333017  85.2375804 122.7653168  59.1045803
  84.4474858 123.0210696  58.6285913  85.7287052 123.5801506  59.2097843
  99.2539614 130.1058407  61.8551083 100.0757058 129.7038594  61.5733765
  99.2502017 130.0026641  62.8067199  87.1890550 123.1297747  56.0629279
  86.3921713 123.2416441  56.5812775  86.9616142 123.4684399  55.1970170
  93.0196217 129.6542450  64.0111794  93.0840650 130.1162858  64.8469966
  92.3107141 129.0239815  64.1394104  83.5213507 123.0183658  61.5360793
  83.7721546 123.9030668  61.8018369  84.0573056 122.8388260  60.7635885
 107.3445607 126.4497155  58.2036055 106.5909315 125.8804554  58.0480059
 107.4793148 126.4159820  59.1506690  92.7344235 131.3210558  53.8790774
  92.5989910 132.1662093  54.3075622  93.2754047 131.5229835  53.1156708
  89.2211575 117.4002138  70.5405129  88.8278520 116.8468336  71.2152774
  90.0377715 117.7112716  70.9311647  86.1873632 128.8385996  54.4518699
  86.6998153 129.6329246  54.6024264  86.8396345 128.1412286  54.3852301
  87.9968517 131.9551752  56.5341452  88.1735145 132.8769717  56.3462436
  88.7925351 131.6410171  56.9635832  92.1379536 118.8160017  68.1325386
  92.8789249 119.4167170  68.0529848  92.3697458 118.0737654  67.5743429
  87.2820874 124.0016384  66.4103616  87.1674389 123.1001641  66.7110715
  86.4265391 124.2480081  66.0588432  94.3612711 131.9434124  68.0091116
  93.9176566 131.1570503  67.6912021  95.0229925 132.1313275  67.3435007
  89.1199833 133.4729926  62.5351795  89.6707258 133.3446989  61.7628789
  88.2811308 133.7724815  62.1846688  96.4593949 132.2236924  66.0372518
  96.4412425 133.0445805  65.5452787  97.3813869 132.0990999  66.2622659
  92.9167004 129.7381054  66.8796026  93.4495340 128.9769342  66.6495334
  92.3881085 129.4454705  67.6220180  96.0836699 114.8441120  62.4089668
  95.7400968 115.7342761  62.3328778  96.4515661 114.6542777  61.5459253
  84.1522549 127.1674650  55.2278270  84.9897771 127.5771658  55.0111978
  84.3300817 126.2274092  55.1978464  96.0486981 124.8349731  50.9162103
  95.5333605 125.6054335  51.1550490  95.7764290 124.1614867  51.5395164
  93.6334092 119.6799432  55.9747341  92.7775689 119.2906282  55.7952980
  94.0461044 119.7591392  55.1147127  95.1633239 117.2145775  60.3738901
  94.6598034 117.1775910  59.5606706  95.4563846 118.1238518  60.4335558
  91.4076125 117.2984505  59.3805083  92.2729122 117.1027313  59.0210972
  91.4753634 117.0694856  60.3074439 101.0221255 127.5882085  52.8515276
 100.2450698 127.2493245  52.4070438 101.7012736 127.5934709  52.1770241
  95.8373284 122.7076823  52.7421884  95.5323420 123.0222972  53.5932027
  96.7903727 122.7858243  52.7849217  94.2819716 128.8667046  54.3914838
  93.7541078 128.1319806  54.0788075  93.7807219 129.6441723  54.1454806
  99.2612562 127.0616067  59.5081884  98.6036237 127.7515328  59.5962013
 100.0652961 127.4512499  59.8515871  89.0138444 119.5286712  56.7521449
  89.5882196 119.3061894  56.0194642  89.6009426 119.5975407  57.5050051
  98.0718021 125.4160439  57.5585826  98.5849903 126.0490431  58.0607536
  98.7219245 124.8161635  57.1929186  89.3408031 121.5591173  50.7717335
  88.5045343 121.8965860  51.0926609  89.2012801 121.4240153  49.8344472
  91.3161112 116.4027961  55.4796519  90.6625524 116.0876979  54.8553134
  91.2741586 115.7803702  56.2056342  92.4272316 126.6847256  47.3949811
  91.5199378 126.4536510  47.5940960  92.9243348 125.8884876  47.5823793
  95.3340395 135.3944764  50.3146497  94.6602094 135.6976460  50.9231455
  95.7206217 136.1973844  49.9651954  94.5498852 122.8909895  59.8044167
  93.6321413 123.1124842  59.6465855  94.9658996 122.9656205  58.9455874
  95.3333900 124.2901311  54.9346847  96.0805719 124.8022708  54.6253969
  95.6025489 123.9685363  55.7951240  93.6060550 126.7859851  51.9173801
  92.6971769 126.5018884  52.0146271  93.6355634 127.2058930  51.0577108
  98.8379817 130.3966441  55.6864969  98.3842144 129.5557351  55.7430159
  98.2073784 131.0327839  56.0239749  97.7812737 121.3258427  56.9165636
  97.0435494 120.8135813  57.2475879  98.0339510 120.8858808  56.1048913
  97.2812757 132.2342937  56.6214787  97.5735731 132.7947995  55.9027152
  97.7911377 132.5271498  57.3767946  97.8824364 114.1034679  57.5107405
  98.1883241 113.2432042  57.2233320  98.6076969 114.6952299  57.3106399
  84.1748720 124.5065365  55.8989003  83.9773120 123.9134726  55.1740070
  83.6195384 124.2017576  56.6164942  92.1545444 124.3988472  58.0183596
  92.2094054 123.4462308  57.9426073  91.3436646 124.5547911  58.5024895
  93.3036638 128.3268595  49.2561880  92.8656068 127.6104454  48.7967517
  94.0447079 128.5544710  48.6946971  90.0937804 123.0165532  55.7773975
  89.2805669 123.3159702  56.1839167  90.5896798 122.6221220  56.4948458
  92.2446382 133.0123289  57.7108240  92.2022561 133.2384135  56.7816772
  93.1609081 132.7786663  57.8594041  95.6912016 123.4807356  64.6088869
  96.0461403 123.7078829  65.4683335  96.3384147 123.8125733  63.9866124
 101.4209752 126.6025792  55.3138198 101.2827651 126.7927388  54.3859387
 101.0645971 127.3645175  55.7706249  89.5851879 120.5883887  61.3935210
  90.2251258 120.4472646  60.6958174  88.7529409 120.3018401  61.0173812
 101.4479132 128.6702319  60.3249470 101.8815639 128.5777608  61.1732524
 102.1610713 128.6459819  59.6869486  90.3612182 129.8886318  57.5070203
  91.1552781 129.3936638  57.3052778  89.6503875 129.3604181  57.1437908
  95.1807027 132.2704413  61.8582570  95.2344049 132.8395349  62.6260286
  94.3121808 132.4406298  61.4936607  86.6694946 124.0329399  53.5829955
  85.7392534 123.9713855  53.7999917  86.7652418 123.5105352  52.7866597
  86.5880495 120.5584212  56.1708197  86.8487312 121.4729545  56.0617357
  87.4097667 120.0908655  56.3204810  88.0605420 121.9721969  63.3407022
  88.7328474 121.7639331  62.6919670  87.2335207 121.7744055  62.9012254
 102.3094682 128.7126020  62.8582355 102.5030572 129.6171830  63.1041630
 102.2095300 128.2533439  63.6920940  93.9630992 118.5983910  65.3572682
  93.3158907 119.2973860  65.2637159  94.7332008 119.0320054  65.7248931
  97.3709790 128.8632762  68.4323236  97.2195297 128.6343314  67.5153319
  97.3614470 129.8203364  68.4454581  94.1395127 126.4364675  63.4169502
  95.0687187 126.5875835  63.2438469  93.7186157 126.5248696  62.5618149
  92.9383458 130.4615340  61.1868040  92.7994544 130.0934124  62.0593978
  92.1498055 130.9762979  61.0151998  93.5331610 135.5624436  52.5293576
  93.7083366 135.0912479  53.3439199  92.8464398 136.1890202  52.7574837
  94.4888674 129.8396942  58.5756878  94.1538506 129.7997712  59.4714527
  93.9892619 129.1741658  58.1027288  88.4632918 125.2464572  64.1009459
  88.3252716 124.5144811  64.7020998  89.3737841 125.1573472  63.8193646
  97.4247865 127.1852977  48.8493937  96.8077036 126.4599805  48.7526990
  96.9564354 127.9462337  48.5061011  91.0915218 124.9584532  63.5893138
  91.8014837 124.3177724  63.5479757  91.0484526 125.2097426  64.5119319
  99.0801997 131.8951885  66.5099718  99.0214543 131.2111105  65.8430301
  99.4821515 132.6370875  66.0580344  89.8044152 121.9449749  65.4088778
  89.2681509 121.4940488  66.0610374  89.2160861 122.0795658  64.6659242
  88.0992696 138.7113799  59.3033436  88.3389294 139.3432323  59.9812455
  87.2561892 138.3601839  59.5898796  89.2146411 121.4038401  47.9715241
  88.3375878 121.2827202  47.6077488  89.6904164 120.6124479  47.7194130
  99.0819404 129.8591469  64.7413697  98.1946183 129.5217391  64.8640096
  99.6517955 129.1274500  64.9782463  80.7348551 126.1915561  58.0656749
  81.4219591 125.8777291  57.4777764  80.5796680 127.0956925  57.7924000
  85.5383273 121.0805757  62.4941772  85.4541462 120.4731427  61.7592182
  84.7165980 121.5714776  62.4951269  92.6120558 134.5192921  61.7074940
  92.5390729 135.3247893  62.2194245  92.1697951 134.7184887  60.8822962
  92.4010337 133.7564691  55.2177762  91.6177859 134.2986371  55.3115987
  93.1003082 134.2738671  55.6172003  95.7106987 119.5659321  57.8611967
  96.2075687 118.8129283  57.5413038  94.9393969 119.6023637  57.2955177
 103.5636745 125.2699686  59.5030259 103.5526621 126.1524402  59.1324192
 102.6954124 124.9171237  59.3084796  95.0719241 134.4179755  63.8633099
  95.7847213 135.0527220  63.7909001  94.5809270 134.5143621  63.0473101
  96.7936768 128.3231008  55.4350391  95.8593047 128.4432470  55.2655095
  96.9713437 127.4203475  55.1710401  92.2941956 121.7076704  57.5883652
  91.9239744 121.1547744  58.2764558  92.7901049 121.1034837  57.0358652
 100.1809319 124.1648327  55.9700425 100.6469772 124.9976319  55.8960728
 100.6316820 123.6993309  56.6745683  90.1231155 132.1674199  64.6838670
  90.8240614 132.8010682  64.8368064  89.6526270 132.5088930  63.9234309
  98.2485550 130.5092149  52.9686577  98.5245394 130.3948743  53.8780451
  97.3790049 130.1109633  52.9298750  98.1525982 116.5328914  60.0091326
  97.2389062 116.7633141  60.1773533  98.5819084 116.6167358  60.8605359
  97.9232441 124.7218806  62.5091220  97.2703891 124.9694714  61.8543673
  98.3012821 123.9082944  62.1753698  94.8839615 134.7578499  56.6119391
  95.0662009 133.9400155  57.0747143  95.7072601 134.9746192  56.1744281
  95.2181780 133.6846684  53.8734439  95.7469546 133.1739139  53.2604601
  95.4810000 133.3689215  54.7379972  93.9720014 125.4638617  68.9957257
  93.2960651 125.3632747  69.6659633  94.7947648 125.3077831  69.4593255
  85.7198873 131.7010554  61.6169773  86.3052310 130.9554242  61.7497677
  85.5223711 132.0114510  62.5006437  88.5737528 134.7361801  56.6332215
  87.9047903 135.2207929  56.1496255  88.4350398 134.9831022  57.5475594
  80.3116527 124.2716154  60.3374216  80.3500627 123.7379745  61.1311334
  79.8056820 123.7451360  59.7185193  92.7142797 136.7705545  63.2314873
  93.2661105 136.9337166  63.9963959  93.0548990 137.3609983  62.5594898
  87.6907290 119.1180694  63.8336758  87.7548616 119.9795525  63.4214156
  87.6274410 118.5054696  63.1009117  87.1659562 121.1903827  67.4809792
  87.7931601 120.8080904  68.0947317  86.3087481 120.9718029  67.8465485
  97.5653671 131.5966802  69.0863528  98.1093575 132.2096760  68.5918483
  96.9840516 132.1546381  69.6030541  83.9425105 122.9980256  53.4128147
  84.2378546 122.0890935  53.3595201  83.0413141 122.9767996  53.0909150
  95.8511184 134.7187520  60.2178556  95.7262323 133.9177260  59.7089501
  96.5090275 135.2133714  59.7292525  87.4719352 121.0736253  59.3955696
  86.7505938 121.6872220  59.2563169  88.2612608 121.6094018  59.3172342
  97.9146092 132.5196540  61.8458106  96.9676428 132.4001891  61.7736432
  98.2628865 131.6319038  61.9284367  90.2745666 118.4090679  65.6696348
  90.7980067 118.6552976  66.4322657  90.0557999 119.2410714  65.2499485
  85.6712947 120.6794354  53.5367472  85.3425653 119.7991733  53.3542578
  86.0252317 120.6242023  54.4243862  94.9192525 132.3149257  58.0462458
  94.7717488 131.3865964  58.2270028  95.7446019 132.3369347  57.5619533
  88.7854770 120.9667324  53.9042950  89.1250842 121.4953245  53.1821558
  89.2326890 121.3047730  54.6801517  98.5226647 133.1377815  59.1327331
  99.4473195 132.9320677  58.9951782  98.3541951 132.8894216  60.0416672
  91.4798211 119.3504374  63.3546018  91.1395031 118.5512187  63.7566698
  90.7737217 119.6506085  62.7822851  92.1314682 116.4353687  61.8073341
  92.9540752 115.9614165  61.6852231  92.3752746 117.2144171  62.3072027
  90.7722917 119.4641945  52.1036243  91.4931279 119.8423198  51.5999960
  90.1488221 120.1830822  52.2071221  94.9154040 120.1687094  53.0394575
  95.1317654 121.0511732  52.7383403  94.4348107 119.7773308  52.3100217
  89.6553261 123.1272807  59.6165320  89.5097842 123.4413110  60.5089601
  89.1778465 123.7457708  59.0636218  91.5149644 120.1175355  59.6646209
  91.5011213 119.2216449  59.3278507  92.2322072 120.1246019  60.2984495
  93.3675775 120.5512696  61.7099337  93.1093553 121.4729766  61.7083667
  92.8360815 120.1543130  62.3999801  98.3121964 133.6563483  54.4889422
  98.4858841 133.0909905  53.7363275  98.8050855 134.4564378  54.3068912
  84.1298923 125.6678152  62.5552981  83.5852391 126.4437960  62.6873255
  85.0078273 126.0148956  62.3972102  90.9186540 118.9989736  54.9333779
  91.0402451 118.0706382  55.1324667  90.6288582 119.0128422  54.0212095
  93.7877730 116.6844646  58.0700499  93.8099427 116.7483979  57.1152479
  94.2045789 115.8449155  58.2641005 104.1661355 126.4199906  56.1079722
 104.6092501 125.6707231  55.7098845 103.2887865 126.4110042  55.7253454
  99.2997136 132.9730247  51.5886320  99.9948041 133.5936940  51.8073635
  99.6420286 132.1225598  51.8638698  84.9164945 124.7948048  65.4483138
  84.1746681 124.9430683  66.0347768  84.5957689 125.0556314  64.5849887
 101.1988559 130.4229953  53.1173651 101.7239883 130.7617225  52.3922971
 101.1110912 129.4876968  52.9336786  92.8608608 134.3364026  65.2463528
  93.1695734 134.0913173  66.1186227  93.6584090 134.5410665  64.7582398
  92.8829220 136.4901936  57.4768904  92.4434210 135.9978315  58.1701761
  93.6337337 135.9474904  57.2360980  85.3621559 132.6813477  57.4793532
  86.1879579 132.3817249  57.0992176  85.0115611 131.9121099  57.9283321
  90.3303092 132.0339945  59.5491206  89.7083101 131.3710650  59.2493434
  91.0007959 132.0601077  58.8664854  83.5630164 130.5999803  58.4382466
  82.7262072 130.1721978  58.2566467  83.5353809 130.7932247  59.3753257
  90.4027620 120.5121733  69.1423712  90.4515775 121.3883856  68.7601482
  90.9450134 119.9699126  68.5695355 100.8882465 131.0562856  68.4224849
 100.0978009 131.0386995  67.8829348 100.6515820 131.5951150  69.1773886
 101.0080340 127.9055323  65.7357578 101.0578345 127.7405330  66.6773100
 100.8994264 127.0382582  65.3455458  89.8916599 130.5843868  53.0249667
  90.0404719 131.2679333  52.3716339  90.6983042 130.5648958  53.5399122
  98.2984103 123.8886251  67.0516884  99.1993965 123.7492716  66.7600882
  98.3732077 124.0540706  67.9915062  92.6326908 121.2653105  65.8970071
  91.7630217 121.5586671  65.6252659  92.8686388 121.8493550  66.6177334
 102.5098537 130.3252264  65.9799599 102.2183345 130.6882245  66.8163060
 101.8970668 129.6119272  65.8012931 103.7094219 127.8905144  58.5002169
 104.5441111 128.3294948  58.6639730 103.8453348 127.4143797  57.6810415
 100.7585725 125.4484879  64.4479657 101.2339847 125.6412525  63.6398509
  99.8351291 125.5044065  64.2023041  87.6469232 126.6109046  54.0310735
  87.4015274 125.7071376  54.2290946  87.8165146 126.6126196  53.0890213
  95.3365942 117.4832722  63.4135491  95.8547886 118.2193749  63.0881980
  94.9821075 117.7896716  64.2482250  86.9164879 122.3437404  51.5296897
  86.2234124 122.4181759  50.8736933  86.6716631 121.5797747  52.0518414
  95.5878536 113.9033005  58.9336388  95.8680290 113.2356194  59.5596814
  96.3729143 114.0962101  58.4211051  93.3912004 133.0791999  50.4961414
  92.8185972 133.6982186  50.0431886  93.9644798 133.6291360  51.0301336
  99.4587394 122.3250639  62.6807963 100.4104817 122.4248737  62.7020187
  99.2890845 121.5328907  63.1906047  97.4801774 119.4106222  62.8667364
  96.8851706 119.6911235  62.1713852  97.1951471 119.9000123  63.6384105
  96.6109264 133.3629149  51.6269996  97.5439937 133.2974711  51.8302872
  96.5232477 134.1985416  51.1684529  99.2397281 132.6795019  48.5873944
  99.1610912 132.3454883  49.4809702 100.0606948 133.1716787  48.5865416
 101.9375472 125.5456759  61.7950262 101.9051792 124.6072759  61.9809946
 102.5476096 125.6240795  61.0616087  93.7758803 124.4152812  47.8377466
  94.7217908 124.2859020  47.9065884  93.3973048 123.6767473  48.3146895
 102.0869961 122.3367802  61.8408546 101.5709009 121.5526259  61.6538474
 102.9709909 122.0086519  62.0055065  99.7480688 116.0808818  57.8004358
  99.5505509 115.7723906  58.6847690 100.3580393 116.8070456  57.9302288
 107.7552022 126.6072765  60.9356299 108.4855410 126.3458054  61.4964002
 107.1458967 125.8701487  60.9758367 105.8367319 124.7480628  61.5330750
 105.1100483 124.6136593  60.9247242 105.4214606 125.0557457  62.3387468
  93.6597496 128.4670558  69.2978123  94.5800505 128.6449157  69.4918170
  93.6247079 127.5226603  69.1457823  91.9601720 122.3402788  47.7732352
  91.0533176 122.0435901  47.8495065  92.2377701 122.0432606  46.9066638
  82.8779661 123.6609151  58.2231398  82.5582445 122.8074460  57.9305772
  82.3313089 123.8757729  58.9789365  86.6559568 126.3771592  61.9400905
  86.8745578 127.3088700  61.9588938  87.0685342 126.0179567  62.7255708
  93.5763786 116.8839678  53.9276593  92.7664514 116.5386763  54.3031839
  94.2648203 116.5747221  54.5164204  95.5054334 115.9617724  55.5500890
  96.0585373 116.3813178  56.2090913  95.7424421 115.0353473  55.5923846
  91.5287433 121.9504798  71.3303653  91.4284160 122.8999155  71.2615745
  91.3108975 121.6223037  70.4579724  90.7300505 119.1989723  47.9144331
  91.5919669 119.5244621  48.1740148  90.9150849 118.4121219  47.4017397
  82.7467921 127.2812063  60.1924520  82.0531392 126.8666016  59.6794474
  83.4940912 127.3232599  59.5957939  98.8833141 118.0718250  55.0579554
  98.3031810 118.7303054  54.6757606  98.6169074 117.2495594  54.6466971
  97.3336708 117.4723307  57.2600874  97.8336486 117.5839842  56.4515193
  97.9772316 117.1684360  57.9001683  91.3918703 125.3801937  70.1468715
  90.9085785 126.1802297  70.3532604  91.4779642 125.3909882  69.1936159
  84.6604663 127.2130317  58.0690534  84.6375351 127.3118004  57.1172418
  84.9705300 128.0595467  58.3907701  87.3192041 129.2706472  62.1837149
  88.2735294 129.2390414  62.1167080  87.1204565 128.8097095  62.9987375
  87.9091423 127.8407588  64.7507947  88.7284312 128.3351666  64.7742784
  88.1828231 126.9239556  64.7225514  97.6658019 120.2318340  54.1135902
  96.7783874 120.5167991  53.8956097  98.0812008 120.0712103  53.2663179
 101.0172555 120.2564861  57.8290241 101.7932946 120.7461313  58.1014858
 100.2920690 120.6822915  58.2862111 103.4545114 120.9692480  58.8864182
 104.0489605 120.7288216  58.1757490 103.5271698 120.2499611  59.5137718
  85.6742270 134.8126091  59.2007347  85.5396738 134.0526492  58.6345345
  85.2574332 135.5366991  58.7336136  96.8101233 129.9963015  48.2083922
  97.5137083 130.2013017  48.8241578  96.0863881 130.5639777  48.4733006
  97.6399043 125.7472876  54.3286192  97.5834244 126.2041427  53.4893825
  98.1927385 124.9863561  54.1509035 101.4503849 121.5362608  55.1536312
 101.1940783 121.1359243  55.9844519 100.8256717 122.2506402  55.0286451
 105.7616187 124.2758681  57.6607603 105.2015745 124.3451870  58.4339165
 105.1559690 124.0999666  56.9407099  88.8311396 135.7095408  59.4125789
  88.7143780 136.6540841  59.3104480  88.0103842 135.4068970  59.8011589
  98.7187930 130.4345544  50.2582382  99.5533534 130.0026742  50.0759857
  98.5572273 130.2627558  51.1859277  98.3733822 126.9377657  51.6238721
  98.3182626 126.7721929  50.6827166  97.7479878 127.6453690  51.7800911
  83.1626337 122.1745722  65.4500144  83.8085201 121.6644676  65.9387369
  82.9543488 122.9114403  66.0243569  95.6879729 129.2426569  70.9492284
  96.5570889 129.4167221  70.5878919  95.2086481 130.0620986  70.8268014
  91.6829948 116.4385766  51.2024040  91.6708618 117.3827606  51.3592311
  92.5753370 116.2555912  50.9083501  89.8565910 136.3623670  62.6281718
  90.7593156 136.3947280  62.9448213  89.6303280 135.4324121  62.6428054
  91.6119512 135.1154657  59.2891796  90.6615143 135.1156518  59.1756169
  91.9151998 134.3687391  58.7727831  95.4982067 113.0328543  55.4569977
  94.7314463 112.4787030  55.6026659  95.9092772 113.1050412  56.3184128
  87.5023828 119.3213339  69.5475158  88.3655290 118.9650143  69.7578482
  86.9289239 118.9827233  70.2350562 107.3472205 140.9515195  60.3537559
 107.9850615 140.8321942  59.6500899 107.2293048 141.8996039  60.4125511
 104.1561912 140.9042623  60.2899084 103.8180423 140.7883688  59.4019618
 105.0251680 140.5033788  60.2700090 100.0148727 142.7578099  56.2795975
  99.4513592 142.6668036  55.5112262  99.9001122 141.9378004  56.7598467
 104.6381694 142.0577475  66.2485289 104.6270335 141.6630273  65.3765793
 104.8002334 141.3243547  66.8419061  97.5613159 144.2529291  59.1180195
  98.3534451 143.9120116  58.7026494  97.8009809 144.3624266  60.0382348
 105.5948286 146.4249067  51.5910439 104.9436266 147.0103148  51.2044453
 106.3892649 146.9555262  51.6505477  99.5203913 143.5138204  51.9897574
 100.2934789 142.9667191  51.8510450  99.8729312 144.3782454  52.2012035
 101.3588956 144.8414587  65.1964473 101.0678822 145.7460217  65.0811139
 101.9945940 144.8831114  65.9108543 102.2845162 142.2191435  61.7865833
 102.8808735 141.9947458  61.0722796 102.3420134 141.4776181  62.3891281
 101.8570191 139.6730870  49.6216024 102.1095712 139.1512392  48.8599487
 100.9194750 139.5097016  49.7242707 106.9013474 138.6766649  57.4290767
 107.6876563 138.2586072  57.0781184 107.1652178 139.5812741  57.5972415
 107.0723551 144.1139499  52.1279424 106.4369384 144.1874126  52.8400328
 106.7420957 144.7033098  51.4498503 112.3021901 138.6141882  58.3323745
 113.0347073 138.0441099  58.5661575 111.5461257 138.2263482  58.7730251
 101.5766480 141.5758976  51.8240399 101.4602738 140.9003880  52.4921483
 101.6868740 141.0891350  51.0072552 103.9198021 141.0369124  55.5287088
 103.5556228 140.5099744  56.2400009 104.7765136 140.6467593  55.3553573
 109.8247321 132.3263456  62.7918354 109.4930646 133.1958867  62.5679569
 109.2292935 132.0099740  63.4712384 103.5603508 136.0659023  50.5248436
 103.7277910 136.9339260  50.8918907 103.3700677 136.2286305  49.6009726
 106.3178841 144.5276002  62.1914267 106.0179564 145.4301041  62.0830074
 105.9729900 144.2608185  63.0435420  99.7691322 140.9789799  58.2250971
  98.8441819 140.8466013  58.4328663 100.0175735 141.7584018  58.7220914
 109.7175985 137.0458542  59.8711704 108.8092862 136.9773951  59.5770465
 109.6663580 137.5230487  60.6993530 103.5392728 138.5216681  51.5095103
 103.4192354 138.9673731  52.3480584 102.8445317 138.8701998  50.9508641
  97.1300133 140.6223073  59.0594760  97.2592514 140.8757551  59.9734172
  96.4497585 141.2150781  58.7399415 101.2999621 151.2920322  55.1585234
 101.2223650 152.2428148  55.2373715 100.6961264 150.9466195  55.8160161
 103.7916850 138.4648188  67.8146601 103.0150184 139.0242108  67.8049466
 104.4307413 138.9504971  68.3361471 111.5837631 135.2474981  61.6489578
 110.9412011 135.5407514  61.0029373 111.0792559 135.1327901  62.4542775
 109.2377795 138.9938154  52.3375437 110.1495651 139.2265541  52.1623135
 108.7287442 139.5775198  51.7750516 102.0463223 141.2733641  67.3764568
 102.7877907 141.8118685  67.0999392 101.3400208 141.8999930  67.5336120
 107.5218562 143.4162782  65.9736730 107.9301918 142.9745192  65.2291362
 106.7995824 142.8415409  66.2270923 103.8749632 138.3535388  63.3470287
 104.7210827 138.7774802  63.4904936 103.8148270 137.6969013  64.0408850
 107.8447377 143.9763972  59.7289019 107.2156239 144.1409686  59.0265087
 107.4573039 144.3905582  60.4999983 107.0249078 136.0139757  65.0051460
 106.7810009 136.7681817  64.4685736 107.3009008 136.3925104  65.8398707
 108.9787540 142.5578369  63.6828726 109.1904436 143.2010129  63.0063107
 108.9317289 141.7240686  63.2150656 106.5813769 135.1696190  60.5865298
 105.7198248 135.4677443  60.8782036 106.6076204 135.3866589  59.6546331
 103.3975339 143.7138380  56.9939104 103.8613684 143.9926083  56.2043726
 103.1332137 142.8121825  56.8112195 100.2899420 143.2609862  59.9318867
 100.8600777 143.6897130  59.2936352 100.8807532 142.9792447  60.6303053
 102.3344225 139.8361533  53.8028669 103.0368268 140.2882576  54.2702595
 102.0024853 139.1945352  54.4308562 100.7824586 138.4273289  68.1779878
 100.1523247 139.1089570  68.4115275 100.6760674 138.3156371  67.2333017
  96.0769559 138.0945085  59.1045803  95.2868613 138.3502614  58.6285913
  96.5680806 138.9093423  59.2097843 110.0933368 145.4350325  61.8551083
 110.9150812 145.0330512  61.5733765 110.0895771 145.3318559  62.8067199
  98.0284304 138.4589665  56.0629279  97.2315467 138.5708359  56.5812775
  97.8009896 138.7976317  55.1970170 103.8589972 144.9834368  64.0111794
 103.9234404 145.4454775  64.8469966 103.1500896 144.3531733  64.1394104
  94.3607262 138.3475576  61.5360793  94.6115300 139.2322586  61.8018369
  94.8966810 138.1680177  60.7635885 103.5737989 146.6502475  53.8790774
 103.4383664 147.4954011  54.3075622 104.1147802 146.8521753  53.1156708
 100.0605329 132.7294055  70.5405129  99.6672275 132.1760254  71.2152774
 100.8771469 133.0404634  70.9311647  97.0267387 144.1677913  54.4518699
  97.5391907 144.9621164  54.6024264  97.6790100 143.4704204  54.3852301
  98.8362272 147.2843670  56.5341452  99.0128900 148.2061634  56.3462436
  99.6319105 146.9702089  56.9635832 102.9773290 134.1451934  68.1325386
 103.7183003 134.7459088  68.0529848 103.2091213 133.4029572  67.5743429
  98.1214628 139.3308302  66.4103616  98.0068143 138.4293559  66.7110715
  97.2659146 139.5771998  66.0588432 105.2006466 147.2726042  68.0091116
 104.7570320 146.4862421  67.6912021 105.8623679 147.4605192  67.3435007
  99.9593587 148.8021844  62.5351795 100.5101012 148.6738907  61.7628789
  99.1205063 149.1016733  62.1846688 103.7560758 145.0672971  66.8796026
 104.2889095 144.3061260  66.6495334 103.2274839 144.7746623  67.6220180
 106.9230453 130.1733037  62.4089668 106.5794722 131.0634679  62.3328778
 107.2909416 129.9834695  61.5459253  94.9916304 142.4966568  55.2278270
  95.8291526 142.9063576  55.0111978  95.1694571 141.5566010  55.1978464
 106.8880736 140.1641648  50.9162103 106.3727359 140.9346253  51.1550490
 106.6158044 139.4906785  51.5395164 104.4727847 135.0091349  55.9747341
 103.6169443 134.6198200  55.7952980 104.8854799 135.0883310  55.1147127
 106.0026993 132.5437692  60.3738901 105.4991789 132.5067828  59.5606706
 106.2957600 133.4530435  60.4335558 102.2469879 132.6276422  59.3805083
 103.1122876 132.4319231  59.0210972 102.3147388 132.3986774  60.3074439
 111.8615010 142.9174003  52.8515276 111.0844453 142.5785163  52.4070438
 112.5406491 142.9226626  52.1770241 106.6767039 138.0368741  52.7421884
 106.3717174 138.3514890  53.5932027 107.6297481 138.1150160  52.7849217
 105.1213471 144.1958964  54.3914838 104.5934832 143.4611723  54.0788075
 104.6200973 144.9733640  54.1454806 110.1006317 142.3907984  59.5081884
 109.4429991 143.0807246  59.5962013 110.9046716 142.7804416  59.8515871
  99.8532198 134.8578630  56.7521449 100.4275950 134.6353812  56.0194642
 100.4403181 134.9267325  57.5050051 108.9111776 140.7452357  57.5585826
 109.4243657 141.3782349  58.0607536 109.5612999 140.1453553  57.1929186
 100.1801785 136.8883091  50.7717335  99.3439098 137.2257778  51.0926609
 100.0406555 136.7532071  49.8344472 102.1554866 131.7319879  55.4796519
 101.5019278 131.4168896  54.8553134 102.1135340 131.1095619  56.2056342
 103.2666071 142.0139174  47.3949811 102.3593133 141.7828428  47.5940960
 103.7637103 141.2176793  47.5823793 105.3892606 138.2201813  59.8044167
 104.4715168 138.4416760  59.6465855 105.8052750 138.2948123  58.9455874
 106.1727654 139.6193228  54.9346847 106.9199473 140.1314625  54.6253969
 106.4419244 139.2977281  55.7951240 104.4454304 142.1151769  51.9173801
 103.5365524 141.8310802  52.0146271 104.4749388 142.5350848  51.0577108
 109.6773572 145.7258358  55.6864969 109.2235899 144.8849268  55.7430159
 109.0467538 146.3619757  56.0239749 108.6206491 136.6550344  56.9165636
 107.8829248 136.1427731  57.2475879 108.8733265 136.2150726  56.1048913
 108.7218119 129.4326597  57.5107405 109.0276995 128.5723960  57.2233320
 109.4470723 130.0244217  57.3106399  95.0142475 139.8357283  55.8989003
  94.8166875 139.2426644  55.1740070  94.4589139 139.5309493  56.6164942
 102.9939198 139.7280390  58.0183596 103.0487808 138.7754226  57.9426073
 102.1830400 139.8839829  58.5024895 104.1430392 143.6560513  49.2561880
 103.7049822 142.9396372  48.7967517 104.8840833 143.8836627  48.6946971
 100.9331558 138.3457449  55.7773975 100.1199424 138.6451620  56.1839167
 101.4290553 137.9513138  56.4948458 103.0840136 148.3415206  57.7108240
 103.0416315 148.5676053  56.7816772 104.0002835 148.1078581  57.8594041
 106.5305770 138.8099274  64.6088869 106.8855158 139.0370747  65.4683335
 107.1777901 139.1417651  63.9866124 112.2603507 141.9317710  55.3138198
 112.1221406 142.1219306  54.3859387 111.9039726 142.6937092  55.7706249
 100.4245633 135.9175805  61.3935210 101.0645012 135.7764564  60.6958174
  99.5923164 135.6310318  61.0173812 112.2872887 143.9994237  60.3249470
 112.7209393 143.9069526  61.1732524 113.0004467 143.9751737  59.6869486
 101.2005937 145.2178235  57.5070203 101.9946535 144.7228555  57.3052778
 100.4897629 144.6896098  57.1437908 106.0200781 147.5996331  61.8582570
 106.0737804 148.1687267  62.6260286 105.1515563 147.7698216  61.4936607
  97.5088700 139.3621317  53.5829955  96.5786289 139.3005772  53.7999917
  97.6046172 138.8397270  52.7866597  97.4274249 135.8876130  56.1708197
  97.6881067 136.8021463  56.0617357  98.2491422 135.4200572  56.3204810
  98.8999175 137.3013887  63.3407022  99.5722228 137.0931249  62.6919670
  98.0728961 137.1035973  62.9012254 104.8024747 133.9275828  65.3572682
 104.1552662 134.6265778  65.2637159 105.5725762 134.3611972  65.7248931
 108.2103545 144.1924680  68.4323236 108.0589051 143.9635232  67.5153319
 108.2008224 145.1495282  68.4454581 104.9788881 141.7656593  63.4169502
 105.9080941 141.9167752  63.2438469 104.5579911 141.8540614  62.5618149
 103.7777213 145.7907257  61.1868040 103.6388299 145.4226042  62.0593978
 102.9891809 146.3054897  61.0151998 105.3282428 145.1688860  58.5756878
 104.9932261 145.1289630  59.4714527 104.8286374 144.5033576  58.1027288
  99.3026672 140.5756490  64.1009459  99.1646470 139.8436729  64.7020998
 100.2131596 140.4865390  63.8193646 108.2641620 142.5144894  48.8493937
 107.6470790 141.7891722  48.7526990 107.7958108 143.2754255  48.5061011
 101.9308973 140.2876449  63.5893138 102.6408591 139.6469641  63.5479757
 101.8878281 140.5389344  64.5119319 100.6437907 137.2741667  65.4088778
 100.1075264 136.8232406  66.0610374 100.0554615 137.4087576  64.6659242
 100.0540166 136.7330319  47.9715241  99.1769632 136.6119119  47.6077488
 100.5297919 135.9416397  47.7194130 109.9213159 145.1883387  64.7413697
 109.0339937 144.8509308  64.8640096 110.4911710 144.4566418  64.9782463
  91.5742306 141.5207478  58.0656749  92.2613346 141.2069208  57.4777764
  91.4190435 142.4248843  57.7924000  96.3777028 136.4097675  62.4941772
  96.2935217 135.8023344  61.7592182  95.5559734 136.9006693  62.4951269
 103.4514312 149.8484839  61.7074940 103.3784484 150.6539810  62.2194245
 103.0091705 150.0476805  60.8822962 103.2404092 149.0856609  55.2177762
 102.4571614 149.6278289  55.3115987 103.9396837 149.6030589  55.6172003
 106.5500742 134.8951238  57.8611967 107.0469441 134.1421201  57.5413038
 105.7787723 134.9315555  57.2955177 114.4030499 140.5991604  59.5030259
 114.3920375 141.4816319  59.1324192 113.5347879 140.2463155  59.3084796
 107.6330523 143.6522926  55.4350391 106.6986801 143.7724388  55.2655095
 107.8107191 142.7495392  55.1710401 103.1335711 137.0368621  57.5883652
 102.7633498 136.4839662  58.2764558 103.6294803 136.4326755  57.0358652
 111.0203074 139.4940245  55.9700425 111.4863526 140.3268236  55.8960728
 111.4710574 139.0285226  56.6745683 100.9624909 147.4966116  64.6838670
 101.6634369 148.1302599  64.8368064 100.4920024 147.8380848  63.9234309
 109.0879305 145.8384066  52.9686577 109.3639149 145.7240661  53.8780451
 108.2183804 145.4401551  52.9298750 108.9919737 131.8620832  60.0091326
 108.0782816 132.0925059  60.1773533 109.4212838 131.9459276  60.8605359
 108.7626195 140.0510724  62.5091220 108.1097645 140.2986631  61.8543673
 109.1406575 139.2374862  62.1753698 106.0575534 149.0138602  53.8734439
 106.5863301 148.5031057  53.2604601 106.3203754 148.6981132  54.7379972
 104.8113768 140.7930535  68.9957257 104.1354405 140.6924664  69.6659633
 105.6341402 140.6369749  69.4593255  96.5592627 147.0302471  61.6169773
  97.1446064 146.2846159  61.7497677  96.3617466 147.3406428  62.5006437
  99.4131282 150.0653719  56.6332215  98.7441658 150.5499846  56.1496255
  99.2744152 150.3122939  57.5475594  91.1510282 139.6008072  60.3374216
  91.1894381 139.0671662  61.1311334  90.6450575 139.0743277  59.7185193
  98.5301044 134.4472612  63.8336758  98.5942371 135.3087443  63.4214156
  98.4668164 133.8346614  63.1009117  98.0053317 136.5195745  67.4809792
  98.6325356 136.1372822  68.0947317  97.1481236 136.3009947  67.8465485
  94.7818860 138.3272174  53.4128147  95.0772301 137.4182852  53.3595201
  93.8806895 138.3059913  53.0909150  98.3113107 136.4028170  59.3955696
  97.5899692 137.0164138  59.2563169  99.1006362 136.9385935  59.3172342
 101.1139420 133.7382597  65.6696348 101.6373822 133.9844893  66.4322657
 100.8951753 134.5702632  65.2499485  96.5106701 136.0086271  53.5367472
  96.1819407 135.1283650  53.3542578  96.8646072 135.9533940  54.4243862
 105.7586280 147.6441174  58.0462458 105.6111242 146.7157882  58.2270028
 106.5839773 147.6661265  57.5619533  99.6248524 136.2959241  53.9042950
  99.9644597 136.8245163  53.1821558 100.0720645 136.6339647  54.6801517
 102.3191965 134.6796292  63.3546018 101.9788785 133.8804105  63.7566698
 101.6130971 134.9798003  62.7822851 102.9708437 131.7645604  61.8073341
 103.7934506 131.2906083  61.6852231 103.2146500 132.5436088  62.3072027
 101.6116671 134.7933863  52.1036243 102.3325034 135.1715116  51.5999960
 100.9881976 135.5122740  52.2071221 105.7547794 135.4979012  53.0394575
 105.9711409 136.3803650  52.7383403 105.2741861 135.1065225  52.3100217
 100.4947016 138.4564725  59.6165320 100.3491596 138.7705028  60.5089601
 100.0172219 139.0749625  59.0636218 102.3543399 135.4467273  59.6646209
 102.3404967 134.5508366  59.3278507 103.0715827 135.4537937  60.2984495
 104.2069529 135.8804613  61.7099337 103.9487307 136.8021684  61.7083667
 103.6754570 135.4835048  62.3999801  94.9692678 140.9970069  62.5552981
  94.4246146 141.7729877  62.6873255  95.8472028 141.3440874  62.3972102
 101.7580294 134.3281653  54.9333779 101.8796206 133.3998300  55.1324667
 101.4682337 134.3420339  54.0212095 104.6271485 132.0136564  58.0700499
 104.6493182 132.0775897  57.1152479 105.0439544 131.1741072  58.2641005
 115.0055109 141.7491823  56.1079722 115.4486255 140.9999149  55.7098845
 114.1281619 141.7401960  55.7253454  95.7558700 140.1239966  65.4483138
  95.0140436 140.2722601  66.0347768  95.4351444 140.3848231  64.5849887
 103.7002362 149.6655944  65.2463528 104.0089489 149.4205091  66.1186227
 104.4977844 149.8702582  64.7582398  96.2015313 148.0105394  57.4793532
  97.0273333 147.7109166  57.0992176  95.8509365 147.2413017  57.9283321
 101.1696847 147.3631863  59.5491206 100.5476856 146.7002568  59.2493434
 101.8401713 147.3892995  58.8664854  94.4023918 145.9291721  58.4382466
  93.5655827 145.5013895  58.2566467  94.3747564 146.1224164  59.3753257
 101.2421374 135.8413651  69.1423712 101.2909530 136.7175774  68.7601482
 101.7843888 135.2991044  68.5695355 111.8474095 143.2347240  65.7357578
 111.8972100 143.0697248  66.6773100 111.7388018 142.3674499  65.3455458
 100.7310353 145.9135786  53.0249667 100.8798474 146.5971250  52.3716339
 101.5376797 145.8940876  53.5399122 109.1377857 139.2178168  67.0516884
 110.0387720 139.0784633  66.7600882 109.2125832 139.3832623  67.9915062
 103.4720662 136.5945023  65.8970071 102.6023972 136.8878589  65.6252659
 103.7080143 137.1785468  66.6177334 111.5979480 140.7776796  64.4479657
 112.0733601 140.9704443  63.6398509 110.6745045 140.8335982  64.2023041
  98.4862986 141.9400964  54.0310735  98.2409028 141.0363294  54.2290946
  98.6558901 141.9418114  53.0890213 106.1759696 132.8124640  63.4135491
 106.6941640 133.5485667  63.0881980 105.8214829 133.1188633  64.2482250
  97.7558634 137.6729321  51.5296897  97.0627879 137.7473676  50.8736933
  97.5110386 136.9089665  52.0518414 106.4272290 129.2324923  58.9336388
 106.7074044 128.5648112  59.5596814 107.2122897 129.4254018  58.4211051
 104.2305759 148.4083916  50.4961414 103.6579726 149.0274104  50.0431886
 104.8038553 148.9583278  51.0301336 110.2981149 137.6542557  62.6807963
 111.2498572 137.7540654  62.7020187 110.1284599 136.8620825  63.1906047
 108.3195528 134.7398140  62.8667364 107.7245460 135.0203152  62.1713852
 108.0345225 135.2292041  63.6384105 112.7769227 140.8748676  61.7950262
 112.7445547 139.9364677  61.9809946 113.3869850 140.9532713  61.0616087
 104.6152557 139.7444729  47.8377466 105.5611662 139.6150937  47.9065884
 104.2366802 139.0059391  48.3146895 112.9263715 137.6659720  61.8408546
 112.4102764 136.8818176  61.6538474 113.8103664 137.3378436  62.0055065
 110.5874442 131.4100735  57.8004358 110.3899263 131.1015823  58.6847690
 111.1974148 132.1362374  57.9302288 116.6761074 140.0772546  61.5330750
 115.9494237 139.9428511  60.9247242 116.2608360 140.3849374  62.3387468
 104.4991250 143.7962475  69.2978123 105.4194259 143.9741074  69.4918170
 104.4640833 142.8518521  69.1457823 102.7995475 137.6694706  47.7732352
 101.8926930 137.3727818  47.8495065 103.0771456 137.3724524  46.9066638
  93.7173415 138.9901069  58.2231398  93.3976199 138.1366377  57.9305772
  93.1706843 139.2049647  58.9789365  97.4953323 141.7063510  61.9400905
  97.7139332 142.6380618  61.9588938  97.9079096 141.3471484  62.7255708
 104.4157540 132.2131595  53.9276593 103.6058269 131.8678680  54.3031839
 105.1041957 131.9039139  54.5164204 106.3448089 131.2909642  55.5500890
 106.8979127 131.7105096  56.2090913 106.5818175 130.3645390  55.5923846
 102.3681188 137.2796716  71.3303653 102.2677915 138.2291073  71.2615745
 102.1502730 136.9514955  70.4579724 101.5694259 134.5281641  47.9144331
 102.4313423 134.8536539  48.1740148 101.7544603 133.7413137  47.4017397
  93.5861675 142.6103981  60.1924520  92.8925146 142.1957933  59.6794474
  94.3334666 142.6524517  59.5957939 109.7226896 133.4010167  55.0579554
 109.1425565 134.0594971  54.6757606 109.4562828 132.5787512  54.6466971
 108.1730462 132.8015225  57.2600874 108.6730240 132.9131760  56.4515193
 108.8166070 132.4976278  57.9001683 102.2312458 140.7093855  70.1468715
 101.7479540 141.5094215  70.3532604 102.3173397 140.7201799  69.1936159
  95.4998418 142.5422234  58.0690534  95.4769106 142.6409922  57.1172418
  95.8099054 143.3887385  58.3907701  98.1585795 144.5998389  62.1837149
  99.1129049 144.5682332  62.1167080  97.9598319 144.1389013  62.9987375
  98.7485178 143.1699505  64.7507947  99.5678067 143.6643584  64.7742784
  99.0221985 142.2531474  64.7225514 108.5051774 135.5610258  54.1135902
 107.6177629 135.8459908  53.8956097 108.9205763 135.4004021  53.2663179
 111.8566310 135.5856779  57.8290241 112.6326700 136.0753231  58.1014858
 111.1314444 136.0114833  58.2862111 114.2938869 136.2984398  58.8864182
 114.8883359 136.0580134  58.1757490 114.3665452 135.5791528  59.5137718
  96.5136024 150.1418009  59.2007347  96.3790492 149.3818410  58.6345345
  96.0968086 150.8658909  58.7336136 107.6494987 145.3254932  48.2083922
 108.3530837 145.5304935  48.8241578 106.9257636 145.8931694  48.4733006
 108.4792797 141.0764794  54.3286192 108.4227999 141.5333345  53.4893825
 109.0321140 140.3155478  54.1509035 112.2897603 136.8654525  55.1536312
 112.0334538 136.4651161  55.9844519 111.6650471 137.5798319  55.0286451
 116.6009941 139.6050599  57.6607603 116.0409499 139.6743788  58.4339165
 115.9953445 139.4291583  56.9407099  99.6705150 151.0387326  59.4125789
  99.5537534 151.9832758  59.3104480  98.8497596 150.7360887  59.8011589
 109.5581685 145.7637462  50.2582382 110.3927289 145.3318660  50.0759857
 109.3966028 145.5919475  51.1859277 109.2127577 142.2669575  51.6238721
 109.1576381 142.1013846  50.6827166 108.5873632 142.9745608  51.7800911
  94.0020092 137.5037639  65.4500144  94.6478955 136.9936593  65.9387369
  93.7937243 138.2406321  66.0243569 106.5273484 144.5718487  70.9492284
 107.3964644 144.7459139  70.5878919 106.0480235 145.3912904  70.8268014
 102.5223702 131.7677684  51.2024040 102.5102372 132.7119524  51.3592311
 103.4147124 131.5847829  50.9083501 100.6959664 151.6915588  62.6281718
 101.5986911 151.7239198  62.9448213 100.4697034 150.7616039  62.6428054
 102.4513266 150.4446574  59.2891796 101.5008897 150.4448436  59.1756169
 102.7545752 149.6979309  58.7727831 106.3375822 128.3620460  55.4569977
 105.5708218 127.8078947  55.6026659 106.7486527 128.4342329  56.3184128
  98.3417583 134.6505256  69.5475158  99.2049044 134.2942061  69.7578482
  97.7682993 134.3119151  70.2350562  31.4715925  10.6533894  47.0782866
  32.1094335  10.5340641  46.3746206  31.3536768  11.6014738  47.1370818
  28.2805631  10.6061322  47.0144390  27.9424143  10.4902387  46.1264925
  29.1495400  10.2052487  46.9945396  24.1392447  12.4596798  43.0041281
  23.5757312  12.3686735  42.2357569  24.0244842  11.6396703  43.4843774
  28.7625414  11.7596174  52.9730596  28.7514055  11.3648972  52.1011099
  28.9246054  11.0262246  53.5664367  21.6856879  13.9547990  45.8425502
  22.4778171  13.6138815  45.4271801  21.9253529  14.0642965  46.7627655
  29.7192006  16.1267766  38.3155746  29.0679986  16.7121846  37.9289760
  30.5136369  16.6573961  38.3750784  23.6447633  13.2156903  38.7142880
  24.4178509  12.6685890  38.5755756  23.9973032  14.0801153  38.9257342
  25.4832675  14.5433285  51.9209780  25.1922541  15.4478916  51.8056446
  26.1189660  14.5849813  52.6353849  26.4088882  11.9210134  48.5111139
  27.0052455  11.6966156  47.7968102  26.4663854  11.1794879  49.1136587
  31.0257194   8.3785348  44.1536074  31.8120283   7.9604771  43.8026491
  31.2895898   9.2831440  44.3217722  31.1967271  13.8158198  38.8524730
  30.5613104  13.8892825  39.5645635  30.8664677  14.4051797  38.1743810
  36.4265621   8.3160581  45.0569052  37.1590793   7.7459798  45.2906882
  35.6704976   7.9282181  45.4975558  28.0441740  10.7387822  42.2532395
  27.6799948  10.2118443  42.9645316  28.9008856  10.3486291  42.0798880
  33.9491041   2.0282155  49.5163661  33.6174366   2.8977566  49.2924876
  33.3536654   1.7118439  50.1957691  30.4422561  14.2294701  48.9159573
  30.1423284  15.1319740  48.8075381  30.0973620  13.9626884  49.7680726
  23.8935042  10.6808498  44.9496278  22.9685538  10.5484712  45.1573970
  24.1419455  11.4602717  45.4466220  33.8419704   6.7477241  46.5957011
  32.9336582   6.6792650  46.3015772  33.7907300   7.2249186  47.4238836
  21.2543853  10.3241771  45.7840067  21.3836234  10.5776250  46.6979479
  20.5741304  10.9169479  45.4644722  25.4243340  20.9939021  41.8830541
  25.3467370  21.9446846  41.9619022  24.8204984  20.6484894  42.5405467
  27.9160570   8.1666887  54.5391908  27.1393904   8.7260807  54.5294773
  28.5551133   8.6523670  55.0606778  35.7081351   4.9493680  48.3734885
  35.0655731   5.2426213  47.7274679  35.2036279   4.8346600  49.1788081
  33.3621514   8.6956853  39.0620744  34.2739371   8.9284240  38.8868441
  32.8531161   9.2793897  38.4995823  26.1706942  10.9752340  54.1009875
  26.9121627  11.5137384  53.8244699  25.4643928  11.6018629  54.2581427
  31.6462282  13.1181481  52.6982036  32.0545638  12.6763891  51.9536669
  30.9239544  12.5434108  52.9516229  27.9993352   8.0554087  50.0715593
  28.8454547   8.4793501  50.2150242  27.9391990   7.3987712  50.7654157
  31.9691097  13.6782671  46.4534325  31.3399959  13.8428385  45.7510393
  31.5816759  14.0924281  47.2245289  35.8480329  14.6137109  43.8078689
  35.1631367  14.9936010  43.2575722  35.9324178  15.2232436  44.5410637
  31.1492797   5.7158456  51.7296767  30.9053729   6.4700516  51.1931043
  31.4252728   6.0943803  52.5644014  33.1031260  12.2597068  50.4074033
  33.3148155  12.9028828  49.7308414  33.0561008  11.4259385  49.9395963
  30.7057489   4.8714889  47.3110605  29.8441968   5.1696142  47.6027342
  30.7319924   5.0885288  46.3791637  27.5219059  13.4157079  43.7184410
  27.9857404  13.6944782  42.9289033  27.2575857  12.5140524  43.5357501
  24.4143140  12.9628561  46.6564174  24.9844497  13.3915829  46.0181658
  25.0051251  12.6811146  47.3548359  26.4587945   9.5380232  40.5273976
  27.1611988   9.9901275  40.9947902  26.1268573   8.8964051  41.1553869
  24.9068306   8.1291988  54.9025185  24.2766967   8.8108269  55.1360582
  24.8004394   8.0175070  53.9578323  20.2013279   7.7963784  45.8291109
  19.4112333   8.0521313  45.3531220  20.6924526   8.6112122  45.9343150
  34.2177088  15.1369024  48.5796390  35.0394532  14.7349211  48.2979072
  34.2139491  15.0337258  49.5312506  22.1528024   8.1608364  42.7874586
  21.3559187   8.2727058  43.3058082  21.9253616   8.4995016  41.9215476
  27.9833692  14.6853067  50.7357101  28.0478124  15.1473474  51.5715272
  27.2744615  14.0550432  50.8639410  42.3083081  11.4807772  44.9281361
  41.5546790  10.9115170  44.7725366  42.4430622  11.4470436  45.8751996
  27.6981709  16.3521174  40.6036081  27.5627384  17.1972710  41.0320929
  28.2391522  16.5540452  39.8402015  21.1511107  13.8696612  41.1764006
  21.6635627  14.6639863  41.3269571  21.8033819  13.1722903  41.1097607
  22.9605991  16.9862369  43.2586759  23.1372620  17.9080333  43.0707743
  23.7562825  16.6720788  43.6881139  27.1017010   3.8470633  54.8570693
  27.8426723   4.4477786  54.7775155  27.3334933   3.1048271  54.2988735
  22.2458348   9.0327001  53.1348922  22.1311863   8.1312258  53.4356021
  21.3902866   9.2790697  52.7833739  29.3250186  16.9744741  54.7336423
  28.8814040  16.1881119  54.4157327  29.9867399  17.1623891  54.0680314
  24.0837307  18.5040542  49.2597101  24.6344732  18.3757606  48.4874095
  23.2448783  18.8035431  48.9091994  31.4231424  17.2547541  52.7617824
  31.4049899  18.0756422  52.2698093  32.3451344  17.1301616  52.9867965
  27.8804478  14.7691670  53.6041333  28.4132815  14.0079958  53.3740641
  27.3518559  14.4765322  54.3465487  31.0474173  -0.1248264  49.1334974
  30.7038442   0.7653378  49.0574085  31.4153135  -0.3146606  48.2704559
  19.1160023  12.1985267  41.9523576  19.9535245  12.6082275  41.7357284
  19.2938291  11.2584709  41.9223770  31.0124456   9.8660347  37.6407409
  30.4971079  10.6364952  37.8795797  30.7401764   9.1925483  38.2640471
  28.5971567   4.7110048  42.6992648  27.7413163   4.3216898  42.5198286
  29.0098518   4.7902009  41.8392433  30.1270713   2.2456391  47.0984208
  29.6235509   2.2086526  46.2852013  30.4201320   3.1549134  47.1580864
  35.9858730  12.6192702  39.5760583  35.2088172  12.2803861  39.1315745
  36.6650211  12.6245325  38.9015548  30.8010759   7.7387439  39.4667191
  30.4960894   8.0533589  40.3177334  31.7541201   7.8168859  39.5094524
  29.2457191  13.8977663  41.1160145  28.7178552  13.1630422  40.8033382
  28.7444693  14.6752339  40.8700113  34.2250037  12.0926683  46.2327191
  33.5673711  12.7825945  46.3207319  35.0290436  12.4823115  46.5761177
  33.0355495  10.4471056  44.2831133  33.5487377  11.0801048  44.7852842
  33.6856719   9.8472251  43.9174493  30.2977870  20.4255380  37.0391804
  29.6239568  20.7287077  37.6476762  30.6843692  21.2284460  36.6897261
  29.5136326   7.9220511  46.5289473  28.5958888   8.1435458  46.3711161
  29.9296470   7.9966822  45.6701180  30.2971374   9.3211927  41.6592153
  31.0443193   9.8333324  41.3499275  30.5662964   8.9995980  42.5196547
  28.5698024  11.8170468  38.6419108  27.6609243  11.5329501  38.7391577
  28.5993108  12.2369546  37.7822415  33.8017292  15.4277057  42.4110275
  33.3479619  14.5867967  42.4675466  33.1711258  16.0638456  42.7485055
  32.7450211   6.3569043  43.6410943  32.0072968   5.8446430  43.9721185
  32.9976985   5.9169425  42.8294220  32.2450231  17.2653554  43.3460093
  32.5373205  17.8258611  42.6272459  32.7548851  17.5582115  44.1013252
  32.8461838  -0.8654705  44.2352712  33.1520715  -1.7257341  43.9478627
  33.5714443  -0.2737084  44.0351706  27.1182918   9.4299088  44.7428903
  27.1731528   8.4772925  44.6671380  26.3074120   9.5858528  45.2270201
  25.0575278   8.0476148  42.5019282  24.2443144   8.3470319  42.9084474
  25.5534272   7.6531837  43.2193764  27.2083856  18.0433905  44.4353547
  27.1660035  18.2694751  43.5062079  28.1246555  17.8097280  44.5839348
  30.6549490   8.5117973  51.3334176  31.0098878   8.7389446  52.1928642
  31.3021621   8.8436349  50.7111431  36.3847227  11.6336409  42.0383505
  36.2465125  11.8238005  41.1104694  36.0283446  12.3955791  42.4951556
  24.5489353   5.6194504  48.1180517  25.1888732   5.4783263  47.4203480
  23.7166883   5.3329017  47.7419119  36.4116606  13.7012936  47.0494776
  36.8453113  13.6088225  47.8977830  37.1248187  13.6770436  46.4114792
  25.3249657  14.9196934  44.2315509  26.1190255  14.4247254  44.0298084
  24.6141349  14.3914797  43.8683215  30.1444501  17.3015030  48.5827877
  30.1981524  17.8705966  49.3505593  29.2759283  17.4716915  48.2181914
  23.0242895   7.0032586  50.0652328  23.6965948   6.7949948  49.4164977
  22.1972681   6.8054672  49.6257560  37.2732156  13.7436636  49.5827662
  37.4668046  14.6482447  49.8286937  37.1732774  13.2844055  50.4166247
  28.9268467   3.6294527  52.0817989  28.2796382   4.3284476  51.9882465
  29.6969482   4.0630671  52.4494237  32.3347265  13.8943379  55.1568542
  32.1832771  13.6653931  54.2398626  32.3251944  14.8513980  55.1699887
  29.1032601  11.4675292  50.1414809  30.0324661  11.6186451  49.9683776
  28.6823631  11.5559312  49.2863455  27.9020933  15.4925956  47.9113346
  27.7632018  15.1244741  48.7839285  27.1135529  16.0073596  47.7397304
  28.4969085  20.5935053  39.2538883  28.6720840  20.1223096  40.0684506
  27.8101873  21.2200819  39.4820144  29.4526148  14.8707559  45.3002184
  29.1175981  14.8308329  46.1959834  28.9530094  14.2052275  44.8272594
  23.4270392  10.2775189  50.8254765  23.2890190   9.5455428  51.4266304
  24.3375315  10.1884089  50.5438953  26.0552693   9.9895148  50.3138445
  26.7652311   9.3488340  50.2725063  26.0122001  10.2408043  51.2364626
  34.0439471  16.9262501  53.2345024  33.9852017  16.2421722  52.5675607
  34.4458990  17.6681491  52.7825650  24.7681627   6.9760366  52.1334084
  24.2318984   6.5251104  52.7855681  24.1798335   7.1106275  51.3904549
  23.0630170  23.7424415  46.0278743  23.3026768  24.3742939  46.7057762
  22.2199367  23.3912455  46.3144102  34.0456879  14.8902085  51.4659004
  33.1583657  14.5528007  51.5885403  34.6155430  14.1585117  51.7027769
  15.6986026  11.2226177  44.7902055  16.3857065  10.9087907  44.2023071
  15.5434154  12.1267542  44.5169307  27.5758032  19.5503538  48.4320247
  27.5028203  20.3558509  48.9439552  27.1335425  19.7495504  47.6068268
  27.3647812  18.7875308  41.9423069  26.5815333  19.3296988  42.0361293
  28.0640557  19.3049287  42.3417310  30.6744462   4.5969937  44.5857274
  31.1713161   3.8439900  44.2658344  29.9031443   4.6334254  44.0200483
  38.5274219  10.3010303  46.2275566  38.5164095  11.1835018  45.8569499
  37.6591598   9.9481854  46.0330103  30.0356715  19.4490372  50.5878406
  30.7484688  20.0837837  50.5154307  29.5446744  19.5454238  49.7718408
  31.7574242  13.3541624  42.1595697  30.8230521  13.4743087  41.9900402
  31.9350911  12.4514091  41.8955707  27.2579430   6.7387320  44.3128959
  26.8877218   6.1858361  45.0009864  27.7538523   6.1345454  43.7603959
  35.1446794   9.1958944  42.6945732  35.6107246  10.0286935  42.6206034
  35.5954294   8.7303925  43.3990990  25.0868629  17.1984815  51.4083977
  25.7878088  17.8321298  51.5613371  24.6163744  17.5399547  50.6479616
  33.2123025  15.5402765  39.6931884  33.4882869  15.4259360  40.6025758
  32.3427524  15.1420250  39.6544057  33.1163456   1.5639531  46.7336633
  32.2026536   1.7943758  46.9018840  33.5456558   1.6477975  47.5850665
  32.8869915   9.7529423  49.2336527  32.2341365  10.0005330  48.5788980
  33.2650295   8.9393561  48.8999004  29.8477089  19.7889116  43.3364697
  30.0299483  18.9710772  43.7992450  30.6710075  20.0056808  42.8989587
  30.1819254  18.7157301  40.5979746  30.7107021  18.2049756  39.9849908
  30.4447474  18.3999831  41.4625279  28.9357488  10.4949234  55.7202564
  28.2598125  10.3943363  56.3904939  29.7585122  10.3388448  56.1838561
  20.6836347  16.7321170  48.3415079  21.2689784  15.9864858  48.4742983
  20.4861185  17.0425127  49.2251743  23.5375002  19.7672418  43.3577522
  22.8685378  20.2518545  42.8741562  23.3987872  20.0141638  44.2720900
  27.6780271  21.8016161  49.9560180  28.2298579  21.9647783  50.7209265
  28.0186464  22.3920599  49.2840205  32.5291145  16.6277419  55.8108834
  33.0731049  17.2407377  55.3163789  31.9477990  17.1856997  56.3275847
  30.8148658  19.7498137  46.9423862  30.6899798  18.9487877  46.4334808
  31.4727749  20.2444330  46.4537832  22.4356826   6.1046869  46.1201002
  21.7143412   6.7182837  45.9808476  23.2250082   6.6404634  46.0417648
  32.8783567  17.5507157  48.5703412  31.9313902  17.4312508  48.4981739
  33.2266340  16.6629655  48.6529674  29.8830000  17.3459873  44.7707764
  29.7354962  16.4176580  44.9515335  30.7083493  17.3679964  44.2864840
  33.4864122  18.1688432  45.8572637  34.4110669  17.9631293  45.7197088
  33.3179425  17.9204833  46.7661979  26.4435685   4.3814991  50.0791325
  26.1032505   3.5822804  50.4812005  25.7374691   4.6816702  49.5068158
  24.6190736   8.1583424  46.3410626  24.4735316   8.4723727  47.2334908
  24.1415939   8.7768324  45.7881525  26.4787118   5.1485972  46.3891516
  26.4648687   4.2527065  46.0523814  27.1959546   5.1556636  47.0229802
  28.3313249   5.5823312  48.4344643  28.0731027   6.5040383  48.4328974
  27.7998289   5.1853747  49.1245107  33.2759438  18.6874099  41.2134729
  33.4496315  18.1220522  40.4608581  33.7688329  19.4874994  41.0314219
  19.0936398  10.6988768  49.2798287  18.5489866  11.4748576  49.4118562
  19.9715748  11.0459573  49.1217409  39.1298829  11.4510522  42.8325028
  39.5729975  10.7017847  42.4344152  38.2525339  11.4420659  42.4498760
  34.2634610  18.0040864  38.3131627  34.9585515  18.6247556  38.5318942
  34.6057760  17.1536215  38.5884005  19.8802420   9.8258665  52.1728444
  19.1384156   9.9741300  52.7593075  19.5595164  10.0866930  51.3095194
  36.1626033  15.4540569  39.8418958  36.6877358  15.7927842  39.1168278
  36.0748386  14.5187584  39.6582092  27.8246082  19.3674643  51.9708834
  28.1333209  19.1223790  52.8431534  28.6221564  19.5721281  51.4827705
  27.8466694  21.5212552  44.2014211  27.4071685  21.0288931  44.8947068
  28.5974811  20.9785520  43.9606286  20.3259033  17.7124093  44.2038839
  21.1517053  17.4127865  43.8237483  19.9753085  16.9431716  44.6528628
  25.2940566  17.0650562  46.2736513  24.6720576  16.4021267  45.9738740
  25.9645433  17.0911693  45.5910160  18.5267638  15.6310420  45.1627773
  17.6899547  15.2032594  44.9811774  18.4991284  15.8242863  46.0998564
  25.3665094   5.5432350  55.8669019  25.4153249   6.4194472  55.4846788
  25.9087608   5.0009743  55.2940662  35.8519940  16.0873473  55.1470156
  35.0615483  16.0697612  54.6074655  35.6153294  16.6261767  55.9019192
  35.9717815  12.9365939  52.4602884  36.0215820  12.7715947  53.4018407
  35.8631738  12.0693198  52.0700765  24.8554073  15.6154485  39.7494973
  25.0042194  16.2989949  39.0961646  25.6620517  15.5959575  40.2644429
  33.2621577   8.9196867  53.7762191  34.1631440   8.7803332  53.4846189
  33.3369551   9.0851322  54.7160368  27.5964382   6.2963722  52.6215377
  26.7267692   6.5897288  52.3497966  27.8323863   6.8804167  53.3422641
  37.4736011  15.3562881  52.7044906  37.1820820  15.7192861  53.5408367
  36.8608143  14.6429889  52.5258238  38.6731694  12.9215760  45.2247476
  39.5078585  13.3605565  45.3885036  38.8090823  12.4454414  44.4055722
  35.7223200  10.4795495  51.1724964  36.1977321  10.6723142  50.3643815
  34.7988765  10.5354681  50.9268347  22.6106706  11.6419663  40.7556042
  22.3652748  10.7381993  40.9536252  22.7802621  11.6436813  39.8135520
  30.3003416   2.5143339  50.1380798  30.8185360   3.2504366  49.8127286
  29.9458549   2.8207332  50.9727557  28.3549479  18.1102615  37.2206721
  27.7823446  18.7292802  36.7677192  28.9282272  18.6601977  37.7546642
  34.4224869   7.3561255  49.4053269  35.3742292   7.4559353  49.4265493
  34.2528319   6.5639524  49.9151354  32.4439248   4.4416839  49.5912670
  31.8489180   4.7221851  48.8959159  32.1588945   4.9310740  50.3629411
  31.5746739  18.3939765  38.3515303  32.5077412  18.3285327  38.5548178
  31.4869951  19.2296032  37.8929835  34.2034755  17.7105636  35.3119250
  34.1248387  17.3765499  36.2055008  35.0244422  18.2027404  35.3110723
  36.9012946  10.5767375  48.5195569  36.8689267   9.6383376  48.7055253
  37.5113570  10.6551412  47.7861394  37.0507435   7.3678419  48.5653852
  36.5346484   6.5836875  48.3783781  37.9347383   7.0397135  48.7300372
  34.7118162   1.1119434  44.5249665  34.5142983   0.8034522  45.4092997
  35.3217867   1.8381073  44.6547595  42.7189496  11.6383382  47.6601606
  43.4492885  11.3768670  48.2209309  42.1096442  10.9012104  47.7003674
  40.8004793   9.7791245  48.2576057  40.0737957   9.6447209  47.6492549
  40.3852080  10.0868073  49.0632775  28.6234970  13.4981174  56.0223430
  29.5437979  13.6759773  56.2163477  28.5884553  12.5537220  55.8703129
  21.6197042  11.4082209  48.6646211  21.8383052  12.3399317  48.6834245
  22.0322816  11.0490183  49.4501015  26.4924908   6.9815415  58.0548960
  26.3921635   7.9309772  57.9861051  26.2746450   6.6533654  57.1825030
  17.7105395  12.3122679  46.9169826  17.0168866  11.8976632  46.4039781
  18.4578386  12.3543216  46.3203245  33.8470616   3.1028866  41.7824860
  33.2669285   3.7613670  41.4002913  33.5806548   2.2806211  41.3712278
  32.2974182   2.5033924  43.9846181  32.7973960   2.6150458  43.1760500
  32.9409790   2.1994977  44.6246989  26.3556178  10.4112553  56.8714022
  25.8723259  11.2112914  57.0777911  26.4417117  10.4220498  55.9181466
  19.6242137  12.2440933  44.7935841  19.6012825  12.3428620  43.8417724
  19.9342774  13.0906084  45.1153007  22.2829515  14.3017088  48.9082456
  23.2372769  14.2701031  48.8412387  22.0842039  13.8407712  49.7232681
  22.8728897  12.8718204  51.4753253  23.6921786  13.3662283  51.4988091
  23.1465705  11.9550172  51.4470821  32.6295494   5.2628957  40.8381209
  31.7421349   5.5478607  40.6201403  33.0449483   5.1022720  39.9908486
  35.9810030   5.2875478  44.5535548  36.7570420   5.7771930  44.8260165
  35.2558164   5.7133532  45.0107417  38.4182588   6.0003097  45.6109489
  39.0127079   5.7598833  44.9002797  38.4909172   5.2810227  46.2383025
  20.6379744  19.8436708  45.9252653  20.5034212  19.0837109  45.3590651
  20.2211806  20.5677608  45.4581442  31.7738707  15.0273631  34.9329229
  32.4774557  15.2323634  35.5486884  31.0501356  15.5950393  35.1978312
  32.6036517  10.7783492  41.0531499  32.5471719  11.2352044  40.2139131
  33.1564860  10.0174177  40.8754342  36.4141323   6.5673224  41.8781618
  36.1578257   6.1669860  42.7089826  35.7894191   7.2817018  41.7531758
  40.7253661   9.3069298  44.3852910  40.1653219   9.3762487  45.1584472
  40.1197164   9.1310282  43.6652406  23.7948870  20.7406025  46.1371096
  23.6781254  21.6851457  46.0349786  22.9741316  20.4379586  46.5256895
  33.6825404  15.4656160  36.9827689  34.5171008  15.0337359  36.8005164
  33.5209747  15.2938174  37.9104583  33.3371297  11.9688274  38.3484028
  33.2820100  11.8032545  37.4072472  32.7117352  12.6764307  38.5046218
  30.6517204  14.2737186  57.6737591  31.5208363  14.4477838  57.3124226
  30.1723955  15.0931602  57.5513320  24.8203384  21.3934287  49.3527024
  25.7230631  21.4257897  49.6693519  24.5940754  20.4634738  49.3673360
  26.5756986  20.1465273  46.0137103  25.6252617  20.1467135  45.9001475
  26.8789472  19.3998008  45.4973138  42.3109680  25.9825812  47.0782866
  42.9488089  25.8632559  46.3746206  42.1930522  26.9306655  47.1370818
  39.1199386  25.9353240  47.0144390  38.7817897  25.8194304  46.1264925
  39.9889154  25.5344405  46.9945396  34.9786202  27.7888716  43.0041281
  34.4151067  27.6978653  42.2357569  34.8638597  26.9688620  43.4843774
  39.6019169  27.0888091  52.9730596  39.5907810  26.6940890  52.1011099
  39.7639808  26.3554164  53.5664367  32.5250633  29.2839908  45.8425502
  33.3171925  28.9430732  45.4271801  32.7647284  29.3934883  46.7627655
  40.5585760  31.4559684  38.3155746  39.9073740  32.0413764  37.9289760
  41.3530123  31.9865879  38.3750784  34.4841387  28.5448821  38.7142880
  35.2572263  27.9977808  38.5755756  34.8366786  29.4093070  38.9257342
  36.3226430  29.8725203  51.9209780  36.0316296  30.7770834  51.8056446
  36.9583414  29.9141731  52.6353849  37.2482637  27.2502052  48.5111139
  37.8446209  27.0258074  47.7968102  37.3057608  26.5086797  49.1136587
  36.8207665  24.7041487  36.3461330  37.0733186  24.1823008  35.5844793
  35.8832224  24.5407632  36.4488014  41.8650948  23.7077265  44.1536074
  42.6514037  23.2896689  43.8026491  42.1289652  24.6123358  44.3217722
  42.0361025  29.1450116  38.8524730  41.4006858  29.2184742  39.5645635
  41.7058432  29.7343715  38.1743810  47.2659375  23.6452499  45.0569052
  47.9984547  23.0751715  45.2906882  46.5098731  23.2574099  45.4975558
  36.5403954  26.6069593  38.5485705  36.4240212  25.9314496  39.2166790
  36.6506214  26.1201967  37.7317858  38.8835495  26.0679740  42.2532395
  38.5193702  25.5410361  42.9645316  39.7402611  25.6778209  42.0798880
  44.7884795  17.3574073  49.5163661  44.4568120  18.2269484  49.2924876
  44.1930409  17.0410357  50.1957691  38.5240982  21.0969640  37.2493743
  38.6915384  21.9649876  37.6164214  38.3338151  21.2596921  36.3255032
  41.2816315  29.5586619  48.9159573  40.9817038  30.4611657  48.8075381
  40.9367375  29.2918802  49.7680726  34.7328797  26.0100416  44.9496278
  33.8079293  25.8776630  45.1573970  34.9813210  26.7894635  45.4466220
  44.6813459  22.0769159  46.5957011  43.7730336  22.0084567  46.3015772
  44.6301055  22.5541104  47.4238836  38.5030203  23.5527297  38.2340410
  38.3829828  23.9984348  39.0725890  37.8082791  23.9012615  37.6753948
  32.0937608  25.6533689  45.7840067  32.2229989  25.9068168  46.6979479
  31.4135059  26.2461397  45.4644722  36.2637095  36.3230939  41.8830541
  36.1861125  37.2738764  41.9619022  35.6598738  35.9776812  42.5405467
  38.7554325  23.4958804  54.5391908  37.9787659  24.0552725  54.5294773
  39.3944888  23.9815587  55.0606778  46.5475105  20.2785597  48.3734885
  45.9049485  20.5718130  47.7274679  46.0430034  20.1638518  49.1788081
  44.2015269  24.0248770  39.0620744  45.1133125  24.2576157  38.8868441
  43.6924916  24.6085815  38.4995823  37.0100697  26.3044258  54.1009875
  37.7515381  26.8429302  53.8244699  36.3037682  26.9310547  54.2581427
  42.4856037  28.4473398  52.6982036  42.8939393  28.0055809  51.9536669
  41.7633298  27.8726026  52.9516229  38.8387107  23.3846005  50.0715593
  39.6848302  23.8085419  50.2150242  38.7785744  22.7279629  50.7654157
  42.8084851  29.0074589  46.4534325  42.1793714  29.1720303  45.7510393
  42.4210513  29.4216198  47.2245289  46.6874083  29.9429027  43.8078689
  46.0025121  30.3227928  43.2575722  46.7717932  30.5524353  44.5410637
  41.9886552  21.0450373  51.7296767  41.7447484  21.7992434  51.1931043
  42.2646482  21.4235721  52.5644014  43.9425015  27.5888986  50.4074033
  44.1541910  28.2320746  49.7308414  43.8954763  26.7551302  49.9395963
  41.5451244  20.2006806  47.3110605  40.6835723  20.4988060  47.6027342
  41.5713678  20.4177205  46.3791637  38.3612813  28.7448997  43.7184410
  38.8251159  29.0236700  42.9289033  38.0969611  27.8432442  43.5357501
  35.2536894  28.2920479  46.6564174  35.8238251  28.7207747  46.0181658
  35.8445006  28.0103063  47.3548359  37.2981699  24.8672149  40.5273976
  38.0005742  25.3193193  40.9947902  36.9662328  24.2255968  41.1553869
  35.7462061  23.4583906  54.9025185  35.1160721  24.1400187  55.1360582
  35.6398149  23.3466988  53.9578323  31.0407033  23.1255702  45.8291109
  30.2506087  23.3813231  45.3531220  31.5318280  23.9404040  45.9343150
  45.0570843  30.4660941  48.5796390  45.8788286  30.0641128  48.2979072
  45.0533246  30.3629175  49.5312506  32.9921778  23.4900281  42.7874586
  32.1952942  23.6018976  43.3058082  32.7647371  23.8286933  41.9215476
  38.8227446  30.0144984  50.7357101  38.8871879  30.4765392  51.5715272
  38.1138370  29.3842349  50.8639410  29.3244736  23.3786192  48.2606100
  29.5752774  24.2633202  48.5263676  29.8604284  23.1990794  47.4881192
  53.1476836  26.8099690  44.9281361  52.3940544  26.2407088  44.7725366
  53.2824377  26.7762354  45.8751996  38.5375464  31.6813092  40.6036081
  38.4021139  32.5264628  41.0320929  39.0785276  31.8832370  39.8402015
  35.0242803  17.7604672  57.2650436  34.6309749  17.2070870  57.9398080
  35.8408944  18.0715250  57.6556954  31.9904861  29.1988530  41.1764006
  32.5029382  29.9931780  41.3269571  32.6427574  28.5014820  41.1097607
  33.7999746  32.3154286  43.2586759  33.9766374  33.2372251  43.0707743
  34.5956579  32.0012705  43.6881139  37.9410764  19.1762551  54.8570693
  38.6820478  19.7769704  54.7775155  38.1728687  18.4340189  54.2988735
  33.0852102  24.3618918  53.1348922  32.9705618  23.4604175  53.4356021
  32.2296620  24.6082615  52.7833739  40.1643940  32.3036658  54.7336423
  39.7207794  31.5173037  54.4157327  40.8261154  32.4915809  54.0680314
  34.9231061  33.8332460  49.2597101  35.4738486  33.7049523  48.4874095
  34.0842537  34.1327349  48.9091994  42.2625178  32.5839458  52.7617824
  42.2443654  33.4048339  52.2698093  43.1845098  32.4593534  52.9867965
  38.7198232  30.0983588  53.6041333  39.2526569  29.3371876  53.3740641
  38.1912313  29.8057240  54.3465487  41.8867927  15.2043654  49.1334974
  41.5432197  16.0945296  49.0574085  42.2546890  15.0145311  48.2704559
  29.9553778  27.5277184  41.9523576  30.7929000  27.9374193  41.7357284
  30.1332046  26.5876626  41.9223770  41.8518210  25.1952265  37.6407409
  41.3364833  25.9656870  37.8795797  41.5795518  24.5217401  38.2640471
  39.4365321  20.0401966  42.6992648  38.5806917  19.6508816  42.5198286
  39.8492273  20.1193927  41.8392433  40.9664468  17.5748309  47.0984208
  40.4629263  17.5378444  46.2852013  41.2595075  18.4841052  47.1580864
  37.2107354  17.6587039  46.1050389  38.0760350  17.4629847  45.7456279
  37.2784862  17.4297390  47.0319746  46.8252484  27.9484620  39.5760583
  46.0481927  27.6095779  39.1315745  47.5043965  27.9537243  38.9015548
  41.6404513  23.0679357  39.4667191  41.3354649  23.3825506  40.3177334
  42.5934955  23.1460777  39.5094524  40.0850945  29.2269580  41.1160145
  39.5572307  28.4922340  40.8033382  39.5838448  30.0044257  40.8700113
  45.0643791  27.4218601  46.2327191  44.4067466  28.1117862  46.3207319
  45.8684190  27.8115033  46.5761177  34.8169673  19.8889247  43.4766756
  35.3913425  19.6664428  42.7439949  35.4040655  19.9577941  44.2295357
  43.8749250  25.7762974  44.2831133  44.3881132  26.4092965  44.7852842
  44.5250474  25.1764169  43.9174493  35.1439260  21.9193708  37.4962641
  34.3076572  22.2568394  37.8171916  35.0044029  21.7842687  36.5589778
  37.1192340  16.7630496  42.2041826  36.4656753  16.4479513  41.5798440
  37.0772815  16.1406236  42.9301648  38.2303545  27.0449791  34.1195118
  37.3230607  26.8139044  34.3186267  38.7274577  26.2487410  34.3069099
  41.1371624  35.7547298  37.0391804  40.4633323  36.0578995  37.6476762
  41.5237446  36.5576378  36.6897261  40.3530081  23.2512429  46.5289473
  39.4352642  23.4727376  46.3711161  40.7690224  23.3258740  45.6701180
  41.1365128  24.6503845  41.6592153  41.8836947  25.1625242  41.3499275
  41.4056718  24.3287898  42.5196547  39.4091779  27.1462386  38.6419108
  38.5002998  26.8621418  38.7391577  39.4386862  27.5661464  37.7822415
  44.6411046  30.7568975  42.4110275  44.1873373  29.9159885  42.4675466
  44.0105013  31.3930373  42.7485055  43.5843966  21.6860961  43.6410943
  42.8466722  21.1738347  43.9721185  43.8370739  21.2461343  42.8294220
  43.0843985  32.5945472  43.3460093  43.3766960  33.1550529  42.6272459
  43.5942606  32.8874033  44.1013252  43.6855593  14.4637213  44.2352712
  43.9914470  13.6034576  43.9478627  44.4108198  15.0554833  44.0351706
  29.9779949  24.8667900  42.6234310  29.7804349  24.2737260  41.8985376
  29.4226613  24.5620110  43.3410249  37.9576673  24.7591006  44.7428903
  38.0125282  23.8064843  44.6671380  37.1467875  24.9150445  45.2270201
  39.1067866  28.6871129  35.9807186  38.6687296  27.9706988  35.5212824
  39.8478307  28.9147244  35.4192278  35.8969033  23.3768066  42.5019282
  35.0836898  23.6762236  42.9084474  36.3928027  22.9823755  43.2193764
  38.0477611  33.3725823  44.4353547  38.0053789  33.5986669  43.5062079
  38.9640309  33.1389197  44.5839348  41.4943244  23.8409890  51.3334176
  41.8492632  24.0681363  52.1928642  42.1415376  24.1728267  50.7111431
  47.2240981  26.9628326  42.0383505  47.0858880  27.1529922  41.1104694
  46.8677200  27.7247709  42.4951556  35.3883107  20.9486421  48.1180517
  36.0282487  20.8075180  47.4203480  34.5560638  20.6620935  47.7419119
  47.2510361  29.0304853  47.0494776  47.6846868  28.9380142  47.8977830
  47.9641942  29.0062354  46.4114792  36.1643411  30.2488852  44.2315509
  36.9584010  29.7539172  44.0298084  35.4535104  29.7206715  43.8683215
  40.9838256  32.6306947  48.5827877  41.0375278  33.1997884  49.3505593
  40.1153037  32.8008832  48.2181914  32.4726175  24.3931934  40.3075262
  31.5423763  24.3316389  40.5245224  32.5683647  23.8707886  39.5111903
  32.3911724  20.9186746  42.8953504  32.6518541  21.8332080  42.7862664
  33.2128896  20.4511189  43.0450116  33.8636649  22.3324504  50.0652328
  34.5359703  22.1241866  49.4164977  33.0366436  22.1346590  49.6257560
  48.1125910  29.0728554  49.5827662  48.3061801  29.9774364  49.8286937
  48.0126529  28.6135973  50.4166247  39.7662221  18.9586444  52.0817989
  39.1190136  19.6576394  51.9882465  40.5363237  19.3922588  52.4494237
  43.1741019  29.2235297  55.1568542  43.0226526  28.9945848  54.2398626
  43.1645699  30.1805898  55.1699887  39.9426356  26.7967209  50.1414809
  40.8718416  26.9478369  49.9683776  39.5217386  26.8851230  49.2863455
  38.7414687  30.8217874  47.9113346  38.6025773  30.4536658  48.7839285
  37.9529284  31.3365513  47.7397304  39.3362839  35.9226970  39.2538883
  39.5114595  35.4515013  40.0684506  38.6495627  36.5492736  39.4820144
  40.2919902  30.1999476  45.3002184  39.9569735  30.1600246  46.1959834
  39.7923848  29.5344192  44.8272594  34.2664146  25.6067107  50.8254765
  34.1283944  24.8747345  51.4266304  35.1769070  25.5176007  50.5438953
  43.2279094  27.5455511  35.5739244  42.6108265  26.8202339  35.4772297
  42.7595583  28.3064871  35.2306318  36.8946447  25.3187066  50.3138445
  37.6046066  24.6780258  50.2725063  36.8515755  25.5699961  51.2364626
  44.8833226  32.2554419  53.2345024  44.8245772  31.5713639  52.5675607
  45.2852744  32.9973409  52.7825650  35.6075381  22.3052284  52.1334084
  35.0712738  21.8543022  52.7855681  35.0192089  22.4398193  51.3904549
  33.9023925  39.0716333  46.0278743  34.1420523  39.7034857  46.7057762
  33.0593121  38.7204373  46.3144102  35.0177640  21.7640935  34.6960548
  34.1407106  21.6429736  34.3322795  35.4935393  20.9727013  34.4439437
  44.8850633  30.2194003  51.4659004  43.9977412  29.8819925  51.5885403
  45.4549184  29.4877034  51.7027769  26.5379780  26.5518095  44.7902055
  27.2250820  26.2379825  44.2023071  26.3827909  27.4559459  44.5169307
  31.3414502  21.4408291  49.2187079  31.2572691  20.8333961  48.4837489
  30.5197209  21.9317310  49.2196575  38.4151786  34.8795455  48.4320247
  38.3421958  35.6850427  48.9439552  37.9729180  35.0787421  47.6068268
  38.2041566  34.1167225  41.9423069  37.4209088  34.6588906  42.0361293
  38.9034311  34.6341205  42.3417310  41.5138216  19.9261855  44.5857274
  42.0106916  19.1731817  44.2658344  40.7425198  19.9626172  44.0200483
  49.3667974  25.6302220  46.2275566  49.3557850  26.5126936  45.8569499
  48.4985353  25.2773771  46.0330103  40.8750470  34.7782289  50.5878406
  41.5878442  35.4129754  50.5154307  40.3840499  34.8746155  49.7718408
  42.5967997  28.6833542  42.1595697  41.6624276  28.8035005  41.9900402
  42.7744665  27.7806009  41.8955707  38.0973185  22.0679238  44.3128959
  37.7270972  21.5150278  45.0009864  38.5932277  21.4637371  43.7603959
  45.9840548  24.5250861  42.6945732  46.4501000  25.3578853  42.6206034
  46.4348049  24.0595843  43.3990990  35.9262383  32.5276733  51.4083977
  36.6271843  33.1613216  51.5613371  35.4557498  32.8691464  50.6479616
  44.0516779  30.8694683  39.6931884  44.3276623  30.7551277  40.6025758
  43.1821278  30.4712168  39.6544057  43.9557211  16.8931448  46.7336633
  43.0420291  17.1235675  46.9018840  44.3850312  16.9769893  47.5850665
  43.7263669  25.0821340  49.2336527  43.0735120  25.3297248  48.5788980
  44.1044049  24.2685479  48.8999004  40.6870843  35.1181034  43.3364697
  40.8693238  34.3002690  43.7992450  41.5103829  35.3348726  42.8989587
  41.0213009  34.0449219  40.5979746  41.5500775  33.5341673  39.9849908
  41.2841228  33.7291749  41.4625279  39.7751242  25.8241151  55.7202564
  39.0991879  25.7235281  56.3904939  40.5978876  25.6680365  56.1838561
  31.5230102  32.0613088  48.3415079  32.1083538  31.3156776  48.4742983
  31.3254940  32.3717045  49.2251743  34.3768757  35.0964335  43.3577522
  33.7079132  35.5810463  42.8741562  34.2381626  35.3433556  44.2720900
  26.1147756  24.6318688  47.0619522  26.1531856  24.0982279  47.8556641
  25.6088049  24.1053894  46.4430500  38.5174025  37.1308079  49.9560180
  39.0692333  37.2939700  50.7209265  38.8580219  37.7212517  49.2840205
  33.4938519  19.4783229  50.5582065  33.5579845  20.3398060  50.1459462
  33.4305639  18.8657230  49.8254423  32.9690791  21.5506361  54.2055099
  33.5962830  21.1683439  54.8192623  32.1118710  21.3320563  54.5710791
  43.3684900  31.9569336  55.8108834  43.9124804  32.5699295  55.3163789
  42.7871745  32.5148915  56.3275847  29.7456334  23.3582790  40.1373454
  30.0409775  22.4493469  40.0840507  28.8444370  23.3370530  39.8154456
  41.6542413  35.0790054  46.9423862  41.5293552  34.2779794  46.4334808
  42.3121504  35.5736248  46.4537832  33.2750581  21.4338787  46.1201002
  32.5537167  22.0474755  45.9808476  34.0643837  21.9696552  46.0417648
  43.7177321  32.8799075  48.5703412  42.7707657  32.7604426  48.4981739
  44.0660094  31.9921573  48.6529674  36.0776894  18.7693213  52.3941654
  36.6011296  19.0155510  53.1567963  35.8589228  19.6013248  51.9744791
  31.4744175  21.0396888  40.2612779  31.1456882  20.1594267  40.0787885
  31.8283546  20.9844557  41.1489168  40.7223754  32.6751791  44.7707764
  40.5748717  31.7468498  44.9515335  41.5477248  32.6971881  44.2864840
  34.5885999  21.3269858  40.6288257  34.9282071  21.8555779  39.9066865
  35.0358119  21.6650264  41.4046823  44.3257876  33.4980349  45.8572637
  45.2504424  33.2923211  45.7197088  44.1573180  33.2496751  46.7661979
  37.2829439  19.7106909  50.0791325  36.9426260  18.9114722  50.4812005
  36.5768446  20.0108619  49.5068158  37.9345911  16.7956221  48.5318648
  38.7571981  16.3216699  48.4097538  38.1783975  17.5746705  49.0317334
  36.5754146  19.8244479  38.8281549  37.2962508  20.2025732  38.3245266
  35.9519450  20.5433356  38.9316527  40.7185269  20.5289628  39.7639882
  40.9348883  21.4114266  39.4628710  40.2379336  20.1375842  39.0345524
  35.4584490  23.4875342  46.3410626  35.3129071  23.8015645  47.2334908
  34.9809694  24.1060242  45.7881525  37.3180873  20.4777890  46.3891516
  37.3042442  19.5818983  46.0523814  38.0353301  20.4848553  47.0229802
  39.1707004  20.9115230  48.4344643  38.9124781  21.8332300  48.4328974
  38.6392044  20.5145664  49.1245107  44.1153192  34.0166017  41.2134729
  44.2890070  33.4512439  40.4608581  44.6082084  34.8166912  41.0314219
  29.9330152  26.0280686  49.2798287  29.3883620  26.8040494  49.4118562
  30.8109502  26.3751490  49.1217409  36.7217769  19.3592270  41.6579086
  36.8433680  18.4308916  41.8569974  36.4319811  19.3730956  40.7457401
  39.5908959  17.0447180  44.7945806  39.6130656  17.1086513  43.8397785
  40.0077018  16.2051689  44.9886312  49.9692584  26.7802440  42.8325028
  50.4123730  26.0309765  42.4344152  49.0919094  26.7712576  42.4498760
  45.1028365  33.3332781  38.3131627  45.7979269  33.9539474  38.5318942
  45.4451515  32.4828133  38.5884005  30.7196174  25.1550582  52.1728444
  29.9777910  25.3033218  52.7593075  30.3988918  25.4158848  51.3095194
  47.0019788  30.7832487  39.8418958  47.5271112  31.1219760  39.1168278
  46.9142141  29.8479502  39.6582092  38.6639837  34.6966560  51.9708834
  38.9726963  34.4515707  52.8431534  39.4615319  34.9013199  51.4827705
  38.6860449  36.8504470  44.2014211  38.2465439  36.3580849  44.8947068
  39.4368566  36.3077438  43.9606286  31.1652788  33.0416011  44.2038839
  31.9910808  32.7419783  43.8237483  30.8146840  32.2723633  44.6528628
  36.1334321  32.3942479  46.2736513  35.5114330  31.7313184  45.9738740
  36.8039188  32.4203611  45.5910160  29.3661393  30.9602337  45.1627773
  28.5293301  30.5324512  44.9811774  29.3385038  31.1534781  46.0998564
  36.2058848  20.8724267  55.8669019  36.2547004  21.7486390  55.4846788
  36.7481363  20.3301660  55.2940662  46.6913694  31.4165390  55.1470156
  45.9009238  31.3989529  54.6074655  46.4547049  31.9553684  55.9019192
  46.8111569  28.2657857  52.4602884  46.8609574  28.1007864  53.4018407
  46.7025492  27.3985116  52.0700765  35.6947828  30.9446403  39.7494973
  35.8435948  31.6281867  39.0961646  36.5014271  30.9251493  40.2644429
  44.1015331  24.2488785  53.7762191  45.0025194  24.1095250  53.4846189
  44.1763306  24.4143240  54.7160368  38.4358137  21.6255640  52.6215377
  37.5661446  21.9189206  52.3497966  38.6717617  22.2096085  53.3422641
  49.5125448  28.2507678  45.2247476  50.3472340  28.6897482  45.3885036
  49.6484577  27.7746331  44.4055722  46.5616954  25.8087413  51.1724964
  47.0371076  26.0015059  50.3643815  45.6382520  25.8646599  50.9268347
  33.4500461  26.9711580  40.7556042  33.2046503  26.0673910  40.9536252
  33.6196375  26.9728731  39.8135520  41.1397171  17.8435257  50.1380798
  41.6579114  18.5796283  49.8127286  40.7852303  18.1499250  50.9727557
  32.7196108  22.7039938  38.2542204  32.0265353  22.7784293  37.5982239
  32.4747860  21.9400281  38.7763720  41.3909765  14.2635539  45.6581694
  41.6711519  13.5958728  46.2842121  42.1760372  14.4564635  45.1456358
  39.1943233  33.4394533  37.2206721  38.6217200  34.0584720  36.7677192
  39.7676027  33.9893895  37.7546642  45.2618623  22.6853173  49.4053269
  46.2136046  22.7851271  49.4265493  45.0922074  21.8931442  49.9151354
  43.2833003  19.7708756  49.5912670  42.6882935  20.0513769  48.8959159
  42.9982699  20.2602657  50.3629411  42.4140493  33.7231683  38.3515303
  43.3471166  33.6577245  38.5548178  42.3263706  34.5587950  37.8929835
  45.0428510  33.0397553  35.3119250  44.9642141  32.7057417  36.2055008
  45.8638177  33.5319321  35.3110723  47.7406701  25.9059293  48.5195569
  47.7083021  24.9675294  48.7055253  48.3507325  25.9843330  47.7861394
  39.5790032  24.7755346  34.5622773  40.5249137  24.6461554  34.6311191
  39.2004277  24.0370008  35.0392201  47.8901189  22.6970336  48.5653852
  47.3740238  21.9128793  48.3783781  48.7741138  22.3689053  48.7300372
  45.5511916  16.4411352  44.5249665  45.3536737  16.1326440  45.4092997
  46.1611622  17.1672991  44.6547595  53.5583251  26.9675300  47.6601606
  54.2886639  26.7060588  48.2209309  52.9490196  26.2304022  47.7003674
  51.6398548  25.1083162  48.2576057  50.9131711  24.9739127  47.6492549
  51.2245835  25.4159991  49.0632775  39.4628724  28.8273092  56.0223430
  40.3831734  29.0051691  56.2163477  39.4278307  27.8829137  55.8703129
  37.7632949  22.7005322  34.4977658  36.8564404  22.4038435  34.5740372
  38.0408930  22.4035140  33.6311945  28.6810889  24.0211686  44.9476705
  28.3613674  23.1676994  44.6551079  28.1344318  24.2360264  45.7034672
  32.4590797  26.7374127  48.6646211  32.6776807  27.6691234  48.6834245
  32.8716571  26.3782101  49.4501015  39.3795015  17.2442212  40.6521900
  38.5695743  16.8989297  41.0277146  40.0679432  16.9349756  41.2409511
  41.3085563  16.3220259  42.2746196  41.8616602  16.7415712  42.9336219
  41.5455649  15.3956007  42.3169152  37.3318662  22.3107332  58.0548960
  37.2315389  23.2601689  57.9861051  37.1140204  21.9825571  57.1825030
  36.5331734  19.5592257  34.6389637  37.3950898  19.8847156  34.8985455
  36.7182078  18.7723753  34.1262703  28.5499149  27.6414597  46.9169826
  27.8562621  27.2268550  46.4039781  29.2972140  27.6835134  46.3203245
  44.6864370  18.4320784  41.7824860  44.1063039  19.0905588  41.4002913
  44.4200303  17.6098128  41.3712278  43.1367936  17.8325842  43.9846181
  43.6367715  17.9442376  43.1760500  43.7803544  17.5286894  44.6246989
  37.1949932  25.7404471  56.8714022  36.7117014  26.5404831  57.0777911
  37.2810871  25.7512416  55.9181466  30.4635892  27.5732851  44.7935841
  30.4406580  27.6720538  43.8417724  30.7736528  28.4198002  45.1153007
  33.1223270  29.6309006  48.9082456  34.0766523  29.5992948  48.8412387
  32.9235793  29.1699630  49.7232681  33.7122652  28.2010122  51.4753253
  34.5315541  28.6954201  51.4988091  33.9859460  27.2842090  51.4470821
  43.4689248  20.5920874  40.8381209  42.5815103  20.8770525  40.6201403
  43.8843237  20.4314638  39.9908486  46.8203784  20.6167395  44.5535548
  47.5964174  21.1063848  44.8260165  46.0951918  21.0425449  45.0107417
  49.2576343  21.3295014  45.6109489  49.8520834  21.0890750  44.9002797
  49.3302927  20.6102145  46.2383025  31.4773499  35.1728625  45.9252653
  31.3427966  34.4129026  45.3590651  31.0605561  35.8969525  45.4581442
  42.6132462  30.3565549  34.9329229  43.3168312  30.5615551  35.5486884
  41.8895110  30.9242311  35.1978312  43.4430272  26.1075410  41.0531499
  43.3865473  26.5643962  40.2139131  43.9958614  25.3466095  40.8754342
  47.2535078  21.8965142  41.8781618  46.9972012  21.4961778  42.7089826
  46.6287946  22.6108936  41.7531758  51.5647416  24.6361215  44.3852910
  51.0046974  24.7054405  45.1584472  50.9590919  24.4602200  43.6652406
  34.6342624  36.0697942  46.1371096  34.5175009  37.0143375  46.0349786
  33.8135071  35.7671504  46.5256895  44.5219159  30.7948078  36.9827689
  45.3564763  30.3629277  36.8005164  44.3603502  30.6230092  37.9104583
  44.1765051  27.2980191  38.3484028  44.1213855  27.1324463  37.4072472
  43.5511106  28.0056224  38.5046218  28.9657566  22.5348256  52.1745450
  29.6116430  22.0247210  52.6632675  28.7574717  23.2716937  52.7488876
  41.4910958  29.6029103  57.6737591  42.3602118  29.7769756  57.3124226
  41.0117710  30.4223520  57.5513320  37.4861177  16.7988300  37.9269346
  37.4739846  17.7430140  38.0837617  38.3784598  16.6158446  37.6328808
  35.6597139  36.7226204  49.3527024  36.5624385  36.7549815  49.6693519
  35.4334509  35.7926655  49.3673360  37.4150741  35.4757191  46.0137103
  36.4646372  35.4759052  45.9001475  37.7183227  34.7289925  45.4973138
  41.3013296  13.3931077  42.1815283  40.5345692  12.8389564  42.3271966
  41.7124001  13.4652946  43.0429435  33.3055057  19.6815873  56.2720465
  34.1686519  19.3252678  56.4823789  32.7320468  19.3429768  56.9595869
  49.9593140  41.2645157  47.0144390  49.6211652  41.1486222  46.1264925
  50.8282909  40.8636322  46.9945396  45.8179956  43.1180634  43.0041281
  45.2544821  43.0270571  42.2357569  45.7032351  42.2980538  43.4843774
  50.4412923  42.4180009  52.9730596  50.4301564  42.0232807  52.1011099
  50.6033563  41.6846082  53.5664367  43.3644388  44.6131825  45.8425502
  44.1565680  44.2722650  45.4271801  43.6041038  44.7226800  46.7627655
  45.3235142  43.8740739  38.7142880  46.0966018  43.3269726  38.5755756
  45.6760541  44.7384988  38.9257342  48.0876391  42.5793969  48.5111139
  48.6839964  42.3549992  47.7968102  48.1451363  41.8378715  49.1136587
  47.6601420  40.0333405  36.3461330  47.9126940  39.5114926  35.5844793
  46.7225979  39.8699550  36.4488014  52.7044703  39.0369183  44.1536074
  53.4907792  38.6188606  43.8026491  52.9683407  39.9415275  44.3217722
  52.8754780  44.4742033  38.8524730  52.2400613  44.5476660  39.5645635
  52.5452186  45.0635632  38.1743810  47.3797708  41.9361511  38.5485705
  47.2633967  41.2606414  39.2166790  47.4899968  41.4493885  37.7317858
  49.7229249  41.3971658  42.2532395  49.3587457  40.8702279  42.9645316
  50.5796365  41.0070127  42.0798880  49.3634736  36.4261557  37.2493743
  49.5309139  37.2941794  37.6164214  49.1731905  36.5888839  36.3255032
  45.5722551  41.3392333  44.9496278  44.6473047  41.2068547  45.1573970
  45.8206964  42.1186552  45.4466220  49.3423957  38.8819215  38.2340410
  49.2223582  39.3276266  39.0725890  48.6476546  39.2304533  37.6753948
  42.9331362  40.9825607  45.7840067  43.0623743  41.2360086  46.6979479
  42.2528813  41.5753315  45.4644722  47.1030849  51.6522857  41.8830541
  47.0254879  52.6030682  41.9619022  46.4992493  51.3068729  42.5405467
  49.5948079  38.8250722  54.5391908  48.8181413  39.3844642  54.5294773
  50.2338642  39.3107505  55.0606778  55.0409023  39.3540688  39.0620744
  55.9526879  39.5868075  38.8868441  54.5318670  39.9377732  38.4995823
  47.8494451  41.6336175  54.1009875  48.5909136  42.1721219  53.8244699
  47.1431437  42.2602464  54.2581427  49.6780861  38.7137923  50.0715593
  50.5242056  39.1377336  50.2150242  49.6179499  38.0571547  50.7654157
  52.3844998  35.5298724  47.3110605  51.5229477  35.8279978  47.6027342
  52.4107433  35.7469123  46.3791637  49.2006568  44.0740915  43.7184410
  49.6644913  44.3528618  42.9289033  48.9363366  43.1724359  43.5357501
  46.0930649  43.6212396  46.6564174  46.6632006  44.0499665  46.0181658
  46.6838760  43.3394981  47.3548359  48.1375454  40.1964067  40.5273976
  48.8399497  40.6485111  40.9947902  47.8056082  39.5547886  41.1553869
  46.5855815  38.7875824  54.9025185  45.9554476  39.4692105  55.1360582
  46.4791903  38.6758905  53.9578323  41.8800788  38.4547620  45.8291109
  41.0899842  38.7105148  45.3531220  42.3712035  39.2695958  45.9343150
  43.8315533  38.8192199  42.7874586  43.0346696  38.9310893  43.3058082
  43.6041125  39.1578851  41.9215476  40.1638491  38.7078110  48.2606100
  40.4146529  39.5925120  48.5263676  40.6998039  38.5282712  47.4881192
  49.3769218  47.0105010  40.6036081  49.2414893  47.8556545  41.0320929
  49.9179031  47.2124287  39.8402015  45.8636558  33.0896589  57.2650436
  45.4703503  32.5362788  57.9398080  46.6802698  33.4007168  57.6556954
  42.8298616  44.5280448  41.1764006  43.3423136  45.3223698  41.3269571
  43.4821328  43.8306738  41.1097607  44.6393500  47.6446204  43.2586759
  44.8160129  48.5664169  43.0707743  45.4350334  47.3304623  43.6881139
  48.7804519  34.5054469  54.8570693  49.5214232  35.1061622  54.7775155
  49.0122442  33.7632106  54.2988735  43.9245857  39.6910836  53.1348922
  43.8099372  38.7896093  53.4356021  43.0690375  39.9374533  52.7833739
  51.0037695  47.6328576  54.7336423  50.5601549  46.8464955  54.4157327
  51.6654908  47.8207727  54.0680314  40.7947532  42.8569102  41.9523576
  41.6322754  43.2666110  41.7357284  40.9725800  41.9168544  41.9223770
  52.6911965  40.5244183  37.6407409  52.1758588  41.2948787  37.8795797
  52.4189273  39.8509319  38.2640471  50.2759076  35.3693883  42.6992648
  49.4200672  34.9800734  42.5198286  50.6886027  35.4485844  41.8392433
  51.8058222  32.9040227  47.0984208  51.3023018  32.8670362  46.2852013
  52.0988829  33.8132969  47.1580864  48.0501108  32.9878956  46.1050389
  48.9154105  32.7921765  45.7456279  48.1178617  32.7589308  47.0319746
  52.4798268  38.3971275  39.4667191  52.1748403  38.7117424  40.3177334
  53.4328710  38.4752695  39.5094524  50.9244700  44.5561498  41.1160145
  50.3966061  43.8214258  40.8033382  50.4232202  45.3336174  40.8700113
  45.6563427  35.2181164  43.4766756  46.2307179  34.9956346  42.7439949
  46.2434410  35.2869859  44.2295357  45.9833014  37.2485625  37.4962641
  45.1470327  37.5860312  37.8171916  45.8437784  37.1134605  36.5589778
  47.9586095  32.0922413  42.2041826  47.3050507  31.7771430  41.5798440
  47.9166569  31.4698154  42.9301648  49.0697300  42.3741708  34.1195118
  48.1624361  42.1430962  34.3186267  49.5668332  41.5779328  34.3069099
  51.9765379  51.0839216  37.0391804  51.3027077  51.3870912  37.6476762
  52.3631201  51.8868296  36.6897261  51.1923835  38.5804347  46.5289473
  50.2746397  38.8019294  46.3711161  51.6083979  38.6550657  45.6701180
  51.9758883  39.9795762  41.6592153  52.7230702  40.4917160  41.3499275
  52.2450473  39.6579815  42.5196547  50.2485533  42.4754303  38.6419108
  49.3396752  42.1913336  38.7391577  50.2780617  42.8953382  37.7822415
  54.4237720  37.0152879  43.6410943  53.6860477  36.5030265  43.9721185
  54.6764494  36.5753260  42.8294220  54.5249347  29.7929131  44.2352712
  54.8308224  28.9326494  43.9478627  55.2501952  30.3846751  44.0351706
  40.8173704  40.1959817  42.6234310  40.6198103  39.6029178  41.8985376
  40.2620368  39.8912027  43.3410249  48.7970427  40.0882924  44.7428903
  48.8519037  39.1356760  44.6671380  47.9861629  40.2442363  45.2270201
  49.9461621  44.0163047  35.9807186  49.5081051  43.2998906  35.5212824
  50.6872062  44.2439162  35.4192278  46.7362787  38.7059984  42.5019282
  45.9230653  39.0054154  42.9084474  47.2321781  38.3115672  43.2193764
  58.0634736  42.2920244  42.0383505  57.9252634  42.4821840  41.1104694
  57.7070955  43.0539627  42.4951556  46.2276862  36.2778339  48.1180517
  46.8676241  36.1367098  47.4203480  45.3954392  35.9912852  47.7419119
  47.0037166  45.5780769  44.2315509  47.7977764  45.0831090  44.0298084
  46.2928858  45.0498633  43.8683215  43.3119929  39.7223851  40.3075262
  42.3817517  39.6608307  40.5245224  43.4077401  39.1999804  39.5111903
  43.2305478  36.2478664  42.8953504  43.4912296  37.1623997  42.7862664
  44.0522651  35.7803107  43.0450116  44.7030404  37.6616421  50.0652328
  45.3753457  37.4533783  49.4164977  43.8760190  37.4638507  49.6257560
  54.0134774  44.5527214  55.1568542  53.8620280  44.3237766  54.2398626
  54.0039453  45.5097816  55.1699887  50.7820110  42.1259127  50.1414809
  51.7112170  42.2770287  49.9683776  50.3611140  42.2143148  49.2863455
  45.1057901  40.9359024  50.8254765  44.9677699  40.2039263  51.4266304
  46.0162824  40.8467924  50.5438953  54.0672849  42.8747428  35.5739244
  53.4502019  42.1494257  35.4772297  53.5989337  43.6356789  35.2306318
  47.7340202  40.6478984  50.3138445  48.4439820  40.0072176  50.2725063
  47.6909510  40.8991878  51.2364626  46.4469136  37.6344201  52.1334084
  45.9106493  37.1834940  52.7855681  45.8585844  37.7690110  51.3904549
  45.8571394  37.0932853  34.6960548  44.9800861  36.9721654  34.3322795
  46.3329148  36.3018931  34.4439437  37.3773535  41.8810013  44.7902055
  38.0644574  41.5671743  44.2023071  37.2221663  42.7851377  44.5169307
  42.1808257  36.7700209  49.2187079  42.0966446  36.1625879  48.4837489
  41.3590963  37.2609227  49.2196575  52.3531971  35.2553773  44.5857274
  52.8500670  34.5023735  44.2658344  51.5818952  35.2918089  44.0200483
  48.9366939  37.3971156  44.3128959  48.5664727  36.8442196  45.0009864
  49.4326032  36.7929289  43.7603959  54.7950965  32.2223366  46.7336633
  53.8814045  32.4527593  46.9018840  55.2244067  32.3061810  47.5850665
  50.6144997  41.1533069  55.7202564  49.9385634  41.0527198  56.3904939
  51.4372631  40.9972283  56.1838561  42.3623856  47.3905006  48.3415079
  42.9477293  46.6448694  48.4742983  42.1648694  47.7008962  49.2251743
  45.2162511  50.4256253  43.3577522  44.5472887  50.9102381  42.8741562
  45.0775381  50.6725474  44.2720900  36.9541511  39.9610606  47.0619522
  36.9925610  39.4274197  47.8556641  36.4481804  39.4345811  46.4430500
  44.3332273  34.8075146  50.5582065  44.3973600  35.6689977  50.1459462
  44.2699393  34.1949148  49.8254423  43.8084546  36.8798279  54.2055099
  44.4356584  36.4975356  54.8192623  42.9512464  36.6612481  54.5710791
  54.2078654  47.2861254  55.8108834  54.7518558  47.8991212  55.3163789
  53.6265499  47.8440833  56.3275847  40.5850088  38.6874708  40.1373454
  40.8803529  37.7785386  40.0840507  39.6838124  38.6662447  39.8154456
  44.1144335  36.7630705  46.1201002  43.3930921  37.3766672  45.9808476
  44.9037591  37.2988469  46.0417648  46.9170649  34.0985131  52.3941654
  47.4405051  34.3447428  53.1567963  46.6982982  34.9305166  51.9744791
  42.3137930  36.3688806  40.2612779  41.9850636  35.4886185  40.0787885
  42.6677301  36.3136474  41.1489168  45.4279753  36.6561775  40.6288257
  45.7675826  37.1847697  39.9066865  45.8751874  36.9942182  41.4046823
  48.1223194  35.0398826  50.0791325  47.7820014  34.2406639  50.4812005
  47.4162200  35.3400537  49.5068158  48.7739666  32.1248139  48.5318648
  49.5965735  31.6508617  48.4097538  49.0177729  32.9038622  49.0317334
  47.4147900  35.1536397  38.8281549  48.1356263  35.5317650  38.3245266
  46.7913204  35.8725274  38.9316527  51.5579023  35.8581546  39.7639882
  51.7742637  36.7406184  39.4628710  51.0773090  35.4667759  39.0345524
  46.2978244  38.8167259  46.3410626  46.1522825  39.1307562  47.2334908
  45.8203448  39.4352160  45.7881525  48.1574627  35.8069807  46.3891516
  48.1436196  34.9110901  46.0523814  48.8747055  35.8140471  47.0229802
  50.0100758  36.2407147  48.4344643  49.7518536  37.1624218  48.4328974
  49.4785798  35.8437582  49.1245107  40.7723907  41.3572604  49.2798287
  40.2277375  42.1332412  49.4118562  41.6503257  41.7043408  49.1217409
  47.5611523  34.6884188  41.6579086  47.6827434  33.7600834  41.8569974
  47.2713566  34.7022874  40.7457401  50.4302714  32.3739098  44.7945806
  50.4524411  32.4378431  43.8397785  50.8470773  31.5343607  44.9886312
  55.9422119  48.6624699  38.3131627  56.6373024  49.2831392  38.5318942
  56.2845269  47.8120050  38.5884005  41.5589929  40.4842500  52.1728444
  40.8171665  40.6325135  52.7593075  41.2382673  40.7450766  51.3095194
  42.0046542  48.3707929  44.2038839  42.8304562  48.0711701  43.8237483
  41.6540594  47.6015551  44.6528628  40.2055147  46.2894255  45.1627773
  39.3687056  45.8616429  44.9811774  40.1778793  46.4826698  46.0998564
  47.0452603  36.2016185  55.8669019  47.0940758  37.0778308  55.4846788
  47.5875117  35.6593578  55.2940662  57.5307449  46.7457308  55.1470156
  56.7402992  46.7281447  54.6074655  57.2940803  47.2845602  55.9019192
  46.5341582  46.2738320  39.7494973  46.6829703  46.9573785  39.0961646
  47.3408026  46.2543410  40.2644429  49.2751891  36.9547557  52.6215377
  48.4055201  37.2481123  52.3497966  49.5111372  37.5388002  53.3422641
  44.2894215  42.3003498  40.7556042  44.0440257  41.3965828  40.9536252
  44.4590130  42.3020648  39.8135520  43.5589863  38.0331855  38.2542204
  42.8659108  38.1076210  37.5982239  43.3141615  37.2692199  38.7763720
  52.2303519  29.5927457  45.6581694  52.5105273  28.9250646  46.2842121
  53.0154126  29.7856552  45.1456358  50.0336988  48.7686451  37.2206721
  49.4610955  49.3876638  36.7677192  50.6069781  49.3185812  37.7546642
  55.8822264  48.3689471  35.3119250  55.8035896  48.0349335  36.2055008
  56.7031931  48.8611239  35.3110723  50.4183786  40.1047263  34.5622773
  51.3642891  39.9753472  34.6311191  50.0398031  39.3661925  35.0392201
  56.3905671  31.7703269  44.5249665  56.1930492  31.4618358  45.4092997
  57.0005376  32.4964908  44.6547595  50.3022479  44.1565010  56.0223430
  51.2225488  44.3343609  56.2163477  50.2672062  43.2121055  55.8703129
  48.6026703  38.0297240  34.4977658  47.6958159  37.7330353  34.5740372
  48.8802684  37.7327058  33.6311945  39.5204644  39.3503603  44.9476705
  39.2007428  38.4968911  44.6551079  38.9738072  39.5652181  45.7034672
  43.2984551  42.0666044  48.6646211  43.5170561  42.9983152  48.6834245
  43.7110325  41.7074019  49.4501015  50.2188769  32.5734130  40.6521900
  49.4089497  32.2281215  41.0277146  50.9073186  32.2641673  41.2409511
  52.1479317  31.6512176  42.2746196  52.7010356  32.0707630  42.9336219
  52.3849404  30.7247924  42.3169152  48.1712417  37.6399250  58.0548960
  48.0709144  38.5893607  57.9861051  47.9533959  37.3117489  57.1825030
  47.3725488  34.8884175  34.6389637  48.2344652  35.2139073  34.8985455
  47.5575832  34.1015671  34.1262703  39.3892904  42.9706515  46.9169826
  38.6956375  42.5560468  46.4039781  40.1365895  43.0127051  46.3203245
  55.5258125  33.7612702  41.7824860  54.9456794  34.4197506  41.4002913
  55.2594057  32.9390046  41.3712278  53.9761691  33.1617759  43.9846181
  54.4761469  33.2734294  43.1760500  54.6197299  32.8578812  44.6246989
  48.0343687  41.0696389  56.8714022  47.5510768  41.8696749  57.0777911
  48.1204626  41.0804334  55.9181466  41.3029646  42.9024769  44.7935841
  41.2800334  43.0012456  43.8417724  41.6130283  43.7489919  45.1153007
  43.9617024  44.9600924  48.9082456  44.9160278  44.9284866  48.8412387
  43.7629548  44.4991547  49.7232681  44.5516406  43.5302040  51.4753253
  45.3709295  44.0246118  51.4988091  44.8253214  42.6134008  51.4470821
  54.3083003  35.9212792  40.8381209  53.4208858  36.2062443  40.6201403
  54.7236992  35.7606555  39.9908486  57.6597539  35.9459313  44.5535548
  58.4357929  36.4355765  44.8260165  56.9345673  36.3717367  45.0107417
  42.3167253  50.5020543  45.9252653  42.1821721  49.7420944  45.3590651
  41.8999315  51.2261443  45.4581442  53.4526216  45.6857467  34.9329229
  54.1562066  45.8907469  35.5486884  52.7288865  46.2534228  35.1978312
  54.2824026  41.4367328  41.0531499  54.2259228  41.8935879  40.2139131
  54.8352369  40.6758012  40.8754342  58.0928832  37.2257060  41.8781618
  57.8365766  36.8253695  42.7089826  57.4681700  37.9400854  41.7531758
  62.4041170  39.9653133  44.3852910  61.8440728  40.0346322  45.1584472
  61.7984673  39.7894118  43.6652406  45.4736379  51.3989860  46.1371096
  45.3568763  52.3435293  46.0349786  44.6528825  51.0963422  46.5256895
  55.3612913  46.1239996  36.9827689  56.1958517  45.6921194  36.8005164
  55.1997256  45.9522009  37.9104583  55.0158806  42.6272109  38.3484028
  54.9607609  42.4616380  37.4072472  54.3904861  43.3348142  38.5046218
  39.8051321  37.8640173  52.1745450  40.4510184  37.3539127  52.6632675
  39.5968472  38.6008855  52.7488876  52.3304713  44.9321021  57.6737591
  53.1995872  45.1061673  57.3124226  51.8511464  45.7515438  57.5513320
  48.3254931  32.1280218  37.9269346  48.3133601  33.0722058  38.0837617
  49.2178353  31.9450363  37.6328808  52.1407051  28.7222995  42.1815283
  51.3739446  28.1681481  42.3271966  52.5517755  28.7944863  43.0429435
  44.1448812  35.0107791  56.2720465  45.0080273  34.6544595  56.4823789
  43.5714222  34.6721685  56.9595869  62.2373269  62.1143519  38.3155746
  61.5861249  62.6997600  37.9289760  63.0317632  62.6449714  38.3750784
  58.4995174  55.3625322  36.3461330  58.7520695  54.8406844  35.5844793
  57.5619733  55.1991468  36.4488014  60.2028491  51.7553475  37.2493743
  60.3702893  52.6233712  37.6164214  60.0125660  51.9180757  36.3255032
  60.1817712  54.2111133  38.2340410  60.0617337  54.6568183  39.0725890
  59.4870300  54.5596450  37.6753948  56.7030312  48.4188507  57.2650436
  56.3097258  47.8654706  57.9398080  57.5196453  48.7299086  57.6556954
  56.8226769  52.5777543  37.4962641  55.9864081  52.9152230  37.8171916
  56.6831538  52.4426523  36.5589778  59.9091054  57.7033626  34.1195118
  59.0018116  57.4722879  34.3186267  60.4062086  56.9071245  34.3069099
  62.8159133  66.4131133  37.0391804  62.1420832  66.7162830  37.6476762
  63.2024955  67.2160214  36.6897261  60.7855375  59.3454965  35.9807186
  60.3474805  58.6290823  35.5212824  61.5265816  59.5731079  35.4192278
  57.5756542  54.0351901  42.5019282  56.7624407  54.3346072  42.9084474
  58.0715536  53.6407590  43.2193764  61.0150348  66.5810806  39.2538883
  61.1902104  66.1098849  40.0684506  60.3283136  67.2076572  39.4820144
  64.9066603  58.2039346  35.5739244  64.2895774  57.4786174  35.4772297
  64.4383092  58.9648706  35.2306318  56.6965149  52.4224770  34.6960548
  55.8194615  52.3013571  34.3322795  57.1722902  51.6310849  34.4439437
  65.7304288  61.5278518  39.6931884  66.0064132  61.4135113  40.6025758
  64.8608787  61.1296003  39.6544057  58.2541655  50.4828315  38.8281549
  58.9750017  50.8609568  38.3245266  57.6306959  51.2017192  38.9316527
  62.3972778  51.1873464  39.7639882  62.6136392  52.0698102  39.4628710
  61.9166845  50.7959677  39.0345524  58.4005278  50.0176105  41.6579086
  58.5221189  49.0892751  41.8569974  58.1107320  50.0314791  40.7457401
  66.7815874  63.9916617  38.3131627  67.4766778  64.6123309  38.5318942
  67.1239024  63.1411968  38.5884005  60.8730742  64.0978368  37.2206721
  60.3004709  64.7168555  36.7677192  61.4463536  64.6477730  37.7546642
  64.0928002  64.3815518  38.3515303  65.0258675  64.3161080  38.5548178
  64.0051215  65.2171785  37.8929835  66.7216019  63.6981389  35.3119250
  66.6429650  63.3641252  36.2055008  67.5425686  64.1903157  35.3110723
  61.2577541  55.4339181  34.5622773  62.2036645  55.3045389  34.6311191
  60.8791786  54.6953843  35.0392201  59.4420458  53.3589158  34.4977658
  58.5351913  53.0622270  34.5740372  59.7196439  53.0618976  33.6311945
  58.2119243  50.2176093  34.6389637  59.0738407  50.5430991  34.8985455
  58.3969587  49.4307589  34.1262703  64.2919971  61.0149384  34.9329229
  64.9955821  61.2199387  35.5486884  63.5682619  61.5826146  35.1978312
  66.2006668  61.4531913  36.9827689  67.0352272  61.0213112  36.8005164
  66.0391011  61.2813927  37.9104583  59.1648686  47.4572136  37.9269346
  59.1527355  48.4013976  38.0837617  60.0572107  47.2742281  37.6328808
  54.9842566  50.3399708  56.2720465  55.8474028  49.9836513  56.4823789
  54.4107977  50.0013603  56.9595869  73.0767024  77.4435437  38.3155746
  72.4255003  78.0289517  37.9289760  73.8711387  77.9741632  38.3750784
  67.0022651  74.5324574  38.7142880  67.7753527  73.9853561  38.5755756
  67.3548050  75.3968823  38.9257342  69.3388929  70.6917240  36.3461330
  69.5914449  70.1698761  35.5844793  68.4013488  70.5283385  36.4488014
  71.0422245  67.0845393  37.2493743  71.2096648  67.9525629  37.6164214
  70.8519414  67.2472674  36.3255032  76.7196532  70.0124523  39.0620744
  77.6314388  70.2451910  38.8868441  76.2106179  70.5961568  38.4995823
  71.0556727  77.6688845  40.6036081  70.9202402  78.5140381  41.0320929
  71.5966540  77.8708123  39.8402015  74.3699474  71.1828018  37.6407409
  73.8546097  71.9532623  37.8795797  74.0976782  70.5093154  38.2640471
  74.1585777  69.0555110  39.4667191  73.8535912  69.3701259  40.3177334
  75.1116219  69.1336530  39.5094524  67.6620523  67.9069461  37.4962641
  66.8257836  68.2444147  37.8171916  67.5225293  67.7718441  36.5589778
  70.7484809  73.0325544  34.1195118  69.8411870  72.8014797  34.3186267
  71.2455841  72.2363163  34.3069099  73.6552888  81.7423051  37.0391804
  72.9814586  82.0454748  37.6476762  74.0418710  82.5452131  36.6897261
  73.6546392  70.6379598  41.6592153  74.4018211  71.1500995  41.3499275
  73.9237982  70.3163651  42.5196547  62.4961213  70.8543653  42.6234310
  62.2985612  70.2613013  41.8985376  61.9407877  70.5495863  43.3410249
  71.6249130  74.6746882  35.9807186  71.1868560  73.9582741  35.5212824
  72.3659571  74.9022997  35.4192278  71.8544103  81.9102723  39.2538883
  72.0295858  81.4390766  40.0684506  71.1676891  82.5368489  39.4820144
  75.7460358  73.5331264  35.5739244  75.1289528  72.8078092  35.4772297
  75.2776846  74.2940624  35.2306318  67.5358903  67.7516688  34.6960548
  66.6588370  67.6305489  34.3322795  68.0116657  66.9602766  34.4439437
  70.7222830  80.1042979  41.9423069  69.9390351  80.6464659  42.0361293
  71.4215575  80.6216958  42.3417310  73.2052107  81.1056787  43.3364697
  73.3874501  80.2878443  43.7992450  74.0285093  81.3224479  42.8989587
  73.5394272  80.0324972  40.5979746  74.0682039  79.5217426  39.9849908
  73.8022492  79.7167502  41.4625279  69.0935409  65.8120232  38.8281549
  69.8143772  66.1901485  38.3245266  68.4700713  66.5309109  38.9316527
  73.2366532  66.5165381  39.7639882  73.4530146  67.3990019  39.4628710
  72.7560599  66.1251595  39.0345524  68.2129091  76.9322156  39.7494973
  68.3617212  77.6157620  39.0961646  69.0195535  76.9127246  40.2644429
  65.2377372  68.6915691  38.2542204  64.5446617  68.7660046  37.5982239
  64.9929124  67.9276034  38.7763720  71.7124497  79.4270286  37.2206721
  71.1398464  80.0460473  36.7677192  72.2857290  79.9769648  37.7546642
  74.9321757  79.7107436  38.3515303  75.8652430  79.6452998  38.5548178
  74.8444969  80.5463703  37.8929835  77.5609773  79.0273307  35.3119250
  77.4823405  78.6933170  36.2055008  78.3819440  79.5195074  35.3110723
  72.0971295  70.7631099  34.5622773  73.0430400  70.6337307  34.6311191
  71.7185540  70.0245761  35.0392201  70.2814212  68.6881075  34.4977658
  69.3745668  68.3914188  34.5740372  70.5590193  68.3910893  33.6311945
  71.8976278  63.2317965  40.6521900  71.0877006  62.8865050  41.0277146
  72.5860695  62.9225509  41.2409511  69.0512997  65.5468010  34.6389637
  69.9132161  65.8722909  34.8985455  69.2363341  64.7599506  34.1262703
  75.1313725  76.3441302  34.9329229  75.8349575  76.5491304  35.5486884
  74.4076374  76.9118064  35.1978312  75.9611535  72.0951163  41.0531499
  75.9046737  72.5519715  40.2139131  76.5139878  71.3341848  40.8754342
  76.6946315  73.2855944  38.3484028  76.6395118  73.1200216  37.4072472
  76.0692370  73.9931977  38.5046218  70.0042440  62.7864053  37.9269346
  69.9921110  63.7305893  38.0837617  70.8965862  62.6034199  37.6328808
  78.3361219  89.1056387  43.0041281  77.7726085  89.0146324  42.2357569
  78.2213615  88.2856291  43.4843774  75.8825651  90.6007578  45.8425502
  76.6746943  90.2598403  45.4271801  76.1222302  90.7102553  46.7627655
  83.9160778  92.7727354  38.3155746  83.2648758  93.3581435  37.9289760
  84.7105141  93.3033549  38.3750784  77.8416405  89.8616492  38.7142880
  78.6147281  89.3145479  38.5755756  78.1941804  90.7260741  38.9257342
  80.1782683  86.0209158  36.3461330  80.4308204  85.4990679  35.5844793
  79.2407242  85.8575303  36.4488014  85.3936043  90.4617786  38.8524730
  84.7581876  90.5352413  39.5645635  85.0633450  91.0511385  38.1743810
  79.8978972  87.9237264  38.5485705  79.7815230  87.2482167  39.2166790
  80.0081232  87.4369638  37.7317858  78.0903814  87.3268086  44.9496278
  77.1654311  87.1944300  45.1573970  78.3388228  88.1062305  45.4466220
  81.8605221  84.8694968  38.2340410  81.7404846  85.3152019  39.0725890
  81.1657809  85.2180286  37.6753948  75.4512626  86.9701360  45.7840067
  75.5805007  87.2235839  46.6979479  74.7710077  87.5629068  45.4644722
  79.6212113  97.6398610  41.8830541  79.5436142  98.5906435  41.9619022
  79.0173756  97.2944482  42.5405467  81.7187831  90.0616668  43.7184410
  82.1826177  90.3404371  42.9289033  81.4544629  89.1600112  43.5357501
  78.6111912  89.6088149  46.6564174  79.1813269  90.0375418  46.0181658
  79.2020024  89.3270734  47.3548359  80.6556717  86.1839820  40.5273976
  81.3580760  86.6360864  40.9947902  80.3237346  85.5423639  41.1553869
  74.3982051  84.4423373  45.8291109  73.6081105  84.6980901  45.3531220
  74.8893298  85.2571711  45.9343150  76.3496796  84.8067952  42.7874586
  75.5527960  84.9186646  43.3058082  76.1222389  85.1454604  41.9215476
  81.8950482  92.9980763  40.6036081  81.7596156  93.8432298  41.0320929
  82.4360294  93.2000040  39.8402015  75.3479879  90.5156201  41.1764006
  75.8604400  91.3099451  41.3269571  76.0002592  89.8182491  41.1097607
  77.1574764  93.6321957  43.2586759  77.3341392  94.5539922  43.0707743
  77.9531597  93.3180376  43.6881139  78.2806079  95.1500131  49.2597101
  78.8313504  95.0217194  48.4874095  77.4417555  95.4495020  48.9091994
  73.3128796  88.8444855  41.9523576  74.1504018  89.2541863  41.7357284
  73.4907064  87.9044297  41.9223770  90.1827502  89.2652290  39.5760583
  89.4056945  88.9263450  39.1315745  90.8618983  89.2704913  38.9015548
  83.4425963  90.5437251  41.1160145  82.9147325  89.8090011  40.8033382
  82.9413466  91.3211927  40.8700113  78.5014278  83.2361378  37.4962641
  77.6651590  83.5736065  37.8171916  78.3619047  83.1010358  36.5589778
  81.5878563  88.3617461  34.1195118  80.6805625  88.1306715  34.3186267
  82.0849595  87.5655081  34.3069099  84.4946642  97.0714969  37.0391804
  83.8208341  97.3746665  37.6476762  84.8812464  97.8744049  36.6897261
  82.7666797  88.4630056  38.6419108  81.8578016  88.1789089  38.7391577
  82.7961880  88.8829135  37.7822415  87.9986064  92.0736646  42.4110275
  87.5448391  91.2327556  42.4675466  87.3680031  92.7098044  42.7485055
  86.4419003  93.9113142  43.3460093  86.7341978  94.4718200  42.6272459
  86.9517624  94.2041703  44.1013252  73.3354967  86.1835570  42.6234310
  73.1379367  85.5904931  41.8985376  72.7801631  85.8787781  43.3410249
  82.4642884  90.0038800  35.9807186  82.0262314  89.2874659  35.5212824
  83.2053325  90.2314915  35.4192278  79.2544051  84.6935737  42.5019282
  78.4411916  84.9929907  42.9084474  79.7503045  84.2991425  43.2193764
  81.4052628  94.6893493  44.4353547  81.3628807  94.9154340  43.5062079
  82.3215327  94.4556868  44.5839348  79.5218429  91.5656522  44.2315509
  80.3159028  91.0706843  44.0298084  78.8110122  91.0374386  43.8683215
  75.8301193  85.7099604  40.3075262  74.8998781  85.6484060  40.5245224
  75.9258665  85.1875557  39.5111903  75.7486742  82.2354417  42.8953504
  76.0093559  83.1499750  42.7862664  76.5703914  81.7678860  43.0450116
  82.6937857  97.2394641  39.2538883  82.8689613  96.7682684  40.0684506
  82.0070645  97.8660407  39.4820144  77.2598943 100.3884004  46.0278743
  77.4995541 101.0202528  46.7057762  76.4168139 100.0372044  46.3144102
  78.3752658  83.0808606  34.6960548  77.4982124  82.9597407  34.3322795
  78.8510411  82.2894684  34.4439437  69.8954798  87.8685766  44.7902055
  70.5825838  87.5547496  44.2023071  69.7402927  88.7727130  44.5169307
  81.7726804  96.1963126  48.4320247  81.6996976  97.0018098  48.9439552
  81.3304197  96.3955092  47.6068268  81.5616584  95.4334896  41.9423069
  80.7784106  95.9756576  42.0361293  82.2609329  95.9508876  42.3417310
  85.9543015  90.0001213  42.1595697  85.0199294  90.1202675  41.9900402
  86.1319683  89.0973680  41.8955707  87.4091797  92.1862353  39.6931884
  87.6851641  92.0718948  40.6025758  86.5396296  91.7879838  39.6544057
  84.0445861  96.4348704  43.3364697  84.2268256  95.6170360  43.7992450
  84.8678847  96.6516397  42.8989587  84.3788027  95.3616889  40.5979746
  84.9075793  94.8509344  39.9849908  84.6416246  95.0459420  41.4625279
  74.8805119  93.3780759  48.3415079  75.4658556  92.6324447  48.4742983
  74.6829958  93.6884715  49.2251743  77.7343775  96.4132006  43.3577522
  77.0654150  96.8978134  42.8741562  77.5956644  96.6601227  44.2720900
  81.8749043  98.4475750  49.9560180  82.4267351  98.6107371  50.7209265
  82.2155237  99.0380187  49.2840205  73.1031352  84.6750461  40.1373454
  73.3984793  83.7661139  40.0840507  72.2019388  84.6538201  39.8154456
  85.0117431  96.3957725  46.9423862  84.8868570  95.5947465  46.4334808
  85.6696522  96.8903919  46.4537832  76.6325599  82.7506458  46.1201002
  75.9112185  83.3642425  45.9808476  77.4218855  83.2864222  46.0417648
  74.8319193  82.3564559  40.2612779  74.5031900  81.4761938  40.0787885
  75.1858564  82.3012227  41.1489168  84.0798772  93.9919461  44.7707764
  83.9323735  93.0636169  44.9515335  84.9052266  94.0139552  44.2864840
  77.9461017  82.6437529  40.6288257  78.2857089  83.1723450  39.9066865
  78.3933137  82.9817935  41.4046823  87.6832894  94.8148020  45.8572637
  88.6079442  94.6090882  45.7197088  87.5148197  94.5664421  46.7661979
  79.9329164  81.1412150  38.8281549  80.6537526  81.5193403  38.3245266
  79.3094468  81.8601027  38.9316527  87.4728210  95.3333688  41.2134729
  87.6465088  94.7680110  40.4608581  87.9657102  96.1334583  41.0314219
  88.4603383  94.6500452  38.3131627  89.1554287  95.2707145  38.5318942
  88.8026533  93.7995803  38.5884005  74.0771192  86.4718253  52.1728444
  73.3352928  86.6200888  52.7593075  73.7563936  86.7326519  51.3095194
  90.3594806  92.1000158  39.8418958  90.8846130  92.4387430  39.1168278
  90.2717158  91.1647173  39.6582092  82.0435467  98.1672141  44.2014211
  81.6040457  97.6748520  44.8947068  82.7943584  97.6245109  43.9606286
  74.5227806  94.3583682  44.2038839  75.3485826  94.0587454  43.8237483
  74.1721858  93.5891304  44.6528628  79.4909339  93.7110150  46.2736513
  78.8689348  93.0480855  45.9738740  80.1614206  93.7371282  45.5910160
  72.7236411  92.2770008  45.1627773  71.8868319  91.8492183  44.9811774
  72.6960056  92.4702451  46.0998564  79.0522846  92.2614073  39.7494973
  79.2010966  92.9449538  39.0961646  79.8589289  92.2419163  40.2644429
  76.8075479  88.2879251  40.7556042  76.5621521  87.3841581  40.9536252
  76.9771393  88.2896401  39.8135520  76.0771126  84.0207608  38.2542204
  75.3840371  84.0951963  37.5982239  75.8322878  83.2567952  38.7763720
  82.5518251  94.7562204  37.2206721  81.9792218  95.3752391  36.7677192
  83.1251045  95.3061565  37.7546642  85.7715511  95.0399354  38.3515303
  86.7046184  94.9744916  38.5548178  85.6838724  95.8755621  37.8929835
  88.4003528  94.3565224  35.3119250  88.3217159  94.0225088  36.2055008
  89.2213195  94.8486992  35.3110723  75.8165815  88.0541797  48.6646211
  76.0351825  88.9858905  48.6834245  76.2291589  87.6949772  49.4501015
  71.9074167  88.9582268  46.9169826  71.2137639  88.5436221  46.4039781
  72.6547158  89.0002804  46.3203245  73.8210910  88.8900522  44.7935841
  73.7981598  88.9888209  43.8417724  74.1311546  89.7365672  45.1153007
  76.4798288  90.9476677  48.9082456  77.4341541  90.9160619  48.8412387
  76.2810811  90.4867300  49.7232681  74.8348516  96.4896296  45.9252653
  74.7002984  95.7296697  45.3590651  74.4180579  97.2137196  45.4581442
  85.9707479  91.6733220  34.9329229  86.6743330  91.8783222  35.5486884
  85.2470128  92.2409981  35.1978312  77.9917642  97.3865613  46.1371096
  77.8750027  98.3311046  46.0349786  77.1710089  97.0839175  46.5256895
  87.8794177  92.1115749  36.9827689  88.7139781  91.6796947  36.8005164
  87.7178520  91.9397762  37.9104583  79.0172156  98.0393875  49.3527024
  79.9199403  98.0717485  49.6693519  78.7909527  97.1094326  49.3673360
  80.7725758  96.7924862  46.0137103  79.8221390  96.7926723  45.9001475
  81.0758245  96.0457596  45.4973138  96.5078452 102.6285400  47.0782866
  97.1456862 102.5092147  46.3746206  96.3899295 103.5766244  47.1370818
  93.3168158 102.5812828  47.0144390  92.9786670 102.4653893  46.1264925
  94.1857926 102.1803993  46.9945396  89.1754974 104.4348304  43.0041281
  88.6119839 104.3438241  42.2357569  89.0607369 103.6148209  43.4843774
  93.7987941 103.7347680  52.9730596  93.7876582 103.3400478  52.1011099
  93.9608581 103.0013752  53.5664367  86.7219406 105.9299496  45.8425502
  87.5140698 105.5890321  45.4271801  86.9616056 106.0394471  46.7627655
  94.7554533 108.1019272  38.3155746  94.1042512 108.6873353  37.9289760
  95.5498895 108.6325467  38.3750784  88.6810160 105.1908409  38.7142880
  89.4541036 104.6437396  38.5755756  89.0335559 106.0552659  38.9257342
  90.5195202 106.5184792  51.9209780  90.2285068 107.4230422  51.8056446
  91.1552187 106.5601319  52.6353849  91.4451409 103.8961640  48.5111139
  92.0414982 103.6717662  47.7968102  91.5026381 103.1546386  49.1136587
  91.0176438 101.3501075  36.3461330  91.2701958 100.8282597  35.5844793
  90.0800997 101.1867221  36.4488014  96.0619720 100.3536854  44.1536074
  96.8482810  99.9356277  43.8026491  96.3258425 101.2582946  44.3217722
  96.2329798 105.7909704  38.8524730  95.5975631 105.8644331  39.5645635
  95.9027204 106.3803303  38.1743810 101.4628148 100.2912087  45.0569052
 102.1953320  99.7211304  45.2906882 100.7067503  99.9033687  45.4975558
  90.7372726 103.2529181  38.5485705  90.6208984 102.5774085  39.2166790
  90.8474986 102.7661555  37.7317858  93.0804267 102.7139328  42.2532395
  92.7162475 102.1869949  42.9645316  93.9371383 102.3237798  42.0798880
  92.7209754  97.7429228  37.2493743  92.8884157  98.6109465  37.6164214
  92.5306923  97.9056510  36.3255032  95.4785087 106.2046207  48.9159573
  95.1785811 107.1071246  48.8075381  95.1336147 105.9378390  49.7680726
  88.9297569 102.6560004  44.9496278  88.0048065 102.5236218  45.1573970
  89.1781982 103.4354223  45.4466220  98.8782231  98.7228747  46.5957011
  97.9699109  98.6544156  46.3015772  98.8269827  99.2000692  47.4238836
  92.6998975 100.1986886  38.2340410  92.5798600 100.6443936  39.0725890
  92.0051564 100.5472203  37.6753948  86.2906380 102.2993277  45.7840067
  86.4198761 102.5527756  46.6979479  85.6103831 102.8920985  45.4644722
  90.4605867 112.9690527  41.8830541  90.3829897 113.9198352  41.9619022
  89.8567511 112.6236400  42.5405467  92.9523097 100.1418393  54.5391908
  92.1756431 100.7012313  54.5294773  93.5913660 100.6275176  55.0606778
  98.3984041 100.6708359  39.0620744  99.3101897 100.9035746  38.8868441
  97.8893688 101.2545403  38.4995823  91.2069469 102.9503846  54.1009875
  91.9484154 103.4888890  53.8244699  90.5006455 103.5770135  54.2581427
  96.6824809 105.0932987  52.6982036  97.0908165 104.6515397  51.9536669
  95.9602071 104.5185614  52.9516229  93.0355879 100.0305593  50.0715593
  93.8817074 100.4545007  50.2150242  92.9754517  99.3739218  50.7654157
  97.0053624 105.6534177  46.4534325  96.3762486 105.8179891  45.7510393
  96.6179286 106.0675787  47.2245289 100.8842856 106.5888615  43.8078689
 100.1993894 106.9687516  43.2575722 100.9686705 107.1983942  44.5410637
  96.1855324  97.6909962  51.7296767  95.9416256  98.4452022  51.1931043
  96.4615255  98.0695309  52.5644014  98.1393787 104.2348574  50.4074033
  98.3510682 104.8780334  49.7308414  98.0923535 103.4010891  49.9395963
  95.7420016  96.8466395  47.3110605  94.8804495  97.1447648  47.6027342
  95.7682451  97.0636794  46.3791637  92.5581586 105.3908585  43.7184410
  93.0219931 105.6696288  42.9289033  92.2938384 104.4892030  43.5357501
  89.4505667 104.9380067  46.6564174  90.0207024 105.3667335  46.0181658
  90.0413778 104.6562652  47.3548359  91.4950472 101.5131738  40.5273976
  92.1974515 101.9652781  40.9947902  91.1631100 100.8715557  41.1553869
  89.9430833 100.1043494  54.9025185  89.3129494 100.7859775  55.1360582
  89.8366921  99.9926576  53.9578323  85.2375806  99.7715290  45.8291109
  84.4474860 100.0272819  45.3531220  85.7287053 100.5863628  45.9343150
  99.2539615 107.1120530  48.5796390 100.0757059 106.7100717  48.2979072
  99.2502018 107.0088764  49.5312506  87.1890551 100.1359870  42.7874586
  86.3921714 100.2478564  43.3058082  86.9616143 100.4746522  41.9215476
  93.0196219 106.6604573  50.7357101  93.0840651 107.1224980  51.5715272
  92.3107142 106.0301938  50.8639410  83.5213509 100.0245781  48.2606100
  83.7721547 100.9092791  48.5263676  84.0573057  99.8450382  47.4881192
 107.3445608 103.4559278  44.9281361 106.5909317 102.8866676  44.7725366
 107.4793149 103.4221943  45.8751996  92.7344236 108.3272680  40.6036081
  92.5989911 109.1724216  41.0320929  93.2754049 108.5291958  39.8402015
  86.1873634 105.8448118  41.1764006  86.6998154 106.6391369  41.3269571
  86.8396346 105.1474409  41.1097607  87.9968518 108.9613875  43.2586759
  88.1735147 109.8831839  43.0707743  88.7925352 108.6472294  43.6881139
  87.2820875 101.0078507  53.1348922  87.1674390 100.1063764  53.4356021
  86.4265393 101.2542203  52.7833739  94.3612713 108.9496247  54.7336423
  93.9176567 108.1632625  54.4157327  95.0229926 109.1375397  54.0680314
  89.1199834 110.4792048  49.2597101  89.6707259 110.3509112  48.4874095
  88.2811310 110.7786937  48.9091994  96.4593951 109.2299047  52.7617824
  96.4412426 110.0507928  52.2698093  97.3813871 109.1053122  52.9867965
  92.9167005 106.7443176  53.6041333  93.4495342 105.9831464  53.3740641
  92.3881086 106.4516828  54.3465487  84.1522550 104.1736773  41.9523576
  84.9897772 104.5833781  41.7357284  84.3300818 103.2336215  41.9223770
  96.0486982 101.8411853  37.6407409  95.5333606 102.6116458  37.8795797
  95.7764291 101.1676989  38.2640471  93.6334094  96.6861554  42.6992648
  92.7775690  96.2968405  42.5198286  94.0461045  96.7653515  41.8392433
  91.4076126  94.3046627  46.1050389  92.2729123  94.1089436  45.7456279
  91.4753635  94.0756979  47.0319746 101.0221257 104.5944208  39.5760583
 100.2450699 104.2555367  39.1315745 101.7012738 104.5996831  38.9015548
  95.8373286  99.7138945  39.4667191  95.5323421 100.0285095  40.3177334
  96.7903728  99.7920365  39.5094524  94.2819718 105.8729169  41.1160145
  93.7541079 105.1381928  40.8033382  93.7807220 106.6503845  40.8700113
  99.2612564 104.0678189  46.2327191  98.6036238 104.7577451  46.3207319
 100.0652963 104.4574621  46.5761177  89.0138445  96.5348835  43.4766756
  89.5882197  96.3124017  42.7439949  89.6009428  96.6037530  44.2295357
  98.0718022 102.4222562  44.2831133  98.5849904 103.0552554  44.7852842
  98.7219246 101.8223757  43.9174493  89.3408032  98.5653296  37.4962641
  88.5045344  98.9027983  37.8171916  89.2012802  98.4302276  36.5589778
  91.3161113  93.4090084  42.2041826  90.6625525  93.0939101  41.5798440
  91.2741587  92.7865824  42.9301648  92.4272318 103.6909379  34.1195118
  91.5199379 103.4598632  34.3186267  92.9243350 102.8946998  34.3069099
  95.3340397 112.4006886  37.0391804  94.6602095 112.7038583  37.6476762
  95.7206219 113.2035967  36.6897261  94.5498853  99.8972017  46.5289473
  93.6321415 100.1186964  46.3711161  94.9658997  99.9718328  45.6701180
  95.3333901 101.2963433  41.6592153  96.0805720 101.8084830  41.3499275
  95.6025490 100.9747486  42.5196547  93.6060551 103.7921974  38.6419108
  92.6971770 103.5081007  38.7391577  93.6355635 104.2121052  37.7822415
  98.8379819 107.4028563  42.4110275  98.3842146 106.5619473  42.4675466
  98.2073785 108.0389962  42.7485055  97.7812738  98.3320549  43.6410943
  97.0435495  97.8197936  43.9721185  98.0339512  97.8920931  42.8294220
  97.2812758 109.2405060  43.3460093  97.5735732 109.8010117  42.6272459
  97.7911378 109.5333621  44.1013252  84.1748722 101.5127488  42.6234310
  83.9773121 100.9196849  41.8985376  83.6195386 101.2079698  43.3410249
  92.1545445 101.4050594  44.7428903  92.2094055 100.4524431  44.6671380
  91.3436647 101.5610034  45.2270201  93.3036639 105.3330718  35.9807186
  92.8656069 104.6166576  35.5212824  94.0447080 105.5606832  35.4192278
  90.0937805 100.0227654  42.5019282  89.2805671 100.3221825  42.9084474
  90.5896799  99.6283343  43.2193764  92.2446383 110.0185411  44.4353547
  92.2022562 110.2446257  43.5062079  93.1609082 109.7848786  44.5839348
  95.6912017 100.4869479  51.3334176  96.0461404 100.7140952  52.1928642
  96.3384148 100.8187855  50.7111431 101.4209754 103.6087915  42.0383505
 101.2827652 103.7989511  41.1104694 101.0645973 104.3707297  42.4951556
  89.5851880  97.5946010  48.1180517  90.2251259  97.4534769  47.4203480
  88.7529410  97.3080523  47.7419119 101.4479133 105.6764442  47.0494776
 101.8815640 105.5839731  47.8977830 102.1610714 105.6521942  46.4114792
  90.3612184 106.8948440  44.2315509  91.1552782 106.3998760  44.0298084
  89.6503876 106.3666303  43.8683215  95.1807028 109.2766536  48.5827877
  95.2344051 109.8457472  49.3505593  94.3121810 109.4468421  48.2181914
  86.6694947 101.0391522  40.3075262  85.7392535 100.9775977  40.5245224
  86.7652419 100.5167475  39.5111903  86.5880496  97.5646335  42.8953504
  86.8487314  98.4791668  42.7862664  87.4097669  97.0970777  43.0450116
  88.0605422  98.9784092  50.0652328  88.7328475  98.7701454  49.4164977
  87.2335208  98.7806178  49.6257560 102.3094683 105.7188142  49.5827662
 102.5030573 106.6233953  49.8286937 102.2095301 105.2595561  50.4166247
  93.9630994  95.6046033  52.0817989  93.3158909  96.3035982  51.9882465
  94.7332009  96.0382177  52.4494237  97.3709792 105.8694885  55.1568542
  97.2195298 105.6405437  54.2398626  97.3614471 106.8265486  55.1699887
  94.1395128 103.4426798  50.1414809  95.0687188 103.5937957  49.9683776
  93.7186158 103.5310819  49.2863455  92.9383460 107.4677462  47.9113346
  92.7994545 107.0996247  48.7839285  92.1498056 107.9825102  47.7397304
  93.5331612 112.5686559  39.2538883  93.7083367 112.0974602  40.0684506
  92.8464400 113.1952325  39.4820144  94.4888675 106.8459065  45.3002184
  94.1538508 106.8059835  46.1959834  93.9892621 106.1803781  44.8272594
  88.4632919 102.2526695  50.8254765  88.3252717 101.5206934  51.4266304
  89.3737842 102.1635595  50.5438953  97.4247867 104.1915099  35.5739244
  96.8077037 103.4661927  35.4772297  96.9564355 104.9524459  35.2306318
  91.0915220 101.9646654  50.3138445  91.8014838 101.3239846  50.2725063
  91.0484528 102.2159549  51.2364626  99.0801998 108.9014008  53.2345024
  99.0214544 108.2173228  52.5675607  99.4821517 109.6432998  52.7825650
  89.8044153  98.9511872  52.1334084  89.2681511  98.5002611  52.7855681
  89.2160862  99.0857781  51.3904549  88.0992697 115.7175921  46.0278743
  88.3389295 116.3494446  46.7057762  87.2561893 115.3663961  46.3144102
  89.2146412  98.4100524  34.6960548  88.3375879  98.2889324  34.3322795
  89.6904166  97.6186602  34.4439437  99.0819405 106.8653591  51.4659004
  98.1946184 106.5279513  51.5885403  99.6517957 106.1336623  51.7027769
  80.7348553 103.1977683  44.7902055  81.4219592 102.8839413  44.2023071
  80.5796681 104.1019048  44.5169307  85.5383275  98.0867880  49.2187079
  85.4541463  97.4793549  48.4837489  84.7165981  98.5776898  49.2196575
  92.6120559 111.5255044  48.4320247  92.5390730 112.3310015  48.9439552
  92.1697952 111.7247010  47.6068268  92.4010338 110.7626814  41.9423069
  91.6177860 111.3048494  42.0361293  93.1003084 111.2800794  42.3417310
  95.7106989  96.5721443  44.5857274  96.2075688  95.8191406  44.2658344
  94.9393970  96.6085760  44.0200483 103.5636746 102.2761809  46.2275566
 103.5526622 103.1586524  45.8569499 102.6954125 101.9233360  46.0330103
  95.0719242 111.4241878  50.5878406  95.7847215 112.0589343  50.5154307
  94.5809271 111.5205744  49.7718408  96.7936769 105.3293131  42.1595697
  95.8593048 105.4494593  41.9900402  96.9713438 104.4265597  41.8955707
  92.2941957  98.7138826  44.3128959  91.9239745  98.1609867  45.0009864
  92.7901050  98.1096960  43.7603959 100.1809321 101.1710450  42.6945732
 100.6469773 102.0038441  42.6206034 100.6316821 100.7055431  43.3990990
  90.1231156 109.1736321  51.4083977  90.8240615 109.8072804  51.5613371
  89.6526271 109.5151053  50.6479616  98.2485552 107.5154271  39.6931884
  98.5245396 107.4010866  40.6025758  97.3790050 107.1171756  39.6544057
  97.9232442 101.7280929  49.2336527  97.2703892 101.9756836  48.5788980
  98.3012822 100.9145067  48.8999004  94.8839616 111.7640622  43.3364697
  95.0662010 110.9462278  43.7992450  95.7072602 111.9808314  42.8989587
  95.2181781 110.6908807  40.5979746  95.7469548 110.1801262  39.9849908
  95.4810001 110.3751337  41.4625279  93.9720015 102.4700740  55.7202564
  93.2960652 102.3694869  56.3904939  94.7947649 102.3139954  56.1838561
  85.7198874 108.7072676  48.3415079  86.3052311 107.9616364  48.4742983
  85.5223712 109.0176633  49.2251743  88.5737529 111.7423924  43.3577522
  87.9047904 112.2270051  42.8741562  88.4350399 111.9893144  44.2720900
  80.3116529 101.2778277  47.0619522  80.3500628 100.7441867  47.8556641
  79.8056822 100.7513482  46.4430500  92.7142798 113.7767667  49.9560180
  93.2661106 113.9399289  50.7209265  93.0548991 114.3672105  49.2840205
  87.1659564  98.1965950  54.2055099  87.7931602  97.8143027  54.8192623
  86.3087482  97.9780152  54.5710791  97.5653672 108.6028925  55.8108834
  98.1093576 109.2158883  55.3163789  96.9840517 109.1608503  56.3275847
  83.9425106 100.0042379  40.1373454  84.2378547  99.0953057  40.0840507
  83.0413142  99.9830118  39.8154456  95.8511185 111.7249643  46.9423862
  95.7262325 110.9239383  46.4334808  96.5090276 112.2195836  46.4537832
  87.4719353  98.0798375  46.1201002  86.7505939  98.6934343  45.9808476
  88.2612609  98.6156140  46.0417648  97.9146093 109.5258663  48.5703412
  96.9676429 109.4064014  48.4981739  98.2628867 108.6381161  48.6529674
  85.6712948  97.6856476  40.2612779  85.3425654  96.8053855  40.0787885
  86.0252319  97.6304145  41.1489168  94.9192527 109.3211379  44.7707764
  94.7717489 108.3928087  44.9515335  95.7446020 109.3431470  44.2864840
  88.7854771  97.9729446  40.6288257  89.1250844  98.5015367  39.9066865
  89.2326892  98.3109852  41.4046823  98.5226649 110.1439938  45.8572637
  99.4473196 109.9382799  45.7197088  98.3541952 109.8956339  46.7661979
  91.4798212  96.3566497  50.0791325  91.1395032  95.5574310  50.4812005
  90.7737218  96.6568208  49.5068158  92.1314684  93.4415809  48.5318648
  92.9540753  92.9676288  48.4097538  92.3752747  94.2206293  49.0317334
  90.7722918  96.4704068  38.8281549  91.4931281  96.8485321  38.3245266
  90.1488222  97.1892945  38.9316527  94.9154041  97.1749217  39.7639882
  95.1317655  98.0573855  39.4628710  94.4348108  96.7835430  39.0345524
  89.6553262 100.1334930  46.3410626  89.5097843 100.4475233  47.2334908
  89.1778466 100.7519830  45.7881525  91.5149645  97.1237478  46.3891516
  91.5011214  96.2278571  46.0523814  92.2322073  97.1308142  47.0229802
  93.3675776  97.5574818  48.4344643  93.1093554  98.4791889  48.4328974
  92.8360816  97.1605253  49.1245107  98.3121965 110.6625605  41.2134729
  98.4858842 110.0972028  40.4608581  98.8050856 111.4626500  41.0314219
  84.1298925 102.6740274  49.2798287  83.5852393 103.4500082  49.4118562
  85.0078274 103.0211079  49.1217409  90.9186541  96.0051858  41.6579086
  91.0402452  95.0768504  41.8569974  90.6288584  96.0190544  40.7457401
  93.7877732  93.6906769  44.7945806  93.8099428  93.7546102  43.8397785
  94.2045791  92.8511277  44.9886312 104.1661356 103.4262028  42.8325028
 104.6092502 102.6769353  42.4344152 103.2887866 103.4172165  42.4498760
  99.2997137 109.9792370  38.3131627  99.9948042 110.5999062  38.5318942
  99.6420287 109.1287721  38.5884005  84.9164946 101.8010171  52.1728444
  84.1746683 101.9492806  52.7593075  84.5957691 102.0618436  51.3095194
 101.1988560 107.4292075  39.8418958 101.7239884 107.7679348  39.1168278
 101.1110913 106.4939091  39.6582092  92.8608609 111.3426149  51.9708834
  93.1695736 111.0975296  52.8431534  93.6584091 111.5472787  51.4827705
  92.8829221 113.4964059  44.2014211  92.4434211 113.0040437  44.8947068
  93.6337338 112.9537026  43.9606286  85.3621560 109.6875599  44.2038839
  86.1879580 109.3879371  43.8237483  85.0115612 108.9183222  44.6528628
  90.3303093 109.0402068  46.2736513  89.7083103 108.3772773  45.9738740
  91.0007960 109.0663199  45.5910160  83.5630165 107.6061926  45.1627773
  82.7262073 107.1784100  44.9811774  83.5353811 107.7994369  46.0998564
  90.4027621  97.5183856  55.8669019  90.4515776  98.3945978  55.4846788
  90.9450135  96.9761249  55.2940662 100.8882466 108.0624979  55.1470156
 100.0978010 108.0449118  54.6074655 100.6515821 108.6013273  55.9019192
 101.0080342 104.9117445  52.4602884 101.0578346 104.7467453  53.4018407
 100.8994265 104.0444704  52.0700765  89.8916600 107.5905991  39.7494973
  90.0404721 108.2741455  39.0961646  90.6983044 107.5711081  40.2644429
  98.2984104 100.8948373  53.7762191  99.1993967 100.7554838  53.4846189
  98.3732078 101.0602828  54.7160368  92.6326909  98.2715228  52.6215377
  91.7630219  98.5648794  52.3497966  92.8686390  98.8555673  53.3422641
 102.5098538 107.3314387  52.7044906 102.2183347 107.6944367  53.5408367
 101.8970670 106.6181395  52.5258238 103.7094221 104.8967267  45.2247476
 104.5441112 105.3357071  45.3885036 103.8453349 104.4205920  44.4055722
 100.7585727 102.4547001  51.1724964 101.2339848 102.6474648  50.3643815
  99.8351292 102.5106187  50.9268347  87.6469233 103.6171169  40.7556042
  87.4015275 102.7133499  40.9536252  87.8165148 103.6188319  39.8135520
  95.3365943  94.4894845  50.1380798  95.8547887  95.2255872  49.8127286
  94.9821076  94.7958838  50.9727557  86.9164881  99.3499526  38.2542204
  86.2234126  99.4243881  37.5982239  86.6716633  98.5859870  38.7763720
  93.3912006 110.0854121  37.2206721  92.8185973 110.7044309  36.7677192
  93.9644799 110.6353483  37.7546642  99.4587396  99.3312761  49.4053269
 100.4104818  99.4310859  49.4265493  99.2890846  98.5391030  49.9151354
  96.6109266 110.3691272  38.3515303  97.5439939 110.3036833  38.5548178
  96.5232478 111.2047538  37.8929835  99.2397282 109.6857142  35.3119250
  99.1610914 109.3517005  36.2055008 100.0606949 110.1778910  35.3110723
 101.9375473 102.5518881  48.5195569 101.9051793 101.6134882  48.7055253
 102.5476097 102.6302918  47.7861394  93.7758804 101.4214934  34.5622773
  94.7217909 101.2921142  34.6311191  93.3973049 100.6829596  35.0392201
 102.0869962  99.3429925  48.5653852 101.5709011  98.5588381  48.3783781
 102.9709910  99.0148641  48.7300372 107.7552023 103.6134888  47.6601606
 108.4855412 103.3520176  48.2209309 107.1458969 102.8763610  47.7003674
 105.8367320 101.7542751  48.2576057 105.1100484 101.6198716  47.6492549
 105.4214607 102.0619579  49.0632775  93.6597497 105.4732680  56.0223430
  94.5800506 105.6511279  56.2163477  93.6247080 104.5288726  55.8703129
  91.9601721  99.3464911  34.4977658  91.0533177  99.0498023  34.5740372
  92.2377702  99.0494729  33.6311945  82.8779662 100.6671274  44.9476705
  82.5582446  99.8136582  44.6551079  82.3313090 100.8819852  45.7034672
  86.6559569 103.3833715  48.6646211  86.8745579 104.3150823  48.6834245
  87.0685343 103.0241689  49.4501015  93.5763787  93.8901800  40.6521900
  92.7664515  93.5448885  41.0277146  94.2648204  93.5809344  41.2409511
  91.5287435  98.9566921  58.0548960  91.4284162  99.9061278  57.9861051
  91.3108977  98.6285160  57.1825030  90.7300506  96.2051846  34.6389637
  91.5919670  96.5306744  34.8985455  90.9150850  95.4183342  34.1262703
  82.7467922 104.2874185  46.9169826  82.0531393 103.8728138  46.4039781
  83.4940913 104.3294722  46.3203245  98.8833142  95.0780372  41.7824860
  98.3031812  95.7365176  41.4002913  98.6169075  94.2557717  41.3712278
  91.3918705 102.3864060  56.8714022  90.9085786 103.1864420  57.0777911
  91.4779644 102.3972004  55.9181466  84.6604664 104.2192439  44.7935841
  84.6375352 104.3180126  43.8417724  84.9705301 105.0657590  45.1153007
  87.3192042 106.2768594  48.9082456  88.2735296 106.2452537  48.8412387
  87.1204566 105.8159218  49.7232681  87.9091424 104.8469710  51.4753253
  88.7284313 105.3413789  51.4988091  88.1828232 103.9301678  51.4470821
  97.6658021  97.2380463  40.8381209  96.7783876  97.5230113  40.6201403
  98.0812010  97.0774226  39.9908486 101.0172557  97.2626984  44.5535548
 101.7932947  97.7523436  44.8260165 100.2920691  97.6885038  45.0107417
  85.6742271 111.8188214  45.9252653  85.5396739 111.0588615  45.3590651
  85.2574333 112.5429114  45.4581442  96.8101234 107.0025137  34.9329229
  97.5137084 107.2075140  35.5486884  96.0863883 107.5701899  35.1978312
  97.6399044 102.7534999  41.0531499  97.5834246 103.2103550  40.2139131
  98.1927387 101.9925683  40.8754342 101.4503850  98.5424730  41.8781618
 101.1940784  98.1421366  42.7089826 100.8256718  99.2568524  41.7531758
 105.7616188 101.2820804  44.3852910 105.2015746 101.3513993  45.1584472
 105.1559691 101.1061788  43.6652406  88.8311397 112.7157531  46.1371096
  88.7143781 113.6602963  46.0349786  88.0103843 112.4131092  46.5256895
  98.7187931 107.4407666  36.9827689  99.5533535 107.0088865  36.8005164
  98.5572274 107.2689680  37.9104583  98.3733824 103.9439780  38.3484028
  98.3182627 103.7784051  37.4072472  97.7479879 104.6515813  38.5046218
  83.1626339  99.1807844  52.1745450  83.8085202  98.6706798  52.6632675
  82.9543490  99.9176526  52.7488876  95.6879731 106.2488692  57.6737591
  96.5570890 106.4229344  57.3124226  95.2086482 107.0683108  57.5513320
  91.6829949  93.4447889  37.9269346  91.6708619  94.3889729  38.0837617
  92.5753371  93.2618034  37.6328808  89.8565911 113.3685793  49.3527024
  90.7593158 113.4009403  49.6693519  89.6303281 112.4386244  49.3673360
  91.6119513 112.1216779  46.0137103  90.6615144 112.1218641  45.9001475
  91.9151999 111.3749514  45.4973138 107.3472206 117.9577318  47.0782866
 107.9850616 117.8384065  46.3746206 107.2293049 118.9058162  47.1370818
 104.1561913 117.9104746  47.0144390 103.8180424 117.7945810  46.1264925
 105.0251681 117.5095911  46.9945396 100.0148728 119.7640222  43.0041281
  99.4513594 119.6730159  42.2357569  99.9001123 118.9440127  43.4843774
 104.6381696 119.0639597  52.9730596 104.6270337 118.6692396  52.1011099
 104.8002335 118.3305670  53.5664367  97.5613160 121.2591414  45.8425502
  98.3534452 120.9182238  45.4271801  97.8009811 121.3686389  46.7627655
 105.5948287 123.4311190  38.3155746 104.9436267 124.0165270  37.9289760
 106.3892650 123.9617385  38.3750784  99.5203914 120.5200327  38.7142880
 100.2934790 119.9729314  38.5755756  99.8729313 121.3844576  38.9257342
 101.3588957 121.8476709  51.9209780 101.0678823 122.7522340  51.8056446
 101.9945941 121.8893237  52.6353849 102.2845164 119.2253558  48.5111139
 102.8808736 119.0009580  47.7968102 102.3420135 118.4838303  49.1136587
 101.8570192 116.6792993  36.3461330 102.1095713 116.1574514  35.5844793
 100.9194751 116.5159139  36.4488014 106.9013475 115.6828771  44.1536074
 107.6876564 115.2648195  43.8026491 107.1652179 116.5874864  44.3217722
 107.0723552 121.1201622  38.8524730 106.4369385 121.1936248  39.5645635
 106.7420959 121.7095221  38.1743810 112.3021902 115.6204005  45.0569052
 113.0347074 115.0503221  45.2906882 111.5461258 115.2325605  45.4975558
 101.5766481 118.5821099  38.5485705 101.4602739 117.9066002  39.2166790
 101.6868741 118.0953473  37.7317858 103.9198022 118.0431246  42.2532395
 103.5556229 117.5161867  42.9645316 104.7765138 117.6529715  42.0798880
 109.8247322 109.3325579  49.5163661 109.4930647 110.2020990  49.2924876
 109.2292936 109.0161863  50.1957691 103.5603509 113.0721146  37.2493743
 103.7277911 113.9401382  37.6164214 103.3700678 113.2348428  36.3255032
 106.3178842 121.5338125  48.9159573 106.0179565 122.4363164  48.8075381
 105.9729901 121.2670308  49.7680726  99.7691323 117.9851922  44.9496278
  98.8441820 117.8528136  45.1573970 100.0175737 118.7646141  45.4466220
 109.7175986 114.0520665  46.5957011 108.8092863 113.9836073  46.3015772
 109.6663582 114.5292610  47.4238836 103.5392730 115.5278803  38.2340410
 103.4192355 115.9735854  39.0725890 102.8445318 115.8764121  37.6753948
  97.1300134 117.6285195  45.7840067  97.2592516 117.8819674  46.6979479
  96.4497586 118.2212903  45.4644722 101.2999622 128.2982445  41.8830541
 101.2223651 129.2490270  41.9619022 100.6961265 127.9528318  42.5405467
 103.7916852 115.4710310  54.5391908 103.0150186 116.0304231  54.5294773
 104.4307415 115.9567093  55.0606778 111.5837632 112.2537103  48.3734885
 110.9412012 112.5469636  47.7274679 111.0792561 112.1390024  49.1788081
 109.2377796 116.0000277  39.0620744 110.1495652 116.2327663  38.8868441
 108.7287443 116.5837321  38.4995823 102.0463224 118.2795764  54.1009875
 102.7877908 118.8180808  53.8244699 101.3400209 118.9062053  54.2581427
 107.5218563 120.4224904  52.6982036 107.9301920 119.9807315  51.9536669
 106.7995825 119.8477532  52.9516229 103.8749634 115.3597511  50.0715593
 104.7210829 115.7836925  50.2150242 103.8148271 114.7031135  50.7654157
 107.8447378 120.9826095  46.4534325 107.2156241 121.1471809  45.7510393
 107.4573040 121.3967705  47.2245289 111.7236610 121.9180533  43.8078689
 111.0387648 122.2979434  43.2575722 111.8080459 122.5275859  44.5410637
 107.0249079 113.0201879  51.7296767 106.7810011 113.7743940  51.1931043
 107.3009009 113.3987227  52.5644014 108.9787542 119.5640492  50.4074033
 109.1904437 120.2072252  49.7308414 108.9317290 118.7302808  49.9395963
 106.5813771 112.1758312  47.3110605 105.7198250 112.4739566  47.6027342
 106.6076205 112.3928711  46.3791637 103.3975340 120.7200503  43.7184410
 103.8613686 120.9988206  42.9289033 103.1332138 119.8183948  43.5357501
 100.2899421 120.2671985  46.6564174 100.8600778 120.6959253  46.0181658
 100.8807533 119.9854569  47.3548359 102.3344226 116.8423655  40.5273976
 103.0368269 117.2944699  40.9947902 102.0024855 116.2007474  41.1553869
 100.7824588 115.4335412  54.9025185 100.1523248 116.1151693  55.1360582
 100.6760675 115.3218494  53.9578323  96.0769560 115.1007208  45.8291109
  95.2868614 115.3564737  45.3531220  96.5680807 115.9155546  45.9343150
 110.0933370 122.4412447  48.5796390 110.9150813 122.0392635  48.2979072
 110.0895772 122.3380681  49.5312506  98.0284305 115.4651787  42.7874586
  97.2315469 115.5770482  43.3058082  97.8009898 115.8038440  41.9215476
 103.8589973 121.9896491  50.7357101 103.9234406 122.4516898  51.5715272
 103.1500897 121.3593855  50.8639410  94.3607263 115.3537699  48.2606100
  94.6115301 116.2384708  48.5263676  94.8966811 115.1742300  47.4881192
 118.1839363 118.7851196  44.9281361 117.4303071 118.2158594  44.7725366
 118.3186904 118.7513860  45.8751996 103.5737991 123.6564598  40.6036081
 103.4383665 124.5016134  41.0320929 104.1147803 123.8583876  39.8402015
 100.0605330 109.7356178  57.2650436  99.6672276 109.1822376  57.9398080
 100.8771471 110.0466756  57.6556954  97.0267388 121.1740036  41.1764006
  97.5391909 121.9683286  41.3269571  97.6790101 120.4766327  41.1097607
  98.8362273 124.2905792  43.2586759  99.0128901 125.2123757  43.0707743
  99.6319106 123.9764212  43.6881139 102.9773291 111.1514057  54.8570693
 103.7183005 111.7521210  54.7775155 103.2091214 110.4091695  54.2988735
  98.1214629 116.3370424  53.1348922  98.0068144 115.4355681  53.4356021
  97.2659147 116.5834121  52.7833739 105.2006467 124.2788165  54.7336423
 104.7570321 123.4924543  54.4157327 105.8623681 124.4667315  54.0680314
  99.9593588 125.8083966  49.2597101 100.5101013 125.6801029  48.4874095
  99.1205064 126.1078855  48.9091994 107.2987705 124.5590964  52.7617824
 107.2806180 125.3799846  52.2698093 108.2207625 124.4345040  52.9867965
 103.7560759 122.0735094  53.6041333 104.2889096 121.3123382  53.3740641
 103.2274840 121.7808746  54.3465487 106.9230454 107.1795160  49.1334974
 106.5794724 108.0696802  49.0574085 107.2909417 106.9896818  48.2704559
  94.9916305 119.5028690  41.9523576  95.8291527 119.9125699  41.7357284
  95.1694573 118.5628133  41.9223770 106.8880737 117.1703771  37.6407409
 106.3727360 117.9408376  37.8795797 106.6158045 116.4968907  38.2640471
 104.4727848 112.0153472  42.6992648 103.6169444 111.6260322  42.5198286
 104.8854800 112.0945433  41.8392433 106.0026995 109.5499815  47.0984208
 105.4991790 109.5129950  46.2852013 106.2957602 110.4592558  47.1580864
 102.2469881 109.6338545  46.1050389 103.1122877 109.4381353  45.7456279
 102.3147389 109.4048897  47.0319746 111.8615011 119.9236126  39.5760583
 111.0844454 119.5847285  39.1315745 112.5406492 119.9288749  38.9015548
 106.6767040 115.0430863  39.4667191 106.3717176 115.3577012  40.3177334
 107.6297482 115.1212283  39.5094524 105.1213472 121.2021086  41.1160145
 104.5934834 120.4673846  40.8033382 104.6200975 121.9795763  40.8700113
 110.1006318 119.3970107  46.2327191 109.4429992 120.0869368  46.3207319
 110.9046717 119.7866539  46.5761177  99.8532200 111.8640753  43.4766756
 100.4275952 111.6415934  42.7439949 100.4403182 111.9329447  44.2295357
 108.9111777 117.7514480  44.2831133 109.4243659 118.3844471  44.7852842
 109.5613001 117.1515675  43.9174493 100.1801787 113.8945214  37.4962641
  99.3439099 114.2319900  37.8171916 100.0406556 113.7594194  36.5589778
 102.1554867 108.7382002  42.2041826 101.5019280 108.4231019  41.5798440
 102.1135341 108.1157742  42.9301648 103.2666072 119.0201297  34.1195118
 102.3593134 118.7890550  34.3186267 103.7637104 118.2238916  34.3069099
 106.1734151 127.7298804  37.0391804 105.4995850 128.0330501  37.6476762
 106.5599973 128.5327884  36.6897261 105.3892608 115.2263935  46.5289473
 104.4715169 115.4478882  46.3711161 105.8052751 115.3010246  45.6701180
 106.1727655 116.6255351  41.6592153 106.9199474 117.1376748  41.3499275
 106.4419245 116.3039404  42.5196547 104.4454306 119.1213892  38.6419108
 103.5365525 118.8372924  38.7391577 104.4749389 119.5412970  37.7822415
 109.6773573 122.7320481  42.4110275 109.2235900 121.8911391  42.4675466
 109.0467540 123.3681879  42.7485055 108.6206493 113.6612467  43.6410943
 107.8829249 113.1489853  43.9721185 108.8733266 113.2212849  42.8294220
 108.1206512 124.5696978  43.3460093 108.4129487 125.1302035  42.6272459
 108.6305133 124.8625539  44.1013252 108.7218120 106.4388719  44.2352712
 109.0276997 105.5786083  43.9478627 109.4470725 107.0306339  44.0351706
  95.0142476 116.8419406  42.6234310  94.8166876 116.2488766  41.8985376
  94.4589140 116.5371616  43.3410249 102.9939200 116.7342512  44.7428903
 103.0487809 115.7816349  44.6671380 102.1830402 116.8901951  45.2270201
 104.1430393 120.6622635  35.9807186 103.7049823 119.9458494  35.5212824
 104.8840834 120.8898750  35.4192278 100.9331560 115.3519572  42.5019282
 100.1199425 115.6513742  42.9084474 101.4290554 114.9575261  43.2193764
 103.0840137 125.3477329  44.4353547 103.0416316 125.5738175  43.5062079
 104.0002836 125.1140703  44.5839348 106.5305771 115.8161396  51.3334176
 106.8855159 116.0432870  52.1928642 107.1777902 116.1479773  50.7111431
 112.2603508 118.9379832  42.0383505 112.1221407 119.1281428  41.1104694
 111.9039727 119.6999215  42.4951556 100.4245634 112.9237927  48.1180517
 101.0645014 112.7826687  47.4203480  99.5923165 112.6372441  47.7419119
 112.2872888 121.0056359  47.0494776 112.7209394 120.9131648  47.8977830
 113.0004469 120.9813860  46.4114792 101.2005938 122.2240358  44.2315509
 101.9946537 121.7290678  44.0298084 100.4897631 121.6958221  43.8683215
 106.0200783 124.6058453  48.5827877 106.0737805 125.1749390  49.3505593
 105.1515564 124.7760338  48.2181914  97.5088702 116.3683440  40.3075262
  96.5786290 116.3067895  40.5245224  97.6046174 115.8459392  39.5111903
  97.4274251 112.8938252  42.8953504  97.6881068 113.8083586  42.7862664
  98.2491423 112.4262695  43.0450116  98.8999176 114.3076010  50.0652328
  99.5722230 114.0993372  49.4164977  98.0728963 114.1098096  49.6257560
 113.1488437 121.0480060  49.5827662 113.3424327 121.9525870  49.8286937
 113.0489056 120.5887479  50.4166247 104.8024748 110.9337951  52.0817989
 104.1552663 111.6327900  51.9882465 105.5725764 111.3674094  52.4494237
 108.2103546 121.1986803  55.1568542 108.0589052 120.9697354  54.2398626
 108.2008226 122.1557404  55.1699887 104.9788882 118.7718715  50.1414809
 105.9080942 118.9229875  49.9683776 104.5579912 118.8602736  49.2863455
 103.7777214 122.7969380  47.9113346 103.6388300 122.4288164  48.7839285
 102.9891810 123.3117019  47.7397304 104.3725366 127.8978476  39.2538883
 104.5477122 127.4266519  40.0684506 103.6858154 128.5244243  39.4820144
 105.3282429 122.1750983  45.3002184 104.9932262 122.1351753  46.1959834
 104.8286375 121.5095698  44.8272594  99.3026673 117.5818613  50.8254765
  99.1646471 116.8498851  51.4266304 100.2131597 117.4927513  50.5438953
 108.2641621 119.5207017  35.5739244 107.6470792 118.7953845  35.4772297
 107.7958109 120.2816377  35.2306318 101.9308974 117.2938572  50.3138445
 102.6408593 116.6531764  50.2725063 101.8878282 117.5451467  51.2364626
 109.9195753 124.2305925  53.2345024 109.8608299 123.5465145  52.5675607
 110.3215271 124.9724915  52.7825650 100.6437908 114.2803790  52.1334084
 100.1075265 113.8294528  52.7855681 100.0554616 114.4149699  51.3904549
  98.9386451 131.0467839  46.0278743  99.1783050 131.6786363  46.7057762
  98.0955648 130.6955879  46.3144102 100.0540167 113.7392441  34.6960548
  99.1769633 113.6181242  34.3322795 100.5297920 112.9478519  34.4439437
 109.9213160 122.1945509  51.4659004 109.0339939 121.8571431  51.5885403
 110.4911711 121.4628540  51.7027769  91.5742307 118.5269601  44.7902055
  92.2613347 118.2131331  44.2023071  91.4190436 119.4310966  44.5169307
  96.3777029 113.4159797  49.2187079  96.2935218 112.8085467  48.4837489
  95.5559736 113.9068816  49.2196575 103.4514313 126.8546962  48.4320247
 103.3784485 127.6601933  48.9439552 103.0091706 127.0538927  47.6068268
 103.2404093 126.0918732  41.9423069 102.4571615 126.6340412  42.0361293
 103.9396838 126.6092711  42.3417310 106.5500743 111.9013361  44.5857274
 107.0469443 111.1483323  44.2658344 105.7787725 111.9377678  44.0200483
 114.4030500 117.6053727  46.2275566 114.3920377 118.4878442  45.8569499
 113.5347880 117.2525277  46.0330103 105.9112997 126.7533796  50.5878406
 106.6240969 127.3881260  50.5154307 105.4203026 126.8497662  49.7718408
 107.6330524 120.6585048  42.1595697 106.6986803 120.7786511  41.9900402
 107.8107192 119.7557515  41.8955707 103.1335712 114.0430744  44.3128959
 102.7633499 113.4901784  45.0009864 103.6294804 113.4388877  43.7603959
 111.0203075 116.5002368  42.6945732 111.4863527 117.3330359  42.6206034
 111.4710576 116.0347349  43.3990990 100.9624910 124.5028239  51.4083977
 101.6634370 125.1364722  51.5613371 100.4920025 124.8442971  50.6479616
 109.0879306 122.8446189  39.6931884 109.3639150 122.7302783  40.6025758
 108.2183805 122.4463674  39.6544057 108.9919738 108.8682954  46.7336633
 108.0782818 109.0987181  46.9018840 109.4212839 108.9521399  47.5850665
 108.7626196 117.0572846  49.2336527 108.1097647 117.3048754  48.5788980
 109.1406576 116.2436985  48.8999004 105.7233370 127.0932540  43.3364697
 105.9055765 126.2754196  43.7992450 106.5466356 127.3100232  42.8989587
 106.0575536 126.0200725  40.5979746 106.5863302 125.5093179  39.9849908
 106.3203755 125.7043255  41.4625279 104.8113769 117.7992658  55.7202564
 104.1354406 117.6986787  56.3904939 105.6341403 117.6431871  56.1838561
  96.5592628 124.0364594  48.3415079  97.1446065 123.2908282  48.4742983
  96.3617467 124.3468551  49.2251743  99.4131284 127.0715841  43.3577522
  98.7441659 127.5561969  42.8741562  99.2744153 127.3185062  44.2720900
  91.1510283 116.6070194  47.0619522  91.1894383 116.0733785  47.8556641
  90.6450576 116.0805400  46.4430500 103.5536552 129.1059585  49.9560180
 104.1054860 129.2691206  50.7209265 103.8942746 129.6964023  49.2840205
  98.5301046 111.4534735  50.5582065  98.5942372 112.3149566  50.1459462
  98.4668166 110.8408736  49.8254423  98.0053318 113.5257867  54.2055099
  98.6325357 113.1434945  54.8192623  97.1481237 113.3072069  54.5710791
 108.4047427 123.9320842  55.8108834 108.9487331 124.5450801  55.3163789
 107.8234271 124.4900421  56.3275847  94.7818861 115.3334296  40.1373454
  95.0772302 114.4244975  40.0840507  93.8806897 115.3122036  39.8154456
 106.6904940 127.0541560  46.9423862 106.5656079 126.2531300  46.4334808
 107.3484031 127.5487754  46.4537832  98.3113108 113.4090293  46.1201002
  97.5899694 114.0226261  45.9808476  99.1006364 113.9448058  46.0417648
 108.7539848 124.8550581  48.5703412 107.8070183 124.7355932  48.4981739
 109.1022621 123.9673079  48.6529674 101.1139421 110.7444719  52.3941654
 101.6373823 110.9907016  53.1567963 100.8951755 111.5764754  51.9744791
  96.5106702 113.0148394  40.2612779  96.1819409 112.1345773  40.0787885
  96.8646073 112.9596063  41.1489168 105.7586281 124.6503297  44.7707764
 105.6111244 123.7220004  44.9515335 106.5839775 124.6723388  44.2864840
  99.6248526 113.3021364  40.6288257  99.9644598 113.8307285  39.9066865
 100.0720646 113.6401770  41.4046823 109.3620403 125.4731856  45.8572637
 110.2866951 125.2674717  45.7197088 109.1935706 125.2248257  46.7661979
 102.3191966 111.6858415  50.0791325 101.9788787 110.8866228  50.4812005
 101.6130973 111.9860125  49.5068158 102.9708438 108.7707727  48.5318648
 103.7934507 108.2968205  48.4097538 103.2146502 109.5498211  49.0317334
 101.6116673 111.7995985  38.8281549 102.3325035 112.1777238  38.3245266
 100.9881977 112.5184862  38.9316527 105.7547796 112.5041134  39.7639882
 105.9711410 113.3865772  39.4628710 105.2741863 112.1127348  39.0345524
 100.4947017 115.4626848  46.3410626 100.3491598 115.7767151  47.2334908
 100.0172221 116.0811748  45.7881525 102.3543400 112.4529396  46.3891516
 102.3404969 111.5570489  46.0523814 103.0715828 112.4600059  47.0229802
 104.2069531 112.8866736  48.4344643 103.9487308 113.8083807  48.4328974
 103.6754571 112.4897170  49.1245107 109.1515719 125.9917523  41.2134729
 109.3252597 125.4263945  40.4608581 109.6444611 126.7918418  41.0314219
  94.9692679 118.0032192  49.2798287  94.4246147 118.7792000  49.4118562
  95.8472029 118.3502997  49.1217409 101.7580296 111.3343776  41.6579086
 101.8796207 110.4060422  41.8569974 101.4682338 111.3482462  40.7457401
 104.6271486 109.0198686  44.7945806 104.6493183 109.0838019  43.8397785
 105.0439545 108.1803195  44.9886312 115.0055110 118.7553946  42.8325028
 115.4486256 118.0061271  42.4344152 114.1281621 118.7464082  42.4498760
 110.1390892 125.3084287  38.3131627 110.8341796 125.9290980  38.5318942
 110.4814042 124.4579639  38.5884005  95.7558701 117.1302088  52.1728444
  95.0140437 117.2784724  52.7593075  95.4351445 117.3910354  51.3095194
 112.0382315 122.7583993  39.8418958 112.5633639 123.0971266  39.1168278
 111.9504667 121.8231008  39.6582092 103.7002364 126.6718067  51.9708834
 104.0089490 126.4267213  52.8431534 104.4977846 126.8764705  51.4827705
 103.7222976 128.8255976  44.2014211 103.2827966 128.3332355  44.8947068
 104.4731093 128.2828944  43.9606286  96.2015315 125.0167517  44.2038839
  97.0273335 124.7171289  43.8237483  95.8509367 124.2475139  44.6528628
 101.1696848 124.3693985  46.2736513 100.5476857 123.7064690  45.9738740
 101.8401715 124.3955117  45.5910160  94.4023920 122.9353844  45.1627773
  93.5655828 122.5076018  44.9811774  94.3747565 123.1286287  46.0998564
 101.2421375 112.8475773  55.8669019 101.2909531 113.7237896  55.4846788
 101.7843889 112.3053166  55.2940662 111.7276221 123.3916897  55.1470156
 110.9371765 123.3741035  54.6074655 111.4909576 123.9305190  55.9019192
 111.8474096 120.2409363  52.4602884 111.8972101 120.0759370  53.4018407
 111.7388019 119.3736622  52.0700765 100.7310355 122.9197909  39.7494973
 100.8798475 123.6033373  39.0961646 101.5376798 122.9002999  40.2644429
 109.1377858 116.2240291  53.7762191 110.0387721 116.0846756  53.4846189
 109.2125833 116.3894746  54.7160368 103.4720664 113.6007146  52.6215377
 102.6023973 113.8940712  52.3497966 103.7080144 114.1847591  53.3422641
 113.3492293 122.6606304  52.7044906 113.0577101 123.0236285  53.5408367
 112.7364424 121.9473313  52.5258238 114.5487975 120.2259184  45.2247476
 115.3834867 120.6648988  45.3885036 114.6847104 119.7497837  44.4055722
 111.5979481 117.7838919  51.1724964 112.0733603 117.9766565  50.3643815
 110.6745046 117.8398105  50.9268347  98.4862988 118.9463086  40.7556042
  98.2409030 118.0425416  40.9536252  98.6558902 118.9480237  39.8135520
 106.1759698 109.8186763  50.1380798 106.6941641 110.5547790  49.8127286
 105.8214830 110.1250756  50.9727557  97.7558635 114.6791444  38.2542204
  97.0627880 114.7535799  37.5982239  97.5110387 113.9151787  38.7763720
 106.4272292 106.2387045  45.6581694 106.7074046 105.5710234  46.2842121
 107.2122899 106.4316141  45.1456358 104.2305760 125.4146039  37.2206721
 103.6579727 126.0336226  36.7677192 104.8038554 125.9645401  37.7546642
 110.2981150 114.6604679  49.4053269 111.2498573 114.7602777  49.4265493
 110.1284601 113.8682948  49.9151354 108.3195530 111.7460262  49.5912670
 107.7245462 112.0265275  48.8959159 108.0345226 112.2354163  50.3629411
 107.4503020 125.6983189  38.3515303 108.3833693 125.6328751  38.5548178
 107.3626233 126.5339456  37.8929835 110.0791037 125.0149060  35.3119250
 110.0004668 124.6808923  36.2055008 110.9000703 125.5070827  35.3110723
 112.7769228 117.8810799  48.5195569 112.7445548 116.9426800  48.7055253
 113.3869852 117.9594836  47.7861394 104.6152559 116.7506852  34.5622773
 105.5611663 116.6213060  34.6311191 104.2366804 116.0121514  35.0392201
 112.9263716 114.6721842  48.5653852 112.4102765 113.8880299  48.3783781
 113.8103665 114.3440559  48.7300372 110.5874443 108.4162858  44.5249665
 110.3899264 108.1077946  45.4092997 111.1974149 109.1424497  44.6547595
 118.5945778 118.9426806  47.6601606 119.3249166 118.6812094  48.2209309
 117.9852723 118.2055528  47.7003674 116.6761075 117.0834668  48.2576057
 115.9494238 116.9490633  47.6492549 116.2608362 117.3911497  49.0632775
 104.4991251 120.8024598  56.0223430 105.4194261 120.9803197  56.2163477
 104.4640834 119.8580643  55.8703129 102.7995476 114.6756828  34.4977658
 101.8926931 114.3789941  34.5740372 103.0771457 114.3786646  33.6311945
  93.7173416 115.9963192  44.9476705  93.3976201 115.1428500  44.6551079
  93.1706844 116.2111770  45.7034672  97.4953324 118.7125633  48.6646211
  97.7139334 119.6442740  48.6834245  97.9079098 118.3533607  49.4501015
 104.4157542 109.2193718  40.6521900 103.6058270 108.8740803  41.0277146
 105.1041959 108.9101262  41.2409511 106.3448090 108.2971765  42.2746196
 106.8979129 108.7167218  42.9336219 106.5818176 107.3707513  42.3169152
 102.3681189 114.2858838  58.0548960 102.2677916 115.2353195  57.9861051
 102.1502731 113.9577077  57.1825030 101.5694261 111.5343763  34.6389637
 102.4313425 111.8598662  34.8985455 101.7544605 110.7475259  34.1262703
  93.5861676 119.6166103  46.9169826  92.8925148 119.2020056  46.4039781
  94.3334667 119.6586640  46.3203245 109.7226897 110.4072290  41.7824860
 109.1425566 111.0657094  41.4002913 109.4562830 109.5849634  41.3712278
 108.1730463 109.8077348  43.9846181 108.6730242 109.9193882  43.1760500
 108.8166071 109.5038400  44.6246989 102.2312459 117.7155977  56.8714022
 101.7479541 118.5156337  57.0777911 102.3173398 117.7263922  55.9181466
  95.4998419 119.5484357  44.7935841  95.4769107 119.6472044  43.8417724
  95.8099055 120.3949508  45.1153007  98.1585797 121.6060512  48.9082456
  99.1129050 121.5744454  48.8412387  97.9598320 121.1451136  49.7232681
  98.7485179 120.1761628  51.4753253  99.5678068 120.6705707  51.4988091
  99.0221987 119.2593596  51.4470821 108.5051775 112.5672380  40.8381209
 107.6177630 112.8522031  40.6201403 108.9205764 112.4066144  39.9908486
 111.8566311 112.5918901  44.5535548 112.6326701 113.0815354  44.8260165
 111.1314445 113.0176955  45.0107417 114.2938870 113.3046520  45.6109489
 114.8883361 113.0642256  44.9002797 114.3665453 112.5853651  46.2383025
  96.5136025 127.1480131  45.9252653  96.3790493 126.3880532  45.3590651
  96.0968088 127.8721031  45.4581442 107.6494988 122.3317055  34.9329229
 108.3530839 122.5367057  35.5486884 106.9257637 122.8993817  35.1978312
 108.4792799 118.0826916  41.0531499 108.4228000 118.5395468  40.2139131
 109.0321141 117.3217601  40.8754342 112.2897605 113.8716648  41.8781618
 112.0334539 113.4713284  42.7089826 111.6650473 114.5860442  41.7531758
 116.6009943 116.6112721  44.3852910 116.0409500 116.6805911  45.1584472
 115.9953446 116.4353706  43.6652406  99.6705151 128.0449448  46.1371096
  99.5537535 128.9894881  46.0349786  98.8497598 127.7423010  46.5256895
 109.5581686 122.7699584  36.9827689 110.3927290 122.3380783  36.8005164
 109.3966029 122.5981598  37.9104583 109.2127578 119.2731697  38.3484028
 109.1576382 119.1075969  37.4072472 108.5873633 119.9807730  38.5046218
  94.0020093 114.5099762  52.1745450  94.6478957 113.9998716  52.6632675
  93.7937244 115.2468443  52.7488876 106.5273485 121.5780609  57.6737591
 107.3964645 121.7521262  57.3124226 106.0480237 122.3975026  57.5513320
 102.5223704 108.7739806  37.9269346 102.5102373 109.7181646  38.0837617
 103.4147125 108.5909952  37.6328808 100.6959665 128.6977710  49.3527024
 101.5986912 128.7301321  49.6693519 100.4697036 127.7678161  49.3673360
 102.4513267 127.4508697  46.0137103 101.5008898 127.4510558  45.9001475
 102.7545754 126.7041431  45.4973138 106.3375823 105.3682583  42.1815283
 105.5708219 104.8141070  42.3271966 106.7486528 105.4404452  43.0429435
  98.3417584 111.6567379  56.2720465  99.2049046 111.3004184  56.4823789
  97.7682995 111.3181274  56.9595869 118.1865961 133.2869235  47.0782866
 118.8244371 133.1675983  46.3746206 118.0686804 134.2350079  47.1370818
 114.9955667 133.2396663  47.0144390 114.6574179 133.1237728  46.1264925
 115.8645435 132.8387828  46.9945396 110.8542483 135.0932140  43.0041281
 110.2907348 135.0022077  42.2357569 110.7394878 134.2732044  43.4843774
 115.4775450 134.3931515  52.9730596 115.4664091 133.9984313  52.1011099
 115.6396090 133.6597588  53.5664367 108.4006915 136.5883331  45.8425502
 109.1928207 136.2474156  45.4271801 108.6403565 136.6978306  46.7627655
 110.3597669 135.8492245  38.7142880 111.1328545 135.3021232  38.5755756
 110.7123068 136.7136494  38.9257342 112.1982711 137.1768627  51.9209780
 111.9072577 138.0814258  51.8056446 112.8339696 137.2185154  52.6353849
 113.1238918 134.5545475  48.5111139 113.7202490 134.3301498  47.7968102
 113.1813890 133.8130221  49.1136587 117.7407229 131.0120689  44.1536074
 118.5270319 130.5940112  43.8026491 118.0045934 131.9166781  44.3217722
 123.1415657 130.9495922  45.0569052 123.8740829 130.3795139  45.2906882
 122.3855012 130.5617523  45.4975558 112.4160235 133.9113017  38.5485705
 112.2996493 133.2357920  39.2166790 112.5262495 133.4245391  37.7317858
 114.7591776 133.3723164  42.2532395 114.3949984 132.8453785  42.9645316
 115.6158892 132.9821633  42.0798880 120.6641077 124.6617496  49.5163661
 120.3324402 125.5312907  49.2924876 120.0686690 124.3453780  50.1957691
 114.3997263 128.4013063  37.2493743 114.5671666 129.2693300  37.6164214
 114.2094432 128.5640345  36.3255032 117.1572596 136.8630042  48.9159573
 116.8573320 137.7655081  48.8075381 116.8123656 136.5962226  49.7680726
 110.6085078 133.3143839  44.9496278 109.6835574 133.1820053  45.1573970
 110.8569491 134.0938058  45.4466220 120.5569740 129.3812583  46.5957011
 119.6486618 129.3127991  46.3015772 120.5057336 129.8584528  47.4238836
 114.3786484 130.8570721  38.2340410 114.2586109 131.3027772  39.0725890
 113.6839073 131.2056039  37.6753948 107.9693889 132.9577113  45.7840067
 108.0986270 133.2111592  46.6979479 107.2891340 133.5504821  45.4644722
 114.6310606 130.8002228  54.5391908 113.8543940 131.3596148  54.5294773
 115.2701169 131.2859011  55.0606778 122.4231387 127.5829021  48.3734885
 121.7805767 127.8761554  47.7274679 121.9186315 127.4681941  49.1788081
 112.8856978 133.6087682  54.1009875 113.6271663 134.1472726  53.8244699
 112.1793964 134.2353970  54.2581427 118.3612318 135.7516822  52.6982036
 118.7695674 135.3099233  51.9536669 117.6389579 135.1769450  52.9516229
 114.7143388 130.6889429  50.0715593 115.5604583 131.1128842  50.2150242
 114.6542026 130.0323053  50.7654157 118.6841133 136.3118013  46.4534325
 118.0549995 136.4763727  45.7510393 118.2966795 136.7259622  47.2245289
 117.8642833 128.3493797  51.7296767 117.6203765 129.1035858  51.1931043
 118.1402764 128.7279145  52.5644014 119.8181296 134.8932409  50.4074033
 120.0298191 135.5364169  49.7308414 119.7711044 134.0594726  49.9395963
 117.4207525 127.5050230  47.3110605 116.5592004 127.8031484  47.6027342
 117.4469960 127.7220629  46.3791637 114.2369095 136.0492421  43.7184410
 114.7007440 136.3280124  42.9289033 113.9725893 135.1475865  43.5357501
 111.1293176 135.5963902  46.6564174 111.6994533 136.0251171  46.0181658
 111.7201287 135.3146487  47.3548359 113.1737981 132.1715573  40.5273976
 113.8762024 132.6236617  40.9947902 112.8418609 131.5299392  41.1553869
 111.6218342 130.7627330  54.9025185 110.9917003 131.4443611  55.1360582
 111.5154430 130.6510411  53.9578323 106.9163315 130.4299126  45.8291109
 106.1262369 130.6856654  45.3531220 107.4074562 131.2447464  45.9343150
 120.9327124 137.7704365  48.5796390 121.7544568 137.3684552  48.2979072
 120.9289527 137.6672599  49.5312506 108.8678060 130.7943705  42.7874586
 108.0709223 130.9062399  43.3058082 108.6403652 131.1330357  41.9215476
 114.6983728 137.3188408  50.7357101 114.7628160 137.7808815  51.5715272
 113.9894651 136.6885773  50.8639410 105.2001018 130.6829616  48.2606100
 105.4509056 131.5676626  48.5263676 105.7360566 130.5034218  47.4881192
 110.8999085 125.0648096  57.2650436 110.5066030 124.5114294  57.9398080
 111.7165225 125.3758674  57.6556954 107.8661143 136.5031954  41.1764006
 108.3785663 137.2975204  41.3269571 108.5183855 135.8058244  41.1097607
 109.6756027 139.6197710  43.2586759 109.8522656 140.5415675  43.0707743
 110.4712861 139.3056129  43.6881139 113.8167046 126.4805975  54.8570693
 114.5576759 127.0813128  54.7775155 114.0484969 125.7383612  54.2988735
 108.9608384 131.6662342  53.1348922 108.8461899 130.7647599  53.4356021
 108.1052902 131.9126039  52.7833739 116.0400222 139.6080082  54.7336423
 115.5964076 138.8216461  54.4157327 116.7017435 139.7959233  54.0680314
 110.7987343 141.1375884  49.2597101 111.3494768 141.0092947  48.4874095
 109.9598819 141.4370773  48.9091994 114.5954514 137.4027012  53.6041333
 115.1282851 136.6415300  53.3740641 114.0668595 137.1100663  54.3465487
 117.7624209 122.5087078  49.1334974 117.4188478 123.3988719  49.0574085
 118.1303171 122.3188735  48.2704559 105.8310059 134.8320608  41.9523576
 106.6685281 135.2417616  41.7357284 106.0088327 133.8920050  41.9223770
 115.3121603 127.3445389  42.6992648 114.4563199 126.9552240  42.5198286
 115.7248554 127.4237350  41.8392433 116.8420749 124.8791733  47.0984208
 116.3385545 124.8421868  46.2852013 117.1351356 125.7884475  47.1580864
 113.0863635 124.9630462  46.1050389 113.9516632 124.7673271  45.7456279
 113.1541144 124.7340814  47.0319746 117.5160795 130.3722781  39.4667191
 117.2110930 130.6868930  40.3177334 118.4691237 130.4504201  39.5094524
 115.9607226 136.5313004  41.1160145 115.4328588 135.7965764  40.8033382
 115.4594729 137.3087680  40.8700113 120.9400073 134.7262025  46.2327191
 120.2823747 135.4161286  46.3207319 121.7440472 135.1158457  46.5761177
 110.6925954 127.1932670  43.4766756 111.2669706 126.9707852  42.7439949
 111.2796937 127.2621365  44.2295357 119.7505531 133.0806397  44.2831133
 120.2637413 133.7136389  44.7852842 120.4006755 132.4807593  43.9174493
 111.0195541 129.2237131  37.4962641 110.1832853 129.5611818  37.8171916
 110.8800311 129.0886111  36.5589778 112.9948622 124.0673919  42.2041826
 112.3413034 123.7522936  41.5798440 112.9529096 123.4449660  42.9301648
 116.2286362 130.5555853  46.5289473 115.3108924 130.7770800  46.3711161
 116.6446506 130.6302163  45.6701180 117.0121410 131.9547269  41.6592153
 117.7593229 132.4668666  41.3499275 117.2812999 131.6331321  42.5196547
 119.4600247 128.9904385  43.6410943 118.7223004 128.4781771  43.9721185
 119.7127021 128.5504766  42.8294220 119.5611874 121.7680637  44.2352712
 119.8670751 120.9078000  43.9478627 120.2864479 122.3598257  44.0351706
 105.8536230 132.1711323  42.6234310 105.6560630 131.5780684  41.8985376
 105.2982894 131.8663534  43.3410249 113.8332954 132.0634430  44.7428903
 113.8881564 131.1108266  44.6671380 113.0224156 132.2193869  45.2270201
 111.7725314 130.6811490  42.5019282 110.9593180 130.9805660  42.9084474
 112.2684308 130.2867178  43.2193764 113.9233892 140.6769247  44.4353547
 113.8810071 140.9030093  43.5062079 114.8396591 140.4432621  44.5839348
 117.3699526 131.1453314  51.3334176 117.7248913 131.3724787  52.1928642
 118.0171657 131.4771691  50.7111431 111.2639389 128.2529845  48.1180517
 111.9038768 128.1118604  47.4203480 110.4316919 127.9664358  47.7419119
 123.1266642 136.3348277  47.0494776 123.5603149 136.2423566  47.8977830
 123.8398223 136.3105777  46.4114792 112.0399693 137.5532276  44.2315509
 112.8340291 137.0582596  44.0298084 111.3291385 137.0250139  43.8683215
 116.8594537 139.9350371  48.5827877 116.9131559 140.5041307  49.3505593
 115.9909319 140.1052256  48.2181914 108.3482456 131.6975357  40.3075262
 107.4180044 131.6359813  40.5245224 108.4439928 131.1751310  39.5111903
 108.2668005 128.2230170  42.8953504 108.5274823 129.1375503  42.7862664
 109.0885178 127.7554613  43.0450116 109.7392931 129.6367927  50.0652328
 110.4115984 129.4285289  49.4164977 108.9122717 129.4390013  49.6257560
 115.6418503 126.2629868  52.0817989 114.9946418 126.9619818  51.9882465
 116.4119518 126.6966012  52.4494237 119.0497301 136.5278720  55.1568542
 118.8982807 136.2989272  54.2398626 119.0401980 137.4849322  55.1699887
 115.8182637 134.1010633  50.1414809 116.7474697 134.2521793  49.9683776
 115.3973667 134.1894654  49.2863455 114.6170969 138.1261298  47.9113346
 114.4782054 137.7580082  48.7839285 113.8285565 138.6408937  47.7397304
 116.1676184 137.5042900  45.3002184 115.8326016 137.4643670  46.1959834
 115.6680130 136.8387616  44.8272594 110.1420428 132.9110530  50.8254765
 110.0040226 132.1790769  51.4266304 111.0525351 132.8219430  50.5438953
 112.7702729 132.6230490  50.3138445 113.4802347 131.9823682  50.2725063
 112.7272037 132.8743384  51.2364626 111.4831662 129.6095707  52.1334084
 110.9469019 129.1586446  52.7855681 110.8948371 129.7441616  51.3904549
 110.8933921 129.0684359  34.6960548 110.0163388 128.9473160  34.3322795
 111.3691675 128.2770437  34.4439437 120.7606914 137.5237427  51.4659004
 119.8733693 137.1863349  51.5885403 121.3305466 136.7920458  51.7027769
 102.4136062 133.8561519  44.7902055 103.1007101 133.5423249  44.2023071
 102.2584190 134.7602883  44.5169307 107.2170784 128.7451715  49.2187079
 107.1328972 128.1377385  48.4837489 106.3953490 129.2360733  49.2196575
 114.2908068 142.1838879  48.4320247 114.2178239 142.9893851  48.9439552
 113.8485461 142.3830845  47.6068268 117.3894498 127.2305279  44.5857274
 117.8863197 126.4775241  44.2658344 116.6181479 127.2669595  44.0200483
 125.2424255 132.9345644  46.2275566 125.2314131 133.8170360  45.8569499
 124.3741634 132.5817195  46.0330103 118.4724278 135.9876966  42.1595697
 117.5380557 136.1078428  41.9900402 118.6500947 135.0849433  41.8955707
 113.9729466 129.3722662  44.3128959 113.6027254 128.8193702  45.0009864
 114.4688559 128.7680795  43.7603959 121.8596830 131.8294285  42.6945732
 122.3257282 132.6622277  42.6206034 122.3104330 131.3639267  43.3990990
 111.8018665 139.8320157  51.4083977 112.5028124 140.4656640  51.5613371
 111.3313780 140.1734888  50.6479616 119.8313492 124.1974872  46.7336633
 118.9176572 124.4279099  46.9018840 120.2606594 124.2813316  47.5850665
 119.6019951 132.3864764  49.2336527 118.9491401 132.6340672  48.5788980
 119.9800331 131.5728902  48.8999004 115.6507524 133.1284575  55.7202564
 114.9748161 133.0278705  56.3904939 116.4735158 132.9723789  56.1838561
 107.3986383 139.3656512  48.3415079 107.9839820 138.6200200  48.4742983
 107.2011221 139.6760468  49.2251743 110.2525038 142.4007759  43.3577522
 109.5835413 142.8853887  42.8741562 110.1137908 142.6476980  44.2720900
 101.9904038 131.9362112  47.0619522 102.0288137 131.4025703  47.8556641
 101.4844331 131.4097317  46.4430500 109.3694800 126.7826652  50.5582065
 109.4336126 127.6441483  50.1459462 109.3061920 126.1700654  49.8254423
 108.8447073 128.8549785  54.2055099 109.4719111 128.4726862  54.8192623
 107.9874991 128.6363987  54.5710791 105.6212615 130.6626214  40.1373454
 105.9166056 129.7536893  40.0840507 104.7200651 130.6413954  39.8154456
 109.1506862 128.7382211  46.1201002 108.4293448 129.3518178  45.9808476
 109.9400118 129.2739975  46.0417648 111.9533176 126.0736637  52.3941654
 112.4767578 126.3198934  53.1567963 111.7345509 126.9056672  51.9744791
 107.3500457 128.3440312  40.2612779 107.0213163 127.4637691  40.0787885
 107.7039828 128.2887980  41.1489168 116.5980036 139.9795214  44.7707764
 116.4504998 139.0511922  44.9515335 117.4233529 140.0015305  44.2864840
 110.4642280 128.6313282  40.6288257 110.8038353 129.1599203  39.9066865
 110.9114400 128.9693688  41.4046823 113.1585721 127.0150332  50.0791325
 112.8182541 126.2158145  50.4812005 112.4524727 127.3152043  49.5068158
 113.8102193 124.0999645  48.5318648 114.6328262 123.6260123  48.4097538
 114.0540256 124.8790128  49.0317334 112.4510427 127.1287903  38.8281549
 113.1718790 127.5069156  38.3245266 111.8275731 127.8476780  38.9316527
 116.5941550 127.8333052  39.7639882 116.8105164 128.7157690  39.4628710
 116.1135617 127.4419266  39.0345524 111.3340771 130.7918765  46.3410626
 111.1885352 131.1059068  47.2334908 110.8565975 131.4103666  45.7881525
 113.1937154 127.7821313  46.3891516 113.1798723 126.8862407  46.0523814
 113.9109582 127.7891977  47.0229802 115.0463285 128.2158654  48.4344643
 114.7881063 129.1375724  48.4328974 114.5148325 127.8189088  49.1245107
 105.8086434 133.3324110  49.2798287 105.2639902 134.1083918  49.4118562
 106.6865783 133.6794914  49.1217409 112.5974050 126.6635694  41.6579086
 112.7189961 125.7352340  41.8569974 112.3076093 126.6774380  40.7457401
 115.4665241 124.3490604  44.7945806 115.4886937 124.4129937  43.8397785
 115.8833300 123.5095113  44.9886312 125.8448865 134.0845864  42.8325028
 126.2880011 133.3353189  42.4344152 124.9675375 134.0756000  42.4498760
 106.5952455 132.4594006  52.1728444 105.8534191 132.6076641  52.7593075
 106.2745200 132.7202272  51.3095194 114.5396118 142.0009984  51.9708834
 114.8483245 141.7559131  52.8431534 115.3371600 142.2056623  51.4827705
 107.0409069 140.3459435  44.2038839 107.8667089 140.0463207  43.8237483
 106.6903121 139.5767057  44.6528628 112.0090602 139.6985903  46.2736513
 111.3870612 139.0356608  45.9738740 112.6795469 139.7247035  45.5910160
 105.2417674 138.2645761  45.1627773 104.4049582 137.8367936  44.9811774
 105.2141320 138.4578205  46.0998564 112.0815130 128.1767691  55.8669019
 112.1303285 129.0529814  55.4846788 112.6237644 127.6345084  55.2940662
 122.6867851 135.5701281  52.4602884 122.7365855 135.4051288  53.4018407
 122.5781774 134.7028540  52.0700765 119.9771613 131.5532209  53.7762191
 120.8781476 131.4138673  53.4846189 120.0519587 131.7186663  54.7160368
 114.3114418 128.9299063  52.6215377 113.4417728 129.2232629  52.3497966
 114.5473899 129.5139508  53.3422641 122.4373236 133.1130837  51.1724964
 122.9127357 133.3058483  50.3643815 121.5138801 133.1690023  50.9268347
 109.3256742 134.2755004  40.7556042 109.0802784 133.3717334  40.9536252
 109.4952657 134.2772154  39.8135520 117.0153452 125.1478680  50.1380798
 117.5335396 125.8839707  49.8127286 116.6608585 125.4542674  50.9727557
 108.5952390 130.0083362  38.2542204 107.9021635 130.0827716  37.5982239
 108.3504142 129.2443705  38.7763720 117.2666046 121.5678963  45.6581694
 117.5467800 120.9002152  46.2842121 118.0516653 121.7608058  45.1456358
 121.1374905 129.9896597  49.4053269 122.0892327 130.0894694  49.4265493
 120.9678355 129.1974865  49.9151354 119.1589284 127.0752180  49.5912670
 118.5639216 127.3557193  48.8959159 118.8738981 127.5646081  50.3629411
 123.6162982 133.2102717  48.5195569 123.5839302 132.2718717  48.7055253
 124.2263606 133.2886753  47.7861394 123.7657471 130.0013760  48.5653852
 123.2496519 129.2172217  48.3783781 124.6497419 129.6732477  48.7300372
 121.4268198 123.7454776  44.5249665 121.2293019 123.4369864  45.4092997
 122.0367903 124.4716414  44.6547595 127.5154829 132.4126586  48.2576057
 126.7887993 132.2782551  47.6492549 127.1002116 132.7203415  49.0632775
 115.3385006 136.1316516  56.0223430 116.2588015 136.3095115  56.2163477
 115.3034589 135.1872561  55.8703129 104.5567171 131.3255109  44.9476705
 104.2369955 130.4720417  44.6551079 104.0100599 131.5403687  45.7034672
 108.3347078 134.0417550  48.6646211 108.5533088 134.9734658  48.6834245
 108.7472852 133.6825525  49.4501015 115.2551296 124.5485636  40.6521900
 114.4452024 124.2032721  41.0277146 115.9435713 124.2393179  41.2409511
 117.1841844 123.6263682  42.2746196 117.7372883 124.0459136  42.9336219
 117.4211931 122.6999431  42.3169152 113.2074944 129.6150756  58.0548960
 113.1071671 130.5645113  57.9861051 112.9896486 129.2868995  57.1825030
 112.4088015 126.8635681  34.6389637 113.2707179 127.1890579  34.8985455
 112.5938359 126.0767177  34.1262703 104.4255431 134.9458021  46.9169826
 103.7318902 134.5311974  46.4039781 105.1728422 134.9878557  46.3203245
 120.5620651 125.7364208  41.7824860 119.9819321 126.3949012  41.4002913
 120.2956584 124.9141552  41.3712278 119.0124218 125.1369265  43.9846181
 119.5123996 125.2485800  43.1760500 119.6559826 124.8330318  44.6246989
 113.0706214 133.0447895  56.8714022 112.5873295 133.8448255  57.0777911
 113.1567153 133.0555840  55.9181466 106.3392173 134.8776275  44.7935841
 106.3162861 134.9763962  43.8417724 106.6492810 135.7241425  45.1153007
 108.9979551 136.9352430  48.9082456 109.9522805 136.9036372  48.8412387
 108.7992075 136.4743053  49.7232681 109.5878933 135.5053546  51.4753253
 110.4071822 135.9997624  51.4988091 109.8615741 134.5885514  51.4470821
 119.3445529 127.8964298  40.8381209 118.4571385 128.1813949  40.6201403
 119.7599519 127.7358061  39.9908486 122.6960066 127.9210819  44.5535548
 123.4720456 128.4107271  44.8260165 121.9708200 128.3468873  45.0107417
 125.1332624 128.6338438  45.6109489 125.7277115 128.3934174  44.9002797
 125.2059208 127.9145569  46.2383025 107.3529780 142.4772049  45.9252653
 107.2184248 141.7172450  45.3590651 106.9361842 143.2012949  45.4581442
 119.3186553 133.4118834  41.0531499 119.2621755 133.8687385  40.2139131
 119.8714896 132.6509518  40.8754342 123.1291359 129.2008566  41.8781618
 122.8728293 128.8005201  42.7089826 122.5044227 129.9152360  41.7531758
 127.4403697 131.9404639  44.3852910 126.8803255 132.0097828  45.1584472
 126.8347200 131.7645624  43.6652406 110.5098906 143.3741366  46.1371096
 110.3931290 144.3186799  46.0349786 109.6891352 143.0714928  46.5256895
 104.8413848 129.8391680  52.1745450 105.4872711 129.3290633  52.6632675
 104.6330999 130.5760361  52.7488876 117.3667240 136.9072527  57.6737591
 118.2358399 137.0813179  57.3124226 116.8873991 137.7266944  57.5513320
 113.3617458 124.1031724  37.9269346 113.3496128 125.0473564  38.0837617
 114.2540880 123.9201870  37.6328808 111.5353420 144.0269628  49.3527024
 112.4380667 144.0593238  49.6693519 111.3090790 143.0970079  49.3673360
 113.2907022 142.7800615  46.0137103 112.3402653 142.7802476  45.9001475
 113.5939508 142.0333349  45.4973138 117.1769577 120.6974501  42.1815283
 116.4101973 120.1432987  42.3271966 117.5880282 120.7696370  43.0429435
 109.1811339 126.9859297  56.2720465 110.0442800 126.6296101  56.4823789
 108.6076749 126.6473191  56.9595869  39.6019170   4.0950214  39.6975902
  39.5907811   3.7003012  38.8256406  39.7639810   3.3616287  40.2909674
  36.3226431   6.8787326  38.6455086  36.0316297   7.7832957  38.5301753
  36.9583416   6.9203853  39.3599156  41.2816316   6.5648741  35.6404880
  40.9817039   7.4673780  35.5320687  40.9367376   6.2980924  36.4926033
  38.7554326   0.5020927  41.2637215  37.9787660   1.0614847  41.2540079
  39.3944889   0.9877710  41.7852085  37.0100698   3.3106380  40.8255182
  37.7515383   3.8491424  40.5490005  36.3037684   3.9372669  40.9826733
  42.4856038   5.4535521  39.4227343  42.8939394   5.0117931  38.6781975
  41.7633299   4.8788148  39.6761536  43.9425016   4.5951108  37.1319339
  44.1541911   5.2382868  36.4553720  43.8954764   3.7613425  36.6641269
  45.0570844   7.4723064  35.3041697  45.8788288   7.0703251  35.0224378
  45.0533247   7.3691298  36.2557812  38.8227447   7.0207107  37.4602407
  38.8871880   7.4827514  38.2960579  38.1138371   6.3904472  37.5884717
  40.1643941   9.3098781  41.4581730  39.7207796   8.5235160  41.1402634
  40.8261155   9.4977932  40.7925620  34.9231063  10.8394583  35.9842408
  35.4738488  10.7111646  35.2119402  34.0842538  11.1389472  35.6337301
  42.2625179   9.5901581  39.4863131  42.2443655  10.4110462  38.9943400
  43.1845100   9.4655656  39.7113272  38.7198234   7.1045710  40.3286639
  39.2526570   6.3433999  40.0985947  38.1912315   6.8119362  41.0710794
  47.2510362   6.0366976  33.7740083  47.6846869   5.9442265  34.6223137
  47.9641943   6.0124476  33.1360099  40.9838257   9.6369070  35.3073184
  41.0375279  10.2060006  36.0750899  40.1153038   9.8070955  34.9427221
  48.1125912   6.0790676  36.3072968  48.3061802   6.9836487  36.5532243
  48.0126530   5.6198096  37.1411553  43.1741020   6.2297419  41.8813849
  43.0226527   6.0007971  40.9643933  43.1645700   7.1868021  41.8945194
  44.8833227   9.2616542  39.9590331  44.8245773   8.5775762  39.2920914
  45.2852745  10.0035532  39.5070957  33.9023926  16.0778456  32.7524050
  34.1420524  16.7096980  33.4303068  33.0593122  15.7266496  33.0389409
  44.8850634   7.2256126  38.1904311  43.9977413   6.8882047  38.3130709
  45.4549185   6.4939157  38.4273076  38.4151788  11.8857578  35.1565554
  38.3421959  12.6912550  35.6684858  37.9729181  12.0849544  34.3313575
  40.8750471  11.7844412  37.3123712  41.5878443  12.4191877  37.2399614
  40.3840500  11.8808278  36.4963714  35.9262385   9.5338856  38.1329283
  36.6271844  10.1675339  38.2858677  35.4557500   9.8753587  37.3724922
  39.7751244   2.8303274  42.4447871  39.0991881   2.7297403  43.1150246
  40.5978878   2.6742488  42.9083868  38.5174027  14.1370202  36.6805487
  39.0692335  14.3001823  37.4454572  38.8580220  14.7274639  36.0085511
  43.3684901   8.9631459  42.5354141  43.9124805   9.5761417  42.0409096
  42.7871746   9.5211037  43.0521154  41.6542414  12.0852177  33.6669169
  41.5293553  11.2841917  33.1580114  42.3121505  12.5798370  33.1783139
  43.7177322   9.8861197  35.2948719  42.7707658   9.7666548  35.2227046
  44.0660095   8.9983695  35.3774980  44.3257877  10.5042472  32.5817944
  45.2504425  10.2985333  32.4442395  44.1573181  10.2558873  33.4907285
  38.6639838  11.7028683  38.6954141  38.9726964  11.4577830  39.5676841
  39.4615320  11.9075322  38.2073011  46.6913695   8.4227513  41.8715462
  45.9009239   8.4051652  41.3319962  46.4547050   8.9615807  42.6264499
  46.8111570   5.2719979  39.1848191  46.8609575   5.1069987  40.1263714
  46.7025494   4.4047238  38.7946072  44.1015333   1.2550907  40.5007498
  45.0025195   1.1157372  40.2091495  44.1763307   1.4205362  41.4405675
  48.3129767   7.6916921  39.4290212  48.0214575   8.0546902  40.2653673
  47.7001898   6.9783929  39.2503544  46.5616955   2.8149536  37.8970270
  47.0371077   3.0077182  37.0889122  45.6382521   2.8708721  37.6513654
  47.7406702   2.9121415  35.2440876  47.7083022   1.9737416  35.4300559
  48.3507326   2.9905452  34.5106701  53.5583252   3.9737422  34.3846912
  54.2886641   3.7122710  34.9454616  52.9490198   3.2366144  34.4248980
  51.6398549   2.1145285  34.9821364  50.9131713   1.9801250  34.3737855
  51.2245836   2.4222113  35.7878082  39.4628726   5.8335214  42.7468737
  40.3831735   6.0113813  42.9408783  39.4278309   4.8891260  42.5948436
  37.3318663  -0.6830545  44.7794267  37.2315390   0.2663812  44.7106358
  37.1140205  -1.0112306  43.9070337  37.1949934   2.7466594  43.5959328
  36.7117015   3.5466954  43.8023217  37.2810873   2.7574539  42.6426772
  41.4910960   6.6091226  44.3982897  42.3602119   6.7831878  44.0369532
  41.0117711   7.4285643  44.2758627  35.6597140  13.7288327  36.0772331
  36.5624386  13.7611937  36.3938826  35.4334510  12.7988778  36.0918667
  53.1503435  18.3179852  33.8028172  53.7881845  18.1986599  33.0991512
  53.0324278  19.2660696  33.8616124  49.9593142  18.2707280  33.7389697
  49.6211653  18.1548345  32.8510232  50.8282910  17.8698445  33.7190703
  45.8179957  20.1242756  29.7286588  45.2544822  20.0332693  28.9602876
  45.7032352  19.3042661  30.2089080  50.4412925  19.4242132  39.6975902
  50.4301565  19.0294930  38.8256406  50.6033564  18.6908204  40.2909674
  43.3644389  21.6193948  32.5670808  44.1565681  21.2784773  32.1517108
  43.6041039  21.7288923  33.4872962  51.3979516  23.7913724  25.0401053
  50.7467496  24.3767804  24.6535066  52.1923879  24.3219919  25.0996090
  45.3235143  20.8802861  25.4388187  46.0966019  20.3331848  25.3001063
  45.6760542  21.7447110  25.6502648  47.1620186  22.2079243  38.6455086
  46.8710052  23.1124874  38.5301753  47.7977170  22.2495771  39.3599156
  48.0876393  19.5856092  35.2356446  48.6839965  19.3612114  34.5213409
  48.1451364  18.8440837  35.8381894  52.7044704  16.0431306  30.8781380
  53.4907793  15.6250729  30.5271797  52.9683408  16.9477398  31.0463029
  52.8754781  21.4804156  25.5770037  52.2400614  21.5538782  26.2890942
  52.5452188  22.0697755  24.8989116  58.1053131  15.9806539  31.7814359
  58.8378303  15.4105756  32.0152188  57.3492487  15.5928139  32.2220864
  49.7229251  18.4033780  28.9777701  49.3587458  17.8764401  29.6890623
  50.5796367  18.0132249  28.8044187  55.6278551   9.6928113  36.2408967
  55.2961876  10.5623524  36.0170182  55.0324165   9.3764397  36.9202998
  52.1210071  21.8940659  35.6404880  51.8210794  22.7965698  35.5320687
  51.7761130  21.6272842  36.4926033  45.5722552  18.3454456  31.6741584
  44.6473049  18.2130670  31.8819276  45.8206965  19.1248675  32.1711527
  55.5207215  14.4123199  33.3202317  54.6124092  14.3438608  33.0261078
  55.4694810  14.8895144  34.1484143  42.9331363  17.9887729  32.5085374
  43.0623744  18.2422208  33.4224785  42.2528815  18.5815437  32.1890029
  47.1030851  28.6584979  28.6075848  47.0254880  29.6092804  28.6864328
  46.4992494  28.3130852  29.2650774  49.5948080  15.8312845  41.2637215
  48.8181414  16.3906765  41.2540079  50.2338643  16.3169628  41.7852085
  57.3868861  12.6139638  35.0980191  56.7443241  12.9072171  34.4519986
  56.8823789  12.4992558  35.9033388  55.0409025  16.3602811  25.7866051
  55.9526881  16.5930197  25.6113748  54.5318672  16.9439855  25.2241129
  47.8494453  18.6398298  40.8255182  48.5909137  19.1783342  40.5490005
  47.1431438  19.2664587  40.9826733  53.3249792  20.7827439  39.4227343
  53.7333148  20.3409849  38.6781975  52.6027054  20.2080066  39.6761536
  49.6780862  15.7200045  36.7960900  50.5242058  16.1439459  36.9395549
  49.6179500  15.0633670  37.4899463  53.6478607  21.3428629  33.1779632
  53.0187469  21.5074343  32.4755700  53.2604269  21.7570239  33.9490596
  57.5267839  22.2783067  30.5323996  56.8418877  22.6581968  29.9821029
  57.6111688  22.8878394  31.2655944  52.8280308  13.3804414  38.4542074
  52.5841240  14.1346474  37.9176349  53.1040238  13.7589761  39.2889321
  54.7818770  19.9243026  37.1319339  54.9935666  20.5674786  36.4553720
  54.7348519  19.0905343  36.6641269  52.3844999  12.5360847  34.0355911
  51.5229478  12.8342100  34.3272649  52.4107434  12.7531246  33.1036944
  49.2006569  21.0803037  30.4429717  49.6644914  21.3590740  29.6534340
  48.9363367  20.1786482  30.2602808  46.0930650  20.6274519  33.3809480
  46.6632007  21.0561787  32.7426965  46.6838762  20.3457103  34.0793666
  48.1375455  17.2026190  27.2519282  48.8399498  17.6547233  27.7193209
  47.8056083  16.5610008  27.8799175  46.5855816  15.7937946  41.6270492
  45.9554477  16.4754227  41.8605888  46.4791904  15.6821028  40.6823630
  41.8800789  15.4609742  32.5536416  41.0899843  15.7167271  32.0776526
  42.3712036  16.2758080  32.6588456  55.8964598  22.8014981  35.3041697
  56.7182042  22.3995169  35.0224378  55.8927001  22.6983216  36.2557812
  43.8315534  15.8254322  29.5119893  43.0346697  15.9373016  30.0303388
  43.6041126  16.1640974  28.6460783  49.6621202  22.3499025  37.4602407
  49.7265634  22.8119432  38.2960579  48.9532126  21.7196390  37.5884717
  40.1638492  15.7140233  34.9851407  40.4146530  16.5987243  35.2508983
  40.6998040  15.5344834  34.2126498  63.9870591  19.1453730  31.6526668
  63.2334300  18.5761128  31.4970673  64.1218133  19.1116394  32.5997303
  49.3769219  24.0167132  27.3281387  49.2414894  24.8618668  27.7566235
  49.9179032  24.2186410  26.5647321  45.8636559  10.0958712  43.9895743
  45.4703505   9.5424911  44.6643387  46.6802699  10.4069291  44.3802260
  42.8298617  21.5342570  27.9009313  43.3423137  22.3285821  28.0514877
  43.4821330  20.8368861  27.8342914  44.6393502  24.6508327  29.9832066
  44.8160130  25.5726291  29.7953050  45.4350335  24.3366746  30.4126446
  48.7804520  11.5116591  41.5815999  49.5214233  12.1123744  41.5020462
  49.0122443  10.7694229  41.0234042  43.9245858  16.6972958  39.8594229
  43.8099373  15.7958216  40.1601328  43.0690376  16.9436655  39.5079045
  51.0037696  24.6390699  41.4581730  50.5601550  23.8527077  41.1402634
  51.6654909  24.8269849  40.7925620  45.7624817  26.1686500  35.9842408
  46.3132242  26.0403564  35.2119402  44.9236293  26.4681389  35.6337301
  53.1018934  24.9193499  39.4863131  53.0837409  25.7402380  38.9943400
  54.0238854  24.7947574  39.7113272  49.5591988  22.4337628  40.3286639
  50.0920325  21.6725916  40.0985947  49.0306069  22.1411280  41.0710794
  52.7261683   7.5397694  35.8580281  52.3825952   8.4299336  35.7819392
  53.0940646   7.3499352  34.9949866  40.7947534  19.8631225  28.6768883
  41.6322756  20.2728233  28.4602591  40.9725801  18.9230667  28.6469077
  52.6911966  17.5306305  24.3652716  52.1758589  18.3010910  24.6041103
  52.4189274  16.8571441  24.9885777  50.2759077  12.3756006  29.4237954
  49.4200673  11.9862856  29.2443593  50.6886029  12.4547967  28.5637740
  51.8058223   9.9102349  33.8229514  51.3023019   9.8732484  33.0097319
  52.0988830  10.8195092  33.8826171  48.0501109   9.9941079  32.8295696
  48.9154106   9.7983888  32.4701585  48.1178618   9.7651431  33.7565053
  57.6646240  20.2838660  26.3005890  56.8875683  19.9449819  25.8561052
  58.3437721  20.2891283  25.6260855  52.4798269  15.4033397  26.1912497
  52.1748405  15.7179547  27.0422640  53.4328711  15.4814817  26.2339830
  50.9244701  21.5623621  27.8405451  50.3966062  20.8276380  27.5278689
  50.4232204  22.3398297  27.5945420  55.9037547  19.7572641  32.9572498
  55.2461221  20.4471903  33.0452626  56.7077946  20.1469073  33.3006484
  54.7143006  18.1117014  31.0076439  55.2274887  18.7447006  31.5098149
  55.3644230  17.5118209  30.6419799  51.9765380  28.0901338  23.7637110
  51.3027079  28.3933035  24.3722068  52.3631202  28.8930418  23.4142567
  51.1923836  15.5866469  33.2534780  50.2746398  15.8081416  33.0956468
  51.6083980  15.6612780  32.3946487  51.9758884  16.9857885  28.3837460
  52.7230703  17.4979282  28.0744582  52.2450474  16.6641938  29.2441854
  50.2485534  19.4816426  25.3664414  49.3396754  19.1975459  25.4636884
  50.2780618  19.9015504  24.5067721  55.4804802  23.0923015  29.1355582
  55.0267129  22.2513925  29.1920772  54.8498769  23.7284414  29.4730362
  54.4237721  14.0215001  30.3656249  53.6860478  13.5092388  30.6966492
  54.6764495  13.5815383  29.5539526  53.9237741  24.9299512  30.0705400
  54.2160715  25.4904569  29.3517766  54.4336362  25.2228073  30.8258559
  54.5249349   6.7991253  30.9598019  54.8308226   5.9388617  30.6723934
  55.2501954   7.3908874  30.7597013  48.7970428  17.0945046  31.4674210
  48.8519038  16.1418883  31.3916686  47.9861630  17.2504485  31.9515508
  46.7362788  15.7122106  29.2264589  45.9230654  16.0116277  29.6329781
  47.2321783  15.3177795  29.9439071  48.8871366  25.7079863  31.1598853
  48.8447545  25.9340709  30.2307385  49.8034065  25.4743238  31.3084654
  52.3337000  16.1763931  38.0579482  52.6886388  16.4035404  38.9173948
  52.9809131  16.5082307  37.4356738  58.0634737  19.2982366  28.7628811
  57.9252636  19.4883962  27.8350001  57.7070956  20.0601749  29.2196863
  46.2276863  13.2840462  34.8425823  46.8676242  13.1429221  34.1448787
  45.3954394  12.9974975  34.4664425  58.0904117  21.3658893  33.7740083
  58.5240623  21.2734183  34.6223137  58.8035697  21.3416394  33.1360099
  47.0037167  22.5842892  30.9560816  47.7977766  22.0893212  30.7543391
  46.2928859  22.0560755  30.5928522  51.8232012  24.9660988  35.3073184
  51.8769034  25.5351924  36.0750899  50.9546793  25.1362873  34.9427221
  44.7030405  14.6678544  36.7897635  45.3753458  14.4595906  36.1410284
  43.8760191  14.4700630  36.3502867  58.9519666  21.4082594  36.3072968
  59.1455556  22.3128405  36.5532243  58.8520284  20.9490013  37.1411553
  50.6055977  11.2940485  38.8063296  49.9583892  11.9930434  38.7127772
  51.3756992  11.7276629  39.1739544  54.0134775  21.5589337  41.8813849
  53.8620281  21.3299889  40.9643933  54.0039454  22.5159938  41.8945194
  50.7820111  19.1321250  36.8660115  51.7112171  19.2832409  36.6929083
  50.3611141  19.2205270  36.0108762  49.5808443  23.1571914  34.6358653
  49.4419529  22.7890698  35.5084591  48.7923039  23.6719553  34.4642611
  50.1756595  28.2581011  25.9784190  50.3508351  27.7869054  26.7929812
  49.4889383  28.8846777  26.2065450  51.1313658  22.5353517  32.0247491
  50.7963491  22.4954287  32.9205141  50.6317604  21.8698233  31.5517901
  45.1057902  17.9421147  37.5500072  44.9677700  17.2101386  38.1511611
  46.0162826  17.8530047  37.2684260  47.7340203  17.6541106  37.0383752
  48.4439821  17.0134298  36.9970370  47.6909511  17.9054001  37.9609932
  55.7226981  24.5908459  39.9590331  55.6639528  23.9067680  39.2920914
  56.1246500  25.3327449  39.5070957  46.4469137  14.6406324  38.8579391
  45.9106494  14.1897062  39.5100987  45.8585845  14.7752233  38.1149855
  44.7417680  31.4070373  32.7524050  44.9814279  32.0388897  33.4303068
  43.8986877  31.0558413  33.0389409  55.7244389  22.5548043  38.1904311
  54.8371168  22.2173965  38.3130709  56.2942940  21.8231075  38.4273076
  37.3773536  18.8872135  31.5147362  38.0644576  18.5733865  30.9268377
  37.2221665  19.7913500  31.2414613  42.1808258  13.7762332  35.9432386
  42.0966447  13.1688001  35.2082796  41.3590964  14.2671350  35.9441882
  49.2545542  27.2149496  35.1565554  49.1815714  28.0204467  35.6684858
  48.8122935  27.4141462  34.3313575  49.0435322  26.4521266  28.6668375
  48.2602844  26.9942946  28.7606600  49.7428067  26.9695245  29.0662616
  52.3531972  12.2615895  31.3102581  52.8500671  11.5085858  30.9903651
  51.5818953  12.2980212  30.7445790  60.2061729  17.9656261  32.9520872
  60.1951606  18.8480976  32.5814805  59.3379109  17.6127812  32.7575409
  51.7144226  27.1136330  37.3123712  52.4272198  27.7483795  37.2399614
  51.2234254  27.2100196  36.4963714  53.4361753  21.0187582  28.8841004
  52.5018031  21.1389045  28.7145708  53.6138421  20.1160049  28.6201014
  48.9366941  14.4033278  31.0374265  48.5664728  13.8504319  31.7255171
  49.4326033  13.7991412  30.4849265  56.8234304  16.8604902  29.4191038
  57.2894756  17.6932893  29.3451341  57.2741804  16.3949883  30.1236297
  46.7656139  24.8630773  38.1329283  47.4665599  25.4967256  38.2858677
  46.2951254  25.2045505  37.3724922  54.8910535  23.2048723  26.4177190
  55.1670379  23.0905318  27.3271064  54.0215034  22.8066208  26.3789363
  54.7950967   9.2285489  33.4581940  53.8814046   9.4589716  33.6264146
  55.2244068   9.3123933  34.3095972  54.5657425  17.4175381  35.9581834
  53.9128875  17.6651288  35.3034286  54.9437805  16.6039519  35.6244311
  51.5264599  27.4535074  30.0610004  51.7086994  26.6356730  30.5237756
  52.3497585  27.6702766  29.6234894  51.8606765  26.3803259  27.3225052
  52.3894531  25.8695714  26.7095214  52.1234984  26.0645789  28.1870585
  50.6144998  18.1595192  42.4447871  49.9385635  18.0589321  43.1150246
  51.4372632  18.0034405  42.9083868  42.3623857  24.3967128  35.0660386
  42.9477294  23.6510816  35.1988290  42.1648696  24.7071085  35.9497050
  45.2162512  27.4318376  30.0822828  44.5472888  27.9164503  29.5986868
  45.0775382  27.6787596  30.9966207  36.9541512  16.9672728  33.7864829
  36.9925612  16.4336319  34.5801947  36.4481805  16.4407934  33.1675806
  49.3567781  29.4662119  36.6805487  49.9086089  29.6293741  37.4454572
  49.6973975  30.0566557  36.0085511  44.3332274  11.8137269  37.2827371
  44.3973601  12.6752100  36.8704769  44.2699395  11.2011271  36.5499730
  43.8084547  13.8860402  40.9300406  44.4356586  13.5037479  41.5437930
  42.9512466  13.6674603  41.2956098  54.2078655  24.2923377  42.5354141
  54.7518559  24.9053335  42.0409096  53.6265500  24.8502955  43.0521154
  52.4936168  27.4144095  33.6669169  52.3687308  26.6133835  33.1580114
  53.1515259  27.9090288  33.1783139  44.1144337  13.7692827  32.8446309
  43.3930922  14.3828795  32.7053782  44.9037592  14.3050592  32.7662955
  54.5571077  25.2153115  35.2948719  53.6101412  25.0958466  35.2227046
  54.9053850  24.3275613  35.3774980  46.9170650  11.1047254  39.1186961
  47.4405052  11.3509550  39.8813270  46.6982983  11.9367289  38.6990098
  51.5617510  25.0105831  31.4953071  51.4142472  24.0822538  31.6760641
  52.3871004  25.0325922  31.0110146  55.1651632  25.8334390  32.5817944
  56.0898179  25.6277251  32.4442395  54.9966935  25.5850791  33.4907285
  48.1223195  12.0460949  36.8036631  47.7820016  11.2468762  37.2057311
  47.4162201  12.3462660  36.2313464  48.7739667   9.1310261  35.2563954
  49.5965736   8.6570739  35.1342845  49.0177731   9.9100745  35.7562641
  46.2978246  15.8229382  33.0655933  46.1522826  16.1369685  33.9580214
  45.8203449  16.4414282  32.5126832  48.1574629  12.8131930  33.1136822
  48.1436197  11.9173023  32.7769120  48.8747057  12.8202594  33.7475109
  50.0100759  13.2469270  35.1589950  49.7518537  14.1686341  35.1574280
  49.4785800  12.8499705  35.8490414  54.9546948  26.3520057  27.9380035
  55.1283826  25.7866480  27.1853888  55.4475839  27.1520952  27.7559525
  40.7723908  18.3634726  36.0043594  40.2277376  19.1394534  36.1363868
  41.6503258  18.7105531  35.8462716  50.4302715   9.3801221  31.5191112
  50.4524412   9.4440554  30.5643092  50.8470774   8.5405729  31.7131619
  60.8086339  19.1156480  29.5570335  61.2517485  18.3663805  29.1589458
  59.9312850  19.1066616  29.1744067  55.9422121  25.6686822  25.0376934
  56.6373025  26.2893514  25.2564248  56.2845271  24.8182173  25.3129311
  41.5589930  17.4904623  38.8973751  40.8171666  17.6387258  39.4838381
  41.2382674  17.7512888  38.0340500  57.8413544  23.1186527  26.5664264
  58.3664868  23.4573800  25.8413584  57.7535896  22.1833542  26.3827399
  49.5033592  27.0320601  38.6954141  49.8120719  26.7869748  39.5676841
  50.3009074  27.2367239  38.2073011  49.5254204  29.1858510  30.9259518
  49.0859195  28.6934889  31.6192374  50.2762321  28.6431478  30.6851593
  42.0046543  25.3770051  30.9284146  42.8304563  25.0773823  30.5482789
  41.6540595  24.6077674  31.3773934  46.9728077  24.7296519  32.9981819
  46.3508086  24.0667225  32.6984047  47.6432944  24.7557651  32.3155467
  40.2055148  23.2956378  31.8873079  39.3687057  22.8678552  31.7057080
  40.1778794  23.4888821  32.8243870  47.0452604  13.2078308  42.5914325
  47.0940760  14.0840430  42.2092095  47.5875118  12.6655701  42.0185968
  57.5307450  23.7519431  41.8715462  56.7402993  23.7343570  41.3319962
  57.2940804  24.2907724  42.6264499  57.6505325  20.6011897  39.1848191
  57.7003330  20.4361905  40.1263714  57.5419248  19.7339156  38.7946072
  46.5341584  23.2800443  26.4740280  46.6829704  23.9635907  25.8206952
  47.3408027  23.2605533  26.9889735  54.9409087  16.5842825  40.5007498
  55.8418950  16.4449290  40.2091495  55.0157062  16.7497280  41.4405675
  49.2751893  13.9609680  39.3460684  48.4055202  14.2543246  39.0743272
  49.5111373  14.5450125  40.0667948  59.1523522  23.0208839  39.4290212
  58.8608330  23.3838819  40.2653673  58.5395653  22.3075847  39.2503544
  60.3519204  20.5861718  31.9492783  61.1866095  21.0251523  32.1130343
  60.4878333  20.1100372  31.1301028  57.4010710  18.1441453  37.8970270
  57.8764831  18.3369100  37.0889122  56.4776275  18.2000639  37.6513654
  44.2894216  19.3065620  27.4801349  44.0440258  18.4027950  27.6781559
  44.4590131  19.3082771  26.5380827  51.9790926  10.1789297  36.8626104
  52.4972870  10.9150324  36.5372593  51.6246059  10.4853290  37.6972863
  52.2303521   6.5989579  32.3827001  52.5105274   5.9312768  33.0087427
  53.0154127   6.7918675  31.8701665  50.0336989  25.7748573  23.9452027
  49.4610956  26.3938760  23.4922499  50.6069783  26.3247935  24.4791949
  56.1012379  15.0207213  36.1298576  57.0529802  15.1205311  36.1510800
  55.9315829  14.2285482  36.6396660  54.1226758  12.1062797  36.3157977
  53.5276690  12.3867809  35.6204466  53.8376455  12.5956698  37.0874718
  53.2534249  26.0585723  25.0760609  54.1864922  25.9931285  25.2793485
  53.1657462  26.8941990  24.6175142  55.8822265  25.3751594  22.0364557
  55.8035897  25.0411457  22.9300315  56.7031932  25.8673362  22.0356029
  58.5800457  18.2413333  35.2440876  58.5476777  17.3029334  35.4300559
  59.1901080  18.3197370  34.5106701  58.7294945  15.0324376  35.2899159
  58.2133994  14.2482833  35.1029088  59.6134894  14.7043093  35.4545678
  56.3905672   8.7765392  31.2494971  56.1930493   8.4680480  32.1338303
  57.0005378   9.5027031  31.3792901  64.3977007  19.3029340  34.3846912
  65.1280395  19.0414628  34.9454616  63.7883952  18.5658062  34.4248980
  62.4792304  17.4437202  34.9821364  61.7525467  17.3093167  34.3737855
  62.0639591  17.7514031  35.7878082  50.3022480  21.1627132  42.7468737
  51.2225490  21.3405731  42.9408783  50.2672063  20.2183178  42.5948436
  39.5204645  16.3565726  31.6722011  39.2007429  15.5031034  31.3796385
  38.9738073  16.5714304  32.4279979  43.2984553  19.0728167  35.3891518
  43.5170562  20.0045275  35.4079552  43.7110326  18.7136141  36.1746322
  48.1712418  14.6461373  44.7794267  48.0709145  15.5955730  44.7106358
  47.9533960  14.3179611  43.9070337  39.3892905  19.9768637  33.6415133
  38.6956377  19.5622590  33.1285087  40.1365896  20.0189174  33.0448552
  55.5258126  10.7674824  28.5070167  54.9456795  11.4259628  28.1248220
  55.2594058   9.9452169  28.0957585  53.9761692  10.1679882  30.7091487
  54.4761471  10.2796416  29.9005806  54.6197300   9.8640935  31.3492296
  48.0343688  18.0758511  43.5959328  47.5510770  18.8758872  43.8023217
  48.1204627  18.0866456  42.6426772  41.3029648  19.9086891  31.5181148
  41.2800336  20.0074578  30.5663031  41.6130284  20.7552042  31.8398314
  43.9617025  21.9663046  35.6327762  44.9160279  21.9346988  35.5657694
  43.7629549  21.5053670  36.4477988  44.5516408  20.5364162  38.1998560
  45.3709297  21.0308241  38.2233397  44.8253215  19.6196130  38.1716127
  54.3083004  12.9274914  27.5626515  53.4208859  13.2124565  27.3446710
  54.7236993  12.7668678  26.7153792  57.6597540  12.9521435  31.2780855
  58.4357930  13.4417888  31.5505471  56.9345674  13.3779490  31.7352724
  60.0970099  13.6649055  32.3354795  60.6914589  13.4244791  31.6248103
  60.1696682  12.9456185  32.9628332  42.3167254  27.5082666  32.6497960
  42.1821722  26.7483067  32.0835958  41.8999317  28.2323565  32.1826749
  53.4526217  22.6919589  21.6574535  54.1562067  22.8969592  22.2732191
  52.7288866  23.2596351  21.9223619  54.2824028  18.4429450  27.7776806
  54.2259229  18.8998002  26.9384438  54.8352370  17.6820135  27.5999648
  58.0928833  14.2319182  28.6026925  57.8365768  13.8315818  29.4335133
  57.4681702  14.9462976  28.4777064  62.4041171  16.9715256  31.1098216
  61.8440729  17.0408445  31.8829778  61.7984675  16.7956240  30.3897713
  45.4736380  28.4051983  32.8616403  45.3568764  29.3497415  32.7595093
  44.6528826  28.1025544  33.2502202  55.3612915  23.1302118  23.7072995
  56.1958519  22.6983317  23.5250470  55.1997258  22.9584132  24.6349890
  55.0158807  19.6334232  25.0729335  54.9607611  19.4678503  24.1317779
  54.3904862  20.3410265  25.2291524  39.8051322  14.8702296  38.8990757
  40.4510185  14.3601250  39.3877982  39.5968473  15.6070978  39.4734182
  52.3304714  21.9383144  44.3982897  53.1995874  22.1123796  44.0369532
  51.8511466  22.7577560  44.2758627  46.4990894  29.0580245  36.0772331
  47.4018141  29.0903855  36.3938826  46.2728264  28.1280695  36.0918667
  48.2544496  27.8111231  32.7382410  47.3040127  27.8113093  32.6246782
  48.5576982  27.0643966  32.2218444  44.1448813  12.0169913  42.9965771
  45.0080274  11.6606718  43.2069096  43.5714224  11.6783808  43.6841175
  63.9897190  33.6471769  33.8028172  64.6275600  33.5278517  33.0991512
  63.8718033  34.5952613  33.8616124  60.7986896  33.5999198  33.7389697
  60.4605408  33.4840262  32.8510232  61.6676664  33.1990363  33.7190703
  56.6573712  35.4534674  29.7286588  56.0938577  35.3624611  28.9602876
  56.5426107  34.6334578  30.2089080  61.2806679  34.7534049  39.6975902
  61.2695320  34.3586848  38.8256406  61.4427319  34.0200122  40.2909674
  54.2038144  36.9485866  32.5670808  54.9959436  36.6076690  32.1517108
  54.4434794  37.0580841  33.4872962  62.2373270  39.1205642  25.0401053
  61.5861250  39.7059722  24.6535066  63.0317633  39.6511837  25.0996090
  56.1628898  36.2094779  25.4388187  56.9359774  35.6623766  25.3001063
  56.5154296  37.0739028  25.6502648  58.0013940  37.5371161  38.6455086
  57.7103806  38.4416792  38.5301753  58.6370925  37.5787689  39.3599156
  58.9270147  34.9148010  35.2356446  59.5233719  34.6904032  34.5213409
  58.9845119  34.1732755  35.8381894  58.4995175  32.3687445  23.0706637
  58.7520696  31.8468966  22.3090100  57.5619735  32.2053590  23.1733321
  63.5438458  31.3723223  30.8781380  64.3301547  30.9542646  30.5271797
  63.8077163  32.2769315  31.0463029  63.7148536  36.8096074  25.5770037
  63.0794369  36.8830700  26.2890942  63.3845942  37.3989672  24.8989116
  68.9446885  31.3098457  31.7814359  69.6772057  30.7397673  32.0152188
  68.1886241  30.9220057  32.2220864  58.2191464  34.2715551  25.2731012
  58.1027722  33.5960454  25.9412096  58.3293724  33.7847925  24.4563165
  60.5623005  33.7325698  28.9777701  60.1981212  33.2056319  29.6890623
  61.4190121  33.3424167  28.8044187  66.4672306  25.0220031  36.2408967
  66.1355631  25.8915442  36.0170182  65.8717919  24.7056315  36.9202998
  60.2028492  28.7615598  23.9739050  60.3702894  29.6295834  24.3409521
  60.0125661  28.9242879  23.0500339  62.9603825  37.2232577  35.6404880
  62.6604548  38.1257615  35.5320687  62.6154885  36.9564760  36.4926033
  56.4116307  33.6746373  31.6741584  55.4866803  33.5422588  31.8819276
  56.6600720  34.4540593  32.1711527  66.3600969  29.7415117  33.3202317
  65.4517846  29.6730525  33.0261078  66.3088565  30.2187062  34.1484143
  60.1817713  31.2173255  24.9585716  60.0617338  31.6630306  25.7971197
  59.4870301  31.5658573  24.3999255  53.7725118  33.3179647  32.5085374
  53.9017499  33.5714126  33.4224785  53.0922569  33.9107355  32.1890029
  57.9424605  43.9876897  28.6075848  57.8648635  44.9384722  28.6864328
  57.3386249  43.6422769  29.2650774  60.4341835  31.1604762  41.2637215
  59.6575169  31.7198683  41.2540079  61.0732398  31.6461545  41.7852085
  68.2262615  27.9431555  35.0980191  67.5836996  28.2364088  34.4519986
  67.7217544  27.8284476  35.9033388  65.8802779  31.6894728  25.7866051
  66.7920635  31.9222115  25.6113748  65.3712426  32.2731773  25.2241129
  58.6888207  33.9690216  40.8255182  59.4302892  34.5075260  40.5490005
  57.9825193  34.5956505  40.9826733  64.1643547  36.1119356  39.4227343
  64.5726903  35.6701767  38.6781975  63.4420808  35.5371984  39.6761536
  60.5174617  31.0491963  36.7960900  61.3635812  31.4731377  36.9395549
  60.4573255  30.3925587  37.4899463  64.4872361  36.6720547  33.1779632
  63.8581224  36.8366261  32.4755700  64.0998024  37.0862156  33.9490596
  68.3661593  37.6074985  30.5323996  67.6812631  37.9873886  29.9821029
  68.4505443  38.2170311  31.2655944  63.6674062  28.7096331  38.4542074
  63.4234994  29.4638392  37.9176349  63.9433993  29.0881679  39.2889321
  65.6212525  35.2534944  37.1319339  65.8329420  35.8966704  36.4553720
  65.5742273  34.4197260  36.6641269  63.2238754  27.8652764  34.0355911
  62.3623233  28.1634018  34.3272649  63.2501189  28.0823163  33.1036944
  60.0400323  36.4094955  30.4429717  60.5038669  36.6882658  29.6534340
  59.7757121  35.5078400  30.2602808  56.9324404  35.9566436  33.3809480
  57.5025761  36.3853705  32.7426965  57.5232516  35.6749021  34.0793666
  58.9769209  32.5318107  27.2519282  59.6793253  32.9839151  27.7193209
  58.6449838  31.8901926  27.8799175  57.4249571  31.1229864  41.6270492
  56.7948231  31.8046145  41.8605888  57.3185659  31.0112946  40.6823630
  52.7194543  30.7901660  32.5536416  51.9293597  31.0459188  32.0776526
  53.2105791  31.6049998  32.6588456  66.7358353  38.1306899  35.3041697
  67.5575797  37.7287086  35.0224378  66.7320756  38.0275133  36.2557812
  54.6709289  31.1546239  29.5119893  53.8740452  31.2664933  30.0303388
  54.4434881  31.4932891  28.6460783  60.5014956  37.6790942  37.4602407
  60.5659389  38.1411350  38.2960579  59.7925880  37.0488307  37.5884717
  51.0032246  31.0432150  34.9851407  51.2540285  31.9279160  35.2508983
  51.5391795  30.8636752  34.2126498  74.8264346  34.4745648  31.6526668
  74.0728054  33.9053046  31.4970673  74.9611887  34.4408312  32.5997303
  60.2162974  39.3459050  27.3281387  60.0808649  40.1910586  27.7566235
  60.7572786  39.5478328  26.5647321  56.7030314  25.4250630  43.9895743
  56.3097259  24.8716828  44.6643387  57.5196454  25.7361208  44.3802260
  53.6692371  36.8634488  27.9009313  54.1816892  37.6577738  28.0514877
  54.3215084  36.1660778  27.8342914  55.4787256  39.9800244  29.9832066
  55.6553884  40.9018209  29.7953050  56.2744090  39.6658663  30.4126446
  59.6198275  26.8408509  41.5815999  60.3607988  27.4415662  41.5020462
  59.8516197  26.0986147  41.0234042  54.7639613  32.0264876  39.8594229
  54.6493128  31.1250133  40.1601328  53.9084130  32.2728573  39.5079045
  61.8431450  39.9682616  41.4581730  61.3995305  39.1818995  41.1402634
  62.5048664  40.1561767  40.7925620  56.6018572  41.4978418  35.9842408
  57.1525997  41.3695481  35.2119402  55.7630047  41.7973307  35.6337301
  63.9412688  40.2485416  39.4863131  63.9231164  41.0694297  38.9943400
  64.8632608  40.1239492  39.7113272  60.3985743  37.7629546  40.3286639
  60.9314079  37.0017834  40.0985947  59.8699824  37.4703198  41.0710794
  63.5655438  22.8689612  35.8580281  63.2219707  23.7591253  35.7819392
  63.9334400  22.6791269  34.9949866  51.6341288  35.1923142  28.6768883
  52.4716510  35.6020151  28.4602591  51.8119556  34.2522584  28.6469077
  63.5305720  32.8598223  24.3652716  63.0152344  33.6302828  24.6041103
  63.2583029  32.1863359  24.9885777  61.1152831  27.7047924  29.4237954
  60.2594428  27.3154774  29.2443593  61.5279783  27.7839884  28.5637740
  62.6451978  25.2394267  33.8229514  62.1416774  25.2024402  33.0097319
  62.9382585  26.1487010  33.8826171  58.8894864  25.3232997  32.8295696
  59.7547861  25.1275805  32.4701585  58.9572373  25.0943348  33.7565053
  68.5039994  35.6130578  26.3005890  67.7269437  35.2741737  25.8561052
  69.1831475  35.6183201  25.6260855  63.3192023  30.7325315  26.1912497
  63.0142159  31.0471464  27.0422640  64.2722466  30.8106735  26.2339830
  61.7638455  36.8915538  27.8405451  61.2359817  36.1568298  27.5278689
  61.2625958  37.6690215  27.5945420  66.7431301  35.0864559  32.9572498
  66.0854976  35.7763820  33.0452626  67.5471701  35.4760991  33.3006484
  56.4957183  27.5535205  30.2012063  57.0700935  27.3310386  29.4685256
  57.0828165  27.6223899  30.9540664  65.5536760  33.4408931  31.0076439
  66.0668642  34.0738923  31.5098149  66.2037984  32.8410127  30.6419799
  56.8226770  29.5839666  24.2207948  55.9864082  29.9214352  24.5417223
  56.6831540  29.4488645  23.2835085  58.7979851  24.4276453  28.9287132
  58.1444263  24.1125471  28.3043747  58.7560325  23.8052194  29.6546955
  59.9091055  34.7095749  20.8440424  59.0018117  34.4785002  21.0431573
  60.4062087  33.9133368  21.0314406  62.8159134  43.4193256  23.7637110
  62.1420833  43.7224953  24.3722068  63.2024956  44.2222336  23.4142567
  62.0317591  30.9158387  33.2534780  61.1140152  31.1373334  33.0956468
  62.4477735  30.9904698  32.3946487  62.8152639  32.3149803  28.3837460
  63.5624458  32.8271200  28.0744582  63.0844228  31.9933855  29.2441854
  61.0879289  34.8108343  25.3664414  60.1790508  34.5267376  25.4636884
  61.1174373  35.2307422  24.5067721  66.3198556  38.4214933  29.1355582
  65.8660883  37.5805843  29.1920772  65.6892523  39.0576331  29.4730362
  65.2631476  29.3506919  30.3656249  64.5254233  28.8384305  30.6966492
  65.5158249  28.9107301  29.5539526  64.7631496  40.2591430  30.0705400
  65.0554470  40.8196487  29.3517766  65.2730116  40.5519991  30.8258559
  65.3643103  22.1283171  30.9598019  65.6701980  21.2680534  30.6723934
  66.0895708  22.7200791  30.7597013  51.6567459  32.5313858  29.3479617
  51.4591859  31.9383218  28.6230683  51.1014123  32.2266068  30.0655555
  59.6364183  32.4236964  31.4674210  59.6912793  31.4710800  31.3916686
  58.8255385  32.5796403  31.9515508  60.7855377  36.3517087  22.7052493
  60.3474807  35.6352946  22.2458130  61.5265818  36.5793202  22.1437584
  57.5756543  31.0414024  29.2264589  56.7624408  31.3408194  29.6329781
  58.0715537  30.6469713  29.9439071  59.7265121  41.0371781  31.1598853
  59.6841300  41.2632627  30.2307385  60.6427820  40.8035155  31.3084654
  63.1730755  31.5055848  38.0579482  63.5280142  31.7327321  38.9173948
  63.8202886  31.8374225  37.4356738  68.9028491  34.6274284  28.7628811
  68.7646390  34.8175880  27.8350001  68.5464710  35.3893667  29.2196863
  57.0670618  28.6132379  34.8425823  57.7069997  28.4721138  34.1448787
  56.2348148  28.3266893  34.4664425  68.9297871  36.6950811  33.7740083
  69.3634378  36.6026100  34.6223137  69.6429452  36.6708312  33.1360099
  57.8430922  37.9134810  30.9560816  58.6371520  37.4185130  30.7543391
  57.1322614  37.3852673  30.5928522  62.6625766  40.2952905  35.3073184
  62.7162788  40.8643842  36.0750899  61.7940547  40.4654790  34.9427221
  54.1513685  32.0577891  27.0320569  53.2211273  31.9962347  27.2490531
  54.2471157  31.5353844  26.2357210  54.0699234  28.5832704  29.6198810
  54.3306051  29.4978038  29.5107971  54.8916406  28.1157147  29.7695423
  55.5424159  29.9970461  36.7897635  56.2147213  29.7887824  36.1410284
  54.7153946  29.7992547  36.3502867  69.7913421  36.7374512  36.3072968
  69.9849311  37.6420322  36.5532243  69.6914039  36.2781931  37.1411553
  61.4449731  26.6232402  38.8063296  60.7977646  27.3222352  38.7127772
  62.2150747  27.0568546  39.1739544  64.8528529  36.8881255  41.8813849
  64.7014036  36.6591806  40.9643933  64.8433209  37.8451856  41.8945194
  61.6213866  34.4613167  36.8660115  62.5505926  34.6124327  36.6929083
  61.2004896  34.5497188  36.0108762  60.4202198  38.4863832  34.6358653
  60.2813283  38.1182616  35.5084591  59.6316794  39.0011471  34.4642611
  61.0150350  43.5872928  25.9784190  61.1902105  43.1160971  26.7929812
  60.3283138  44.2138694  26.2065450  61.9707413  37.8645434  32.0247491
  61.6357245  37.8246204  32.9205141  61.4711358  37.1990150  31.5517901
  55.9451657  33.2713064  37.5500072  55.8071455  32.5393303  38.1511611
  56.8556580  33.1821965  37.2684260  64.9066604  35.2101469  22.2984550
  64.2895775  34.4848297  22.2017603  64.4383093  35.9710829  21.9551625
  58.5733957  32.9833024  37.0383752  59.2833576  32.3426216  36.9970370
  58.5303265  33.2345919  37.9609932  66.5620736  39.9200377  39.9590331
  66.5033282  39.2359597  39.2920914  66.9640254  40.6619367  39.5070957
  57.2862891  29.9698242  38.8579391  56.7500248  29.5188980  39.5100987
  56.6979600  30.1044150  38.1149855  55.5811435  46.7362291  32.7524050
  55.8208033  47.3680815  33.4303068  54.7380631  46.3850331  33.0389409
  56.6965150  29.4286893  21.4205855  55.8194617  29.3075694  21.0568101
  57.1722903  28.6372971  21.1684743  66.5638143  37.8839961  38.1904311
  65.6764922  37.5465883  38.3130709  67.1336694  37.1522992  38.4273076
  48.2167290  34.2164053  31.5147362  48.9038330  33.9025783  30.9268377
  48.0615419  35.1205417  31.2414613  53.0202013  29.1054249  35.9432386
  52.9360201  28.4979919  35.2082796  52.1984719  29.5963268  35.9441882
  60.0939297  42.5441413  35.1565554  60.0209468  43.3496385  35.6684858
  59.6516690  42.7433379  34.3313575  59.8829076  41.7813183  28.6668375
  59.0996598  42.3234864  28.7606600  60.5821821  42.2987163  29.0662616
  63.1925726  27.5907813  31.3102581  63.6894426  26.8377775  30.9903651
  62.4212708  27.6272130  30.7445790  71.0455484  33.2948178  32.9520872
  71.0345360  34.1772894  32.5814805  70.1772863  32.9419729  32.7575409
  62.5537980  42.4428247  37.3123712  63.2665952  43.0775712  37.2399614
  62.0628009  42.5392113  36.4963714  64.2755507  36.3479500  28.8841004
  63.3411786  36.4680963  28.7145708  64.4532176  35.4451967  28.6201014
  59.7760695  29.7325196  31.0374265  59.4058483  29.1796236  31.7255171
  60.2719788  29.1283329  30.4849265  67.6628058  32.1896819  29.4191038
  68.1288511  33.0224811  29.3451341  68.1135559  31.7241801  30.1236297
  57.6049894  40.1922691  38.1329283  58.3059353  40.8259174  38.2858677
  57.1345009  40.5337422  37.3724922  65.7304290  38.5340641  26.4177190
  66.0064133  38.4197235  27.3271064  64.8608788  38.1358126  26.3789363
  65.6344721  24.5577406  33.4581940  64.7207801  24.7881633  33.6264146
  66.0637823  24.6415850  34.3095972  65.4051180  32.7467298  35.9581834
  64.7522630  32.9943206  35.3034286  65.7831560  31.9331437  35.6244311
  62.3658354  42.7826992  30.0610004  62.5480748  41.9648647  30.5237756
  63.1891340  42.9994684  29.6234894  62.7000519  41.7095177  27.3225052
  63.2288285  41.1987631  26.7095214  62.9628739  41.3937707  28.1870585
  61.4538753  33.4887109  42.4447871  60.7779390  33.3881239  43.1150246
  62.2766387  33.3326323  42.9083868  53.2017612  39.7259046  35.0660386
  53.7871049  38.9802734  35.1988290  53.0042450  40.0363003  35.9497050
  56.0556267  42.7610293  30.0822828  55.3866642  43.2456421  29.5986868
  55.9169137  43.0079514  30.9966207  47.7935267  32.2964646  33.7864829
  47.8319366  31.7628237  34.5801947  47.2875559  31.7699852  33.1675806
  60.1961536  44.7954037  36.6805487  60.7479844  44.9585658  37.4454572
  60.5367729  45.3858475  36.0085511  55.1726029  27.1429187  37.2827371
  55.2367355  28.0044018  36.8704769  55.1093149  26.5303188  36.5499730
  54.6478301  29.2152319  40.9300406  55.2750340  28.8329397  41.5437930
  53.7906220  28.9966521  41.2956098  65.0472410  39.6215294  42.5354141
  65.5912314  40.2345253  42.0409096  64.4659255  40.1794873  43.0521154
  51.4243844  31.0228748  26.8618760  51.7197285  30.1139427  26.8085814
  50.5231880  31.0016488  26.5399763  63.3329923  42.7436012  33.6669169
  63.2081062  41.9425752  33.1580114  63.9909014  43.2382206  33.1783139
  54.9538091  29.0984745  32.8446309  54.2324677  29.7120713  32.7053782
  55.7431347  29.6342510  32.7662955  65.3964831  40.5445032  35.2948719
  64.4495167  40.4250384  35.2227046  65.7447604  39.6567531  35.3774980
  57.7564405  26.4339171  39.1186961  58.2798806  26.6801468  39.8813270
  57.5376738  27.2659206  38.6990098  53.1531686  28.7042846  26.9858086
  52.8244392  27.8240225  26.8033191  53.5071056  28.6490515  27.8734475
  62.4011265  40.3397749  31.4953071  62.2536227  39.4114456  31.6760641
  63.2264758  40.3617839  31.0110146  56.2673509  28.9915816  27.3533563
  56.6069581  29.5201737  26.6312172  56.7145629  29.3296222  28.1292130
  66.0045386  41.1626307  32.5817944  66.9291934  40.9569169  32.4442395
  65.8360690  40.9142709  33.4907285  58.9616950  27.3752866  36.8036631
  58.6213770  26.5760680  37.2057311  58.2555956  27.6754577  36.2313464
  59.6133421  24.4602179  35.2563954  60.4359491  23.9862657  35.1342845
  59.8571485  25.2392663  35.7562641  58.2541656  27.4890437  25.5526856
  58.9750018  27.8671690  25.0490573  57.6306960  28.2079314  25.6561834
  62.3972779  28.1935586  26.4885188  62.6136393  29.0760224  26.1874017
  61.9166846  27.8021800  25.7590830  57.1372000  31.1521300  33.0655933
  56.9916581  31.4661603  33.9580214  56.6597204  31.7706200  32.5126832
  58.9968383  28.1423848  33.1136822  58.9829952  27.2464941  32.7769120
  59.7140811  28.1494511  33.7475109  60.8494514  28.5761188  35.1589950
  60.5912292  29.4978258  35.1574280  60.3179554  28.1791622  35.8490414
  65.7940703  41.6811975  27.9380035  65.9677580  41.1158397  27.1853888
  66.2869594  42.4812870  27.7559525  51.6117662  33.6926644  36.0043594
  51.0671130  34.4686452  36.1363868  52.4897012  34.0397448  35.8462716
  58.4005279  27.0238228  28.3824393  58.5221190  26.0954874  28.5815280
  58.1107321  27.0376914  27.4702708  61.2696469  24.7093138  31.5191112
  61.2918166  24.7732471  30.5643092  61.6864528  23.8697647  31.7131619
  71.6480094  34.4448398  29.5570335  72.0911240  33.6955723  29.1589458
  70.7706604  34.4358534  29.1744067  66.7815875  40.9978739  25.0376934
  67.4766780  41.6185432  25.2564248  67.1239025  40.1474090  25.3129311
  52.3983684  32.8196540  38.8973751  51.6565420  32.9679176  39.4838381
  52.0776429  33.0804806  38.0340500  68.6807298  38.4478445  26.5664264
  69.2058622  38.7865718  25.8413584  68.5929651  37.5125460  26.3827399
  60.3427347  42.3612518  38.6954141  60.6514473  42.1161665  39.5676841
  61.1402829  42.5659157  38.2073011  60.3647959  44.5150428  30.9259518
  59.9252949  44.0226807  31.6192374  61.1156076  43.9723396  30.6851593
  52.8440298  40.7061969  30.9284146  53.6698318  40.4065741  30.5482789
  52.4934350  39.9369591  31.3773934  57.8121831  40.0588437  32.9981819
  57.1901840  39.3959142  32.6984047  58.4826698  40.0849569  32.3155467
  51.0448903  38.6248295  31.8873079  50.2080811  38.1970470  31.7057080
  51.0172548  38.8180739  32.8243870  57.8846359  28.5370225  42.5914325
  57.9334514  29.4132348  42.2092095  58.4268873  27.9947618  42.0185968
  68.4899079  35.9303815  39.1848191  68.5397084  35.7653822  40.1263714
  68.3813003  35.0631074  38.7946072  57.3735338  38.6092361  26.4740280
  57.5223458  39.2927825  25.8206952  58.1801781  38.5897451  26.9889735
  65.7802842  31.9134743  40.5007498  66.6812704  31.7741208  40.2091495
  65.8550816  32.0789198  41.4405675  60.1145647  29.2901598  39.3460684
  59.2448956  29.5835164  39.0743272  60.3505127  29.8742043  40.0667948
  71.1912958  35.9153636  31.9492783  72.0259850  36.3543440  32.1130343
  71.3272087  35.4392289  31.1301028  68.2404464  33.4733371  37.8970270
  68.7158586  33.6661017  37.0889122  67.3170030  33.5292557  37.6513654
  55.1287971  34.6357538  27.4801349  54.8834013  33.7319868  27.6781559
  55.2983886  34.6374689  26.5380827  62.8184681  25.5081215  36.8626104
  63.3366625  26.2442241  36.5372593  62.4639814  25.8145208  37.6972863
  54.3983619  30.3685896  24.9787510  53.7052863  30.4430251  24.3227546
  54.1535370  29.6046239  25.5009027  63.0697275  21.9281497  32.3827001
  63.3499029  21.2604686  33.0087427  63.8547882  22.1210593  31.8701665
  60.8730744  41.1040491  23.9452027  60.3004711  41.7230678  23.4922499
  61.4463537  41.6539853  24.4791949  66.9406133  30.3499131  36.1298576
  67.8923556  30.4497229  36.1510800  66.7709584  29.5577400  36.6396660
  64.9620513  27.4354714  36.3157977  64.3670445  27.7159727  35.6204466
  64.6770210  27.9248615  37.0874718  64.0928003  41.3877641  25.0760609
  65.0258676  41.3223203  25.2793485  64.0051216  42.2233908  24.6175142
  66.7216020  40.7043511  22.0364557  66.6429652  40.3703375  22.9300315
  67.5425687  41.1965279  22.0356029  69.4194211  33.5705251  35.2440876
  69.3870531  32.6321251  35.4300559  70.0294835  33.6489287  34.5106701
  61.2577542  32.4401304  21.2868080  62.2036647  32.3107512  21.3556498
  60.8791787  31.7015966  21.7637508  69.5688700  30.3616294  35.2899159
  69.0527748  29.5774751  35.1029088  70.4528648  30.0335011  35.4545678
  67.2299427  24.1057310  31.2494971  67.0324248  23.7972398  32.1338303
  67.8399132  24.8318949  31.3792901  75.2370761  34.6321258  34.3846912
  75.9674149  34.3706546  34.9454616  74.6277706  33.8949980  34.4248980
  73.3186058  32.7729120  34.9821364  72.5919222  32.6385085  34.3737855
  72.9033345  33.0805949  35.7878082  61.1416235  36.4919050  42.7468737
  62.0619244  36.6697649  42.9408783  61.1065818  35.5475095  42.5948436
  59.4420459  30.3651280  21.2222965  58.5351915  30.0684393  21.2985679
  59.7196440  30.0681098  20.3557251  50.3598400  31.6857644  31.6722011
  50.0401184  30.8322952  31.3796385  49.8131828  31.9006222  32.4279979
  54.1378307  34.4020085  35.3891518  54.3564317  35.3337192  35.4079552
  54.5504081  34.0428059  36.1746322  61.0582525  24.9088170  27.3767206
  60.2483253  24.5635255  27.7522452  61.7466942  24.5995714  27.9654818
  62.9873073  23.9866217  28.9991503  63.5404112  24.4061670  29.6581526
  63.2243160  23.0601965  29.0414459  59.0106172  29.9753290  44.7794267
  58.9102899  30.9247647  44.7106358  58.7927714  29.6471529  43.9070337
  58.2119244  27.2238215  21.3634944  59.0738408  27.5493114  21.6230761
  58.3969588  26.4369711  20.8508010  50.2286660  35.3060555  33.6415133
  49.5350131  34.8914508  33.1285087  50.9759651  35.3481092  33.0448552
  66.3651880  26.0966742  28.5070167  65.7850549  26.7551546  28.1248220
  66.0987813  25.2744086  28.0957585  64.8155447  25.4971799  30.7091487
  65.3155225  25.6088334  29.9005806  65.4591055  25.1932852  31.3492296
  58.8737442  33.4050429  43.5959328  58.3904524  34.2050789  43.8023217
  58.9598382  33.4158374  42.6426772  52.1423402  35.2378809  31.5181148
  52.1194090  35.3366496  30.5663031  52.4524039  36.0843960  31.8398314
  54.8010780  37.2954964  35.6327762  55.7554034  37.2638906  35.5657694
  54.6023304  36.8345588  36.4477988  55.3910162  35.8656080  38.1998560
  56.2103051  36.3600159  38.2233397  55.6646970  34.9488048  38.1716127
  65.1476758  28.2566832  27.5626515  64.2602613  28.5416483  27.3446710
  65.5630747  28.0960596  26.7153792  68.4991294  28.2813353  31.2780855
  69.2751685  28.7709806  31.5505471  67.7739429  28.7071407  31.7352724
  70.9363853  28.9940972  32.3354795  71.5308344  28.7536708  31.6248103
  71.0090437  28.2748103  32.9628332  53.1561009  42.8374583  32.6497960
  53.0215477  42.0774984  32.0835958  52.7393071  43.5615483  32.1826749
  64.2919972  38.0211507  21.6574535  64.9955822  38.2261509  22.2732191
  63.5682621  38.5888269  21.9223619  65.1217782  33.7721368  27.7776806
  65.0652983  34.2289920  26.9384438  65.6746125  33.0112053  27.5999648
  68.9322588  29.5611100  28.6026925  68.6759522  29.1607736  29.4335133
  68.3075456  30.2754894  28.4777064  73.2434926  32.3007173  31.1098216
  72.6834484  32.3700363  31.8829778  72.6378429  32.1248158  30.3897713
  56.3130135  43.7343900  32.8616403  56.1962519  44.6789333  32.7595093
  55.4922581  43.4317462  33.2502202  66.2006669  38.4594036  23.7072995
  67.0352273  38.0275235  23.5250470  66.0391012  38.2876050  24.6349890
  65.8552561  34.9626149  25.0729335  65.8001365  34.7970421  24.1317779
  65.2298617  35.6702182  25.2291524  50.6445076  30.1994214  38.8990757
  51.2903940  29.6893168  39.3877982  50.4362227  30.9362895  39.4734182
  63.1698469  37.2675061  44.3982897  64.0389628  37.4415713  44.0369532
  62.6905220  38.0869478  44.2758627  59.1648687  24.4634258  24.6514653
  59.1527357  25.4076098  24.8082924  60.0572109  24.2804404  24.3574114
  57.3384649  44.3872162  36.0772331  58.2411895  44.4195772  36.3938826
  57.1122019  43.4572613  36.0918667  59.0938251  43.1403149  32.7382410
  58.1433882  43.1405010  32.6246782  59.3970737  42.3935883  32.2218444
  62.9800806  21.0577035  28.9060590  62.2133202  20.5035522  29.0517272
  63.3911511  21.1298904  29.7674742  54.9842567  27.3461831  42.9965771
  55.8474029  26.9898636  43.2069096  54.4107978  27.0075726  43.6841175
  74.8290944  48.9763687  33.8028172  75.4669354  48.8570435  33.0991512
  74.7111787  49.9244531  33.8616124  71.6380651  48.9291115  33.7389697
  71.2999162  48.8132180  32.8510232  72.5070419  48.5282280  33.7190703
  67.4967466  50.7826592  29.7286588  66.9332331  50.6916529  28.9602876
  67.3819861  49.9626496  30.2089080  72.1200434  50.0825967  39.6975902
  72.1089074  49.6878765  38.8256406  72.2821073  49.3492040  40.2909674
  65.0431898  52.2777783  32.5670808  65.8353190  51.9368608  32.1517108
  65.2828548  52.3872758  33.4872962  73.0767025  54.4497559  25.0401053
  72.4255005  55.0351640  24.6535066  73.8711388  54.9803754  25.0996090
  67.0022652  51.5386697  25.4388187  67.7753528  50.9915684  25.3001063
  67.3548051  52.4030946  25.6502648  69.7663902  50.2439927  35.2356446
  70.3627474  50.0195950  34.5213409  69.8238873  49.5024673  35.8381894
  69.3388930  47.6979363  23.0706637  69.5914451  47.1760884  22.3090100
  68.4013489  47.5345508  23.1733321  74.3832213  46.7015141  30.8781380
  75.1695302  46.2834564  30.5271797  74.6470917  47.6061233  31.0463029
  74.5542290  52.1387991  25.5770037  73.9188123  52.2122618  26.2890942
  74.2239697  52.7281590  24.8989116  79.7840640  46.6390374  31.7814359
  80.5165812  46.0689591  32.0152188  79.0279996  46.2511975  32.2220864
  69.0585219  49.6007469  25.2731012  68.9421477  48.9252372  25.9412096
  69.1687479  49.1139843  24.4563165  71.4016760  49.0617616  28.9777701
  71.0374967  48.5348237  29.6890623  72.2583876  48.6716085  28.8044187
  77.3066060  40.3511948  36.2408967  76.9749385  41.2207359  36.0170182
  76.7111674  40.0348232  36.9202998  71.0422247  44.0907515  23.9739050
  71.2096649  44.9587752  24.3409521  70.8519416  44.2534797  23.0500339
  73.7997580  52.5524494  35.6404880  73.4998303  53.4549533  35.5320687
  73.4548639  52.2856678  36.4926033  67.2510061  49.0038291  31.6741584
  66.3260558  48.8714505  31.8819276  67.4994474  49.7832510  32.1711527
  77.1994724  45.0707034  33.3202317  76.2911601  45.0022443  33.0261078
  77.1482319  45.5478979  34.1484143  71.0211467  46.5465173  24.9585716
  70.9011093  46.9922224  25.7971197  70.3264056  46.8950491  24.3999255
  64.6118872  48.6471565  32.5085374  64.7411253  48.9006044  33.4224785
  63.9316324  49.2399273  32.1890029  68.7818360  59.3168815  28.6075848
  68.7042389  60.2676640  28.6864328  68.1780003  58.9714687  29.2650774
  79.0656370  43.2723473  35.0980191  78.4230750  43.5656006  34.4519986
  78.5611298  43.1576393  35.9033388  76.7196534  47.0186646  25.7866051
  77.6314390  47.2514033  25.6113748  76.2106181  47.6023690  25.2241129
  75.0037301  51.4411274  39.4227343  75.4120657  50.9993684  38.6781975
  74.2814563  50.8663901  39.6761536  71.3568371  46.3783881  36.7960900
  72.2029567  46.8023294  36.9395549  71.2967009  45.7217505  37.4899463
  75.3266116  52.0012465  33.1779632  74.6974978  52.1658179  32.4755700
  74.9391778  52.4154074  33.9490596  79.2055348  52.9366902  30.5323996
  78.5206386  53.3165804  29.9821029  79.2899197  53.5462229  31.2655944
  74.5067817  44.0388249  38.4542074  74.2628749  44.7930310  37.9176349
  74.7827747  44.4173597  39.2889321  76.4606279  50.5826861  37.1319339
  76.6723175  51.2258621  36.4553720  76.4136028  49.7489178  36.6641269
  74.0632508  43.1944682  34.0355911  73.2016987  43.4925936  34.3272649
  74.0894943  43.4115081  33.1036944  70.8794078  51.7386873  30.4429717
  71.3432423  52.0174576  29.6534340  70.6150876  50.8370317  30.2602808
  67.7718159  51.2858354  33.3809480  68.3419516  51.7145623  32.7426965
  68.3626271  51.0040939  34.0793666  69.8162964  47.8610025  27.2519282
  70.5187007  48.3131069  27.7193209  69.4843592  47.2193844  27.8799175
  63.5588298  46.1193578  32.5536416  62.7687352  46.3751106  32.0776526
  64.0499545  46.9341915  32.6588456  77.5752107  53.4598817  35.3041697
  78.3969551  53.0579004  35.0224378  77.5714510  53.3567051  36.2557812
  65.5103043  46.4838157  29.5119893  64.7134206  46.5956851  30.0303388
  65.2828635  46.8224809  28.6460783  71.3408711  53.0082860  37.4602407
  71.4053143  53.4703267  38.2960579  70.6319635  52.3780225  37.5884717
  61.8426001  46.3724068  34.9851407  62.0934039  47.2571078  35.2508983
  62.3785549  46.1928670  34.2126498  85.6658100  49.8037565  31.6526668
  84.9121809  49.2344963  31.4970673  85.8005642  49.7700230  32.5997303
  71.0556728  54.6750968  27.3281387  70.9202403  55.5202503  27.7566235
  71.5966541  54.8770245  26.5647321  64.5086126  52.1926406  27.9009313
  65.0210646  52.9869656  28.0514877  65.1608839  51.4952696  27.8342914
  66.3181011  55.3092162  29.9832066  66.4947639  56.2310127  29.7953050
  67.1137844  54.9950581  30.4126446  67.4412326  56.8270336  35.9842408
  67.9919751  56.6987399  35.2119402  66.6023802  57.1265225  35.6337301
  74.7806443  55.5777334  39.4863131  74.7624918  56.3986215  38.9943400
  75.7026363  55.4531409  39.7113272  74.4049192  38.1981529  35.8580281
  74.0613461  39.0883171  35.7819392  74.7728155  38.0083187  34.9949866
  62.4735043  50.5215060  28.6768883  63.3110265  50.9312068  28.4602591
  62.6513310  49.5814502  28.6469077  74.3699475  48.1890141  24.3652716
  73.8546098  48.9594745  24.6041103  74.0976783  47.5155277  24.9885777
  71.9546586  43.0339841  29.4237954  71.0988182  42.6446692  29.2443593
  72.3673538  43.1131802  28.5637740  73.4845732  40.5686185  33.8229514
  72.9810528  40.5316320  33.0097319  73.7776339  41.4778927  33.8826171
  69.7288618  40.6524914  32.8295696  70.5941615  40.4567723  32.4701585
  69.7966127  40.4235266  33.7565053  79.3433749  50.9422495  26.3005890
  78.5663192  50.6033655  25.8561052  80.0225230  50.9475118  25.6260855
  74.1585778  46.0617233  26.1912497  73.8535914  46.3763382  27.0422640
  75.1116220  46.1398653  26.2339830  72.6032210  52.2207456  27.8405451
  72.0753571  51.4860216  27.5278689  72.1019713  52.9982132  27.5945420
  77.5825056  50.4156476  32.9572498  76.9248730  51.1055738  33.0452626
  78.3865455  50.8052908  33.3006484  67.3350937  42.8827122  30.2012063
  67.9094689  42.6602304  29.4685256  67.9221920  42.9515817  30.9540664
  76.3930515  48.7700849  31.0076439  76.9062396  49.4030841  31.5098149
  77.0431738  48.1702045  30.6419799  67.6620525  44.9131583  24.2207948
  66.8257837  45.2506270  24.5417223  67.5225294  44.7780563  23.2835085
  69.6373605  39.7568371  28.9287132  68.9838017  39.4417388  28.3043747
  69.5954079  39.1344112  29.6546955  70.7484810  50.0387666  20.8440424
  69.8411872  49.8076920  21.0431573  71.2455842  49.2425286  21.0314406
  73.6552889  58.7485173  23.7637110  72.9814588  59.0516870  24.3722068
  74.0418711  59.5514254  23.4142567  72.8711345  46.2450305  33.2534780
  71.9533907  46.4665252  33.0956468  73.2871489  46.3196615  32.3946487
  73.6546393  47.6441720  28.3837460  74.4018212  48.1563118  28.0744582
  73.9237983  47.3225773  29.2441854  71.9273043  50.1400261  25.3664414
  71.0184263  49.8559294  25.4636884  71.9568127  50.5599340  24.5067721
  77.1592311  53.7506851  29.1355582  76.7054638  52.9097761  29.1920772
  76.5286278  54.3868249  29.4730362  76.1025230  44.6798837  30.3656249
  75.3647987  44.1676223  30.6966492  76.3552004  44.2399218  29.5539526
  75.6025250  55.5883347  30.0705400  75.8948224  56.1488404  29.3517766
  76.1123871  55.8811908  30.8258559  76.2036858  37.4575089  30.9598019
  76.5095735  36.5972452  30.6723934  76.9289463  38.0492709  30.7597013
  62.4961214  47.8605775  29.3479617  62.2985614  47.2675136  28.6230683
  61.9407878  47.5557985  30.0655555  70.4757937  47.7528882  31.4674210
  70.5306547  46.8002718  31.3916686  69.6649139  47.9088321  31.9515508
  71.6249131  51.6809005  22.7052493  71.1868561  50.9644864  22.2458130
  72.3659572  51.9085120  22.1437584  68.4150297  46.3705941  29.2264589
  67.6018163  46.6700112  29.6329781  68.9109292  45.9761630  29.9439071
  70.5658875  56.3663698  31.1598853  70.5235054  56.5924545  30.2307385
  71.4821574  56.1327073  31.3084654  74.0124509  46.8347766  38.0579482
  74.3673897  47.0619239  38.9173948  74.6596640  47.1666143  37.4356738
  79.7422246  49.9566202  28.7628811  79.6040145  50.1467798  27.8350001
  79.3858465  50.7185585  29.2196863  67.9064372  43.9424297  34.8425823
  68.5463751  43.8013056  34.1448787  67.0741903  43.6558810  34.4664425
  79.7691626  52.0242729  33.7740083  80.2028132  51.9318018  34.6223137
  80.4823206  52.0000229  33.1360099  68.6824676  53.2426727  30.9560816
  69.4765275  52.7477048  30.7543391  67.9716368  52.7144591  30.5928522
  73.5019520  55.6244823  35.3073184  73.5556543  56.1935759  36.0750899
  72.6334302  55.7946708  34.9427221  64.9907439  47.3869809  27.0320569
  64.0605028  47.3254265  27.2490531  65.0864911  46.8645762  26.2357210
  64.9092989  43.9124622  29.6198810  65.1699806  44.8269955  29.5107971
  65.7310161  43.4449065  29.7695423  66.3817914  45.3262379  36.7897635
  67.0540967  45.1179741  36.1410284  65.5547700  45.1284465  36.3502867
  80.6307175  52.0666429  36.3072968  80.8243065  52.9712240  36.5532243
  80.5307793  51.6073849  37.1411553  75.6922284  52.2173172  41.8813849
  75.5407790  51.9883724  40.9643933  75.6826963  53.1743774  41.8945194
  72.4607620  49.7905085  36.8660115  73.3899680  49.9416245  36.6929083
  72.0398650  49.8789106  36.0108762  71.2595952  53.8155749  34.6358653
  71.1207038  53.4474534  35.5084591  70.4710548  54.3303389  34.4642611
  71.8544104  58.9164846  25.9784190  72.0295860  58.4452889  26.7929812
  71.1676892  59.5430612  26.2065450  72.8101167  53.1937352  32.0247491
  72.4751000  53.1538122  32.9205141  72.3105113  52.5282068  31.5517901
  66.7845411  48.6004982  37.5500072  66.6465209  47.8685221  38.1511611
  67.6950335  48.5113882  37.2684260  75.7460359  50.5393386  22.2984550
  75.1289529  49.8140215  22.2017603  75.2776847  51.3002747  21.9551625
  69.4127712  48.3124941  37.0383752  70.1227330  47.6718134  36.9970370
  69.3697020  48.5637836  37.9609932  77.4014490  55.2492295  39.9590331
  77.3427037  54.5651515  39.2920914  77.8034009  55.9911285  39.5070957
  68.1256646  45.2990159  38.8579391  67.5894003  44.8480898  39.5100987
  67.5373354  45.4336068  38.1149855  66.4205189  62.0654209  32.7524050
  66.6601788  62.6972733  33.4303068  65.5774386  61.7142249  33.0389409
  67.5358905  44.7578811  21.4205855  66.6588371  44.6367612  21.0568101
  68.0116658  43.9664889  21.1684743  77.4031898  53.2131879  38.1904311
  76.5158677  52.8757801  38.3130709  77.9730449  52.4814910  38.4273076
  59.0561045  49.5455970  31.5147362  59.7432085  49.2317701  30.9268377
  58.9009174  50.4497335  31.2414613  63.8595767  44.4346167  35.9432386
  63.7753956  43.8271837  35.2082796  63.0378473  44.9255185  35.9441882
  70.9333051  57.8733331  35.1565554  70.8603223  58.6788303  35.6684858
  70.4910444  58.0725297  34.3313575  70.7222831  57.1105101  28.6668375
  69.9390353  57.6526781  28.7606600  71.4215576  57.6279081  29.0662616
  74.0319481  42.9199731  31.3102581  74.5288180  42.1669693  30.9903651
  73.2606462  42.9564047  30.7445790  81.8849238  48.6240096  32.9520872
  81.8739115  49.5064812  32.5814805  81.0166618  48.2711647  32.7575409
  73.3931735  57.7720165  37.3123712  74.1059707  58.4067630  37.2399614
  72.9021763  57.8684031  36.4963714  75.1149262  51.6771418  28.8841004
  74.1805540  51.7972880  28.7145708  75.2925930  50.7743885  28.6201014
  70.6154450  45.0617114  31.0374265  70.2452237  44.5088154  31.7255171
  71.1113542  44.4575247  30.4849265  78.5021813  47.5188737  29.4191038
  78.9682265  48.3516729  29.3451341  78.9529313  47.0533719  30.1236297
  76.5698044  53.8632558  26.4177190  76.8457888  53.7489153  27.3271064
  75.7002543  53.4650043  26.3789363  76.4738476  39.8869324  33.4581940
  75.5601555  40.1173551  33.6264146  76.9031577  39.9707768  34.3095972
  76.2444934  48.0759216  35.9581834  75.5916384  48.3235123  35.3034286
  76.6225314  47.2623354  35.6244311  73.2052108  58.1118909  30.0610004
  73.3874503  57.2940565  30.5237756  74.0285094  58.3286601  29.6234894
  73.5394274  57.0387094  27.3225052  74.0682040  56.5279549  26.7095214
  73.8022493  56.7229625  28.1870585  64.0411366  55.0550964  35.0660386
  64.6264803  54.3094652  35.1988290  63.8436205  55.3654920  35.9497050
  66.8950021  58.0902211  30.0822828  66.2260397  58.5748339  29.5986868
  66.7562891  58.3371431  30.9966207  58.6329021  47.6256564  33.7864829
  58.6713121  47.0920155  34.5801947  58.1269314  47.0991769  33.1675806
  71.0355290  60.1245955  36.6805487  71.5873598  60.2877576  37.4454572
  71.3761484  60.7150392  36.0085511  66.0119783  42.4721104  37.2827371
  66.0761110  43.3335935  36.8704769  65.9486904  41.8595106  36.5499730
  62.2637599  46.3520666  26.8618760  62.5591040  45.4431344  26.8085814
  61.3625634  46.3308405  26.5399763  74.1723677  58.0727930  33.6669169
  74.0474817  57.2717670  33.1580114  74.8302768  58.5674123  33.1783139
  65.7931846  44.4276663  32.8446309  65.0718431  45.0412630  32.7053782
  66.5825101  44.9634427  32.7662955  76.2358586  55.8736950  35.2948719
  75.2888921  55.7542301  35.2227046  76.5841359  54.9859448  35.3774980
  63.9925440  44.0334764  26.9858086  63.6638146  43.1532143  26.8033191
  64.3464811  43.9782432  27.8734475  73.2405019  55.6689666  31.4953071
  73.0929981  54.7406374  31.6760641  74.0658513  55.6909757  31.0110146
  67.1067263  44.3207733  27.3533563  67.4463336  44.8493655  26.6312172
  67.5539384  44.6588140  28.1292130  76.8439141  56.4918225  32.5817944
  77.7685688  56.2861086  32.4442395  76.6754444  56.2434626  33.4907285
  69.8010704  42.7044784  36.8036631  69.4607524  41.9052597  37.2057311
  69.0949710  43.0046495  36.2313464  70.4527176  39.7894097  35.2563954
  71.2753245  39.3154575  35.1342845  70.6965239  40.5684580  35.7562641
  69.0935410  42.8182355  25.5526856  69.8143773  43.1963608  25.0490573
  68.4700715  43.5371232  25.6561834  73.2366533  43.5227504  26.4885188
  73.4530148  44.4052142  26.1874017  72.7560600  43.1313717  25.7590830
  67.9765755  46.4813217  33.0655933  67.8310335  46.7953520  33.9580214
  67.4990958  47.0998118  32.5126832  69.8362138  43.4715765  33.1136822
  69.8223706  42.5756859  32.7769120  70.5534566  43.4786429  33.7475109
  71.6888268  43.9053105  35.1589950  71.4306046  44.8270176  35.1574280
  71.1573309  43.5083540  35.8490414  76.6334457  57.0103893  27.9380035
  76.8071335  56.4450315  27.1853888  77.1263348  57.8104787  27.7559525
  62.4511417  49.0218562  36.0043594  61.9064885  49.7978370  36.1363868
  63.3290767  49.3689366  35.8462716  69.2399034  42.3530146  28.3824393
  69.3614945  41.4246792  28.5815280  68.9501076  42.3668831  27.4702708
  72.1090224  40.0385056  31.5191112  72.1311921  40.1024389  30.5643092
  72.5258283  39.1989565  31.7131619  82.4873848  49.7740315  29.5570335
  82.9304994  49.0247641  29.1589458  81.6100359  49.7650452  29.1744067
  77.6209630  56.3270657  25.0376934  78.3160534  56.9477350  25.2564248
  77.9632780  55.4766008  25.3129311  79.5201053  53.7770362  26.5664264
  80.0452377  54.1157635  25.8413584  79.4323405  52.8417378  26.3827399
  71.1821101  57.6904436  38.6954141  71.4908228  57.4453583  39.5676841
  71.9796583  57.8951075  38.2073011  71.2041713  59.8442346  30.9259518
  70.7646704  59.3518724  31.6192374  71.9549830  59.3015313  30.6851593
  63.6834052  56.0353887  30.9284146  64.5092072  55.7357658  30.5482789
  63.3328104  55.2661509  31.3773934  68.6515586  55.3880355  32.9981819
  68.0295595  54.7251060  32.6984047  69.3220452  55.4141487  32.3155467
  61.8842657  53.9540213  31.8873079  61.0474566  53.5262387  31.7057080
  61.8566303  54.1472656  32.8243870  79.2094959  54.4103266  41.8715462
  78.4190502  54.3927405  41.3319962  78.9728313  54.9491560  42.6264499
  79.3292834  51.2595732  39.1848191  79.3790839  51.0945740  40.1263714
  79.2206757  50.3922992  38.7946072  68.2129092  53.9384278  26.4740280
  68.3617213  54.6219743  25.8206952  69.0195536  53.9189368  26.9889735
  76.6196596  47.2426661  40.5007498  77.5206459  47.1033125  40.2091495
  76.6944571  47.4081115  41.4405675  80.8311031  53.6792674  39.4290212
  80.5395839  54.0422655  40.2653673  80.2183162  52.9659682  39.2503544
  82.0306713  51.2445554  31.9492783  82.8653604  51.6835358  32.1130343
  82.1665842  50.7684207  31.1301028  79.0798219  48.8025289  37.8970270
  79.5552340  48.9952935  37.0889122  78.1563784  48.8584474  37.6513654
  65.9681725  49.9649456  27.4801349  65.7227767  49.0611786  27.6781559
  66.1377640  49.9666606  26.5380827  73.6578435  40.8373132  36.8626104
  74.1760379  41.5734159  36.5372593  73.3033568  41.1437125  37.6972863
  65.2377373  45.6977813  24.9787510  64.5446618  45.7722168  24.3227546
  64.9929125  44.9338157  25.5009027  73.9091030  37.2573415  32.3827001
  74.1892783  36.5896604  33.0087427  74.6941636  37.4502510  31.8701665
  71.7124498  56.4332409  23.9452027  71.1398465  57.0522596  23.4922499
  72.2857292  56.9831770  24.4791949  77.7799888  45.6791049  36.1298576
  78.7317311  45.7789146  36.1510800  77.6103338  44.8869317  36.6396660
  75.8014267  42.7646632  36.3157977  75.2064199  43.0451645  35.6204466
  75.5163964  43.2540533  37.0874718  74.9321758  56.7169559  25.0760609
  75.8652431  56.6515120  25.2793485  74.8444971  57.5525826  24.6175142
  77.5609774  56.0335429  22.0364557  77.4823406  55.6995293  22.9300315
  78.3819441  56.5257197  22.0356029  80.2587966  48.8997168  35.2440876
  80.2264286  47.9613169  35.4300559  80.8688589  48.9781205  34.5106701
  72.0971297  47.7693221  21.2868080  73.0430401  47.6399429  21.3556498
  71.7185541  47.0307883  21.7637508  80.4082454  45.6908212  35.2899159
  79.8921503  44.9066668  35.1029088  81.2922403  45.3626928  35.4545678
  78.0693181  39.4349227  31.2494971  77.8718002  39.1264316  32.1338303
  78.6792887  40.1610866  31.3792901  86.0764516  49.9613175  34.3846912
  86.8067904  49.6998463  34.9454616  85.4671461  49.2241897  34.4248980
  84.1579813  48.1021038  34.9821364  83.4312976  47.9677003  34.3737855
  83.7427100  48.4097866  35.7878082  70.2814214  45.6943198  21.2222965
  69.3745669  45.3976310  21.2985679  70.5590195  45.3973016  20.3557251
  61.1992154  47.0149561  31.6722011  60.8794938  46.1614869  31.3796385
  60.6525582  47.2298139  32.4279979  64.9772062  49.7312002  35.3891518
  65.1958071  50.6629110  35.4079552  65.3897835  49.3719977  36.1746322
  71.8976279  40.2380087  27.3767206  71.0877008  39.8927172  27.7522452
  72.5860696  39.9287631  27.9654818  73.8266828  39.3158134  28.9991503
  74.3797866  39.7353588  29.6581526  74.0636914  38.3893882  29.0414459
  69.0512998  42.5530133  21.3634944  69.9132162  42.8785031  21.6230761
  69.2363342  41.7661629  20.8508010  61.0680414  50.6352473  33.6415133
  60.3743885  50.2206425  33.1285087  61.8153405  50.6773009  33.0448552
  77.2045635  41.4258659  28.5070167  76.6244304  42.0843463  28.1248220
  76.9381567  40.6036004  28.0957585  75.6549201  40.8263717  30.7091487
  76.1548980  40.9380252  29.9005806  76.2984809  40.5224770  31.3492296
  62.9817157  50.5670726  31.5181148  62.9587845  50.6658414  30.5663031
  63.2917793  51.4135877  31.8398314  65.6404534  52.6246881  35.6327762
  66.5947788  52.5930824  35.5657694  65.4417058  52.1637505  36.4477988
  75.9870513  43.5858750  27.5626515  75.0996368  43.8708400  27.3446710
  76.4024502  43.4252513  26.7153792  79.3385049  43.6105271  31.2780855
  80.1145439  44.1001723  31.5505471  78.6133183  44.0363325  31.7352724
  81.7757608  44.3232890  32.3354795  82.3702098  44.0828626  31.6248103
  81.8484191  43.6040021  32.9628332  63.9954763  58.1666501  32.6497960
  63.8609231  57.4066902  32.0835958  63.5786826  58.8907401  32.1826749
  75.1313726  53.3503425  21.6574535  75.8349576  53.5553427  22.2732191
  74.4076375  53.9180186  21.9223619  75.9611537  49.1013286  27.7776806
  75.9046738  49.5581837  26.9384438  76.5139879  48.3403970  27.5999648
  79.7716342  44.8903018  28.6026925  79.5153277  44.4899653  29.4335133
  79.1469210  45.6046812  28.4777064  84.0828680  47.6299091  31.1098216
  83.5228238  47.6992280  31.8829778  83.4772184  47.4540076  30.3897713
  67.1523889  59.0635818  32.8616403  67.0356273  60.0081250  32.7595093
  66.3316335  58.7609380  33.2502202  77.0400424  53.7885954  23.7072995
  77.8746028  53.3567152  23.5250470  76.8784767  53.6167967  24.6349890
  76.6946316  50.2918067  25.0729335  76.6395120  50.1262338  24.1317779
  76.0692371  50.9994100  25.2291524  61.4838831  45.5286131  38.8990757
  62.1297694  45.0185085  39.3877982  61.2755982  46.2654813  39.4734182
  70.0042441  39.7926176  24.6514653  69.9921111  40.7368016  24.8082924
  70.8965863  39.6096321  24.3574114  68.1778403  59.7164080  36.0772331
  69.0805650  59.7487690  36.3938826  67.9515773  58.7864531  36.0918667
  69.9332005  58.4695066  32.7382410  68.9827636  58.4696928  32.6246782
  70.2364491  57.7227801  32.2218444  73.8194561  36.3868953  28.9060590
  73.0526957  35.8327439  29.0517272  74.2305266  36.4590821  29.7674742
  78.3361221  66.1118509  29.7286588  77.7726086  66.0208446  28.9602876
  78.2213616  65.2918414  30.2089080  75.8825653  67.6069701  32.5670808
  76.6746945  67.2660526  32.1517108  76.1222303  67.7164676  33.4872962
  83.9160779  69.7789477  25.0401053  83.2648759  70.3643557  24.6535066
  84.7105142  70.3095672  25.0996090  77.8416407  66.8678614  25.4388187
  78.6147283  66.3207601  25.3001063  78.1941805  67.7322864  25.6502648
  80.1782684  63.0271280  23.0706637  80.4308205  62.5052802  22.3090100
  79.2407244  62.8637426  23.1733321  85.2225967  62.0307059  30.8781380
  86.0089056  61.6126482  30.5271797  85.4864672  62.9353151  31.0463029
  85.3936045  67.4679909  25.5770037  84.7581878  67.5414535  26.2890942
  85.0633451  68.0573508  24.8989116  79.8978973  64.9299386  25.2731012
  79.7815231  64.2544290  25.9412096  80.0081233  64.4431760  24.4563165
  81.8816001  59.4199433  23.9739050  82.0490403  60.2879669  24.3409521
  81.6913170  59.5826715  23.0500339  78.0903816  64.3330209  31.6741584
  77.1654312  64.2006423  31.8819276  78.3388229  65.1124428  32.1711527
  81.8605222  61.8757091  24.9585716  81.7404847  62.3214141  25.7971197
  81.1657810  62.2242408  24.3999255  75.4512627  63.9763482  32.5085374
  75.5805008  64.2297961  33.4224785  74.7710078  64.5691190  32.1890029
  79.6212114  74.6460732  28.6075848  79.5436144  75.5968557  28.6864328
  79.0173758  74.3006605  29.2650774  87.5590288  62.3478564  25.7866051
  88.4708144  62.5805950  25.6113748  87.0499935  62.9315608  25.2241129
  90.0449102  68.2658820  30.5323996  89.3600140  68.6457721  29.9821029
  90.1292952  68.8754147  31.2655944  81.7187832  67.0678790  30.4429717
  82.1826178  67.3466493  29.6534340  81.4544630  66.1662235  30.2602808
  78.6111913  66.6150272  33.3809480  79.1813270  67.0437540  32.7426965
  79.2020025  66.3332857  34.0793666  80.6556718  63.1901943  27.2519282
  81.3580762  63.6422986  27.7193209  80.3237347  62.5485762  27.8799175
  74.3982052  61.4485495  32.5536416  73.6081106  61.7043024  32.0776526
  74.8893300  62.2633833  32.6588456  76.3496798  61.8130075  29.5119893
  75.5527961  61.9248769  30.0303388  76.1222390  62.1516727  28.6460783
  72.6819755  61.7015986  34.9851407  72.9327794  62.5862996  35.2508983
  73.2179304  61.5220587  34.2126498  96.5051855  65.1329483  31.6526668
  95.7515563  64.5636881  31.4970673  96.6399396  65.0992147  32.5997303
  81.8950483  70.0042885  27.3281387  81.7596158  70.8494421  27.7566235
  82.4360295  70.2062163  26.5647321  75.3479880  67.5218323  27.9009313
  75.8604401  68.3161574  28.0514877  76.0002593  66.8244614  27.8342914
  77.1574765  70.6384080  29.9832066  77.3341393  71.5602044  29.7953050
  77.9531599  70.3242499  30.4126446  85.2442947  53.5273447  35.8580281
  84.9007216  54.4175089  35.7819392  85.6121909  53.3375105  34.9949866
  73.3128797  65.8506978  28.6768883  74.1504019  66.2603986  28.4602591
  73.4907065  64.9106420  28.6469077  85.2093229  63.5182058  24.3652716
  84.6939853  64.2886663  24.6041103  84.9370538  62.8447194  24.9885777
  82.7940340  58.3631759  29.4237954  81.9381937  57.9738609  29.2443593
  83.2067292  58.4423720  28.5637740  84.3239487  55.8978102  33.8229514
  83.8204283  55.8608237  33.0097319  84.6170094  56.8070845  33.8826171
  80.5682373  55.9816832  32.8295696  81.4335370  55.7859641  32.4701585
  80.6359882  55.7527184  33.7565053  90.1827503  66.2714413  26.3005890
  89.4056946  65.9325572  25.8561052  90.8618984  66.2767036  25.6260855
  84.9979532  61.3909150  26.1912497  84.6929668  61.7055300  27.0422640
  85.9509975  61.4690570  26.2339830  83.4425964  67.5499374  27.8405451
  82.9147326  66.8152133  27.5278689  82.9413467  68.3274050  27.5945420
  78.1744692  58.2119040  30.2012063  78.7488444  57.9894221  29.4685256
  78.7615674  58.2807734  30.9540664  87.2324269  64.0992767  31.0076439
  87.7456151  64.7322759  31.5098149  87.8825493  63.4993962  30.6419799
  78.5014279  60.2423501  24.2207948  77.6651591  60.5798188  24.5417223
  78.3619049  60.1072481  23.2835085  80.4767360  55.0860289  28.9287132
  79.8231772  54.7709306  28.3043747  80.4347834  54.4636029  29.6546955
  81.5878564  65.3679584  20.8440424  80.6805626  65.1368837  21.0431573
  82.0849596  64.5717203  21.0314406  84.4946643  74.0777091  23.7637110
  83.8208342  74.3808788  24.3722068  84.8812465  74.8806171  23.4142567
  84.4940148  62.9733638  28.3837460  85.2411967  63.4855035  28.0744582
  84.7631737  62.6517691  29.2441854  82.7666798  65.4692179  25.3664414
  81.8578017  65.1851212  25.4636884  82.7961882  65.8891257  24.5067721
  87.9986065  69.0798768  29.1355582  87.5448392  68.2389678  29.1920772
  87.3680032  69.7160167  29.4730362  86.4419005  70.9175265  30.0705400
  86.7341979  71.4780322  29.3517766  86.9517625  71.2103826  30.8258559
  87.0430612  52.7867006  30.9598019  87.3489489  51.9264370  30.6723934
  87.7683217  53.3784627  30.7597013  73.3354968  63.1897693  29.3479617
  73.1379368  62.5967054  28.6230683  72.7801632  62.8849903  30.0655555
  81.3151692  63.0820799  31.4674210  81.3700302  62.1294636  31.3916686
  80.5042894  63.2380239  31.9515508  82.4642886  67.0100922  22.7052493
  82.0262316  66.2936781  22.2458130  83.2053327  67.2377037  22.1437584
  79.2544052  61.6997859  29.2264589  78.4411917  61.9992030  29.6329781
  79.7503046  61.3053548  29.9439071  81.4052630  71.6955616  31.1598853
  81.3628809  71.9216462  30.2307385  82.3215329  71.4618991  31.3084654
  90.5816000  65.2858120  28.7628811  90.4433899  65.4759715  27.8350001
  90.2252219  66.0477502  29.2196863  78.7458127  59.2716215  34.8425823
  79.3857506  59.1304974  34.1448787  77.9135657  58.9850728  34.4664425
  79.5218431  68.5718645  30.9560816  80.3159029  68.0768965  30.7543391
  78.8110123  68.0436508  30.5928522  75.8301194  62.7161727  27.0320569
  74.8998782  62.6546182  27.2490531  75.9258666  62.1937680  26.2357210
  75.7486743  59.2416540  29.6198810  76.0093560  60.1561873  29.5107971
  76.5703915  58.7740982  29.7695423  77.2211668  60.6554297  36.7897635
  77.8934722  60.4471659  36.1410284  76.3941455  60.4576383  36.3502867
  82.6937858  74.2456764  25.9784190  82.8689614  73.7744807  26.7929812
  82.0070647  74.8722530  26.2065450  83.6494922  68.5229270  32.0247491
  83.3144754  68.4830040  32.9205141  83.1498867  67.8573986  31.5517901
  86.5854113  65.8685304  22.2984550  85.9683284  65.1432132  22.2017603
  86.1170602  66.6294664  21.9551625  77.2598944  77.3946126  32.7524050
  77.4995542  78.0264650  33.4303068  76.4168140  77.0434166  33.0389409
  78.3752659  60.0870728  21.4205855  77.4982126  59.9659529  21.0568101
  78.8510412  59.2956807  21.1684743  69.8954799  64.8747888  31.5147362
  70.5825839  64.5609618  30.9268377  69.7402928  65.7789253  31.2414613
  74.6989521  59.7638085  35.9432386  74.6147710  59.1563754  35.2082796
  73.8772228  60.2547103  35.9441882  81.5616585  72.4397019  28.6668375
  80.7784107  72.9818699  28.7606600  82.2609330  72.9570998  29.0662616
  85.9543016  67.0063335  28.8841004  85.0199295  67.1264798  28.7145708
  86.1319685  66.1035802  28.6201014  81.4548204  60.3909031  31.0374265
  81.0845992  59.8380072  31.7255171  81.9507297  59.7867165  30.4849265
  87.4091799  69.1924476  26.4177190  87.6851642  69.0781071  27.3271064
  86.5396297  68.7941961  26.3789363  84.0445863  73.4410827  30.0610004
  84.2268257  72.6232483  30.5237756  84.8678849  73.6578519  29.6234894
  84.3788028  72.3679012  27.3225052  84.9075794  71.8571467  26.7095214
  84.6416248  72.0521542  28.1870585  74.8805121  70.3842881  35.0660386
  75.4658558  69.6386569  35.1988290  74.6829959  70.6946838  35.9497050
  77.7343776  73.4194129  30.0822828  77.0654151  73.9040256  29.5986868
  77.5956646  73.6663349  30.9966207  69.4722775  62.9548482  33.7864829
  69.5106875  62.4212072  34.5801947  68.9663068  62.4283687  33.1675806
  76.8513538  57.8013022  37.2827371  76.9154864  58.6627853  36.8704769
  76.7880658  57.1887024  36.5499730  73.1031353  61.6812584  26.8618760
  73.3984794  60.7723262  26.8085814  72.2019389  61.6600323  26.5399763
  76.6325600  59.7568580  32.8446309  75.9112186  60.3704548  32.7053782
  77.4218856  60.2926345  32.7662955  79.4351914  57.0923007  39.1186961
  79.9586315  57.3385303  39.8813270  79.2164247  57.9243042  38.6990098
  74.8319195  59.3626681  26.9858086  74.5031901  58.4824060  26.8033191
  75.1858565  59.3074350  27.8734475  84.0798774  70.9981584  31.4953071
  83.9323736  70.0698291  31.6760641  84.9052267  71.0201675  31.0110146
  77.9461018  59.6499651  27.3533563  78.2857090  60.1785572  26.6312172
  78.3933138  59.9880057  28.1292130  80.6404459  58.0336702  36.8036631
  80.3001279  57.2344515  37.2057311  79.9343465  58.3338413  36.2313464
  81.2920930  55.1186014  35.2563954  82.1147000  54.6446492  35.1342845
  81.5358994  55.8976498  35.7562641  79.9329165  58.1474273  25.5526856
  80.6537527  58.5255525  25.0490573  79.3094469  58.8663150  25.6561834
  84.0760288  58.8519422  26.4885188  84.2923902  59.7344060  26.1874017
  83.5954355  58.4605635  25.7590830  78.8159509  61.8105135  33.0655933
  78.6704090  62.1245438  33.9580214  78.3384713  62.4290035  32.5126832
  80.6755892  58.8007683  33.1136822  80.6617461  57.9048776  32.7769120
  81.3928320  58.8078347  33.7475109  87.4728212  72.3395810  27.9380035
  87.6465089  71.7742233  27.1853888  87.9657103  73.1396705  27.7559525
  73.2905171  64.3510479  36.0043594  72.7458639  65.1270287  36.1363868
  74.1684521  64.6981284  35.8462716  80.0792788  57.6822063  28.3824393
  80.2008699  56.7538709  28.5815280  79.7894830  57.6960749  27.4702708
  82.9483978  55.3676974  31.5191112  82.9705675  55.4316307  30.5643092
  83.3652037  54.5281482  31.7131619  93.3267603  65.1032233  29.5570335
  93.7698749  64.3539558  29.1589458  92.4494113  65.0942370  29.1744067
  88.4603384  71.6562575  25.0376934  89.1554289  72.2769267  25.2564248
  88.8026534  70.8057926  25.3129311  74.0771193  63.4780376  38.8973751
  73.3352929  63.6263011  39.4838381  73.7563938  63.7388641  38.0340500
  90.3594807  69.1062280  26.5664264  90.8846131  69.4449553  25.8413584
  90.2717160  68.1709295  26.3827399  74.5227807  71.3645804  30.9284146
  75.3485827  71.0649576  30.5482789  74.1721859  70.5953427  31.3773934
  79.4909340  70.7172273  32.9981819  78.8689349  70.0542978  32.6984047
  80.1614207  70.7433404  32.3155467  72.7236412  69.2832131  31.8873079
  71.8868320  68.8554305  31.7057080  72.6960057  69.4764574  32.8243870
  79.0522847  69.2676196  26.4740280  79.2010967  69.9511660  25.8206952
  79.8589290  69.2481286  26.9889735  92.8700467  66.5737471  31.9492783
  93.7047359  67.0127276  32.1130343  93.0059596  66.0976125  31.1301028
  76.8075480  65.2941373  27.4801349  76.5621522  64.3903703  27.6781559
  76.9771395  65.2958524  26.5380827  84.4972190  56.1665050  36.8626104
  85.0154134  56.9026077  36.5372593  84.1427323  56.4729043  37.6972863
  76.0771127  61.0269731  24.9787510  75.3840372  61.1014086  24.3227546
  75.8322879  60.2630075  25.5009027  84.7484784  52.5865332  32.3827001
  85.0286538  51.9188521  33.0087427  85.5335391  52.7794428  31.8701665
  82.5518253  71.7624326  23.9452027  81.9792220  72.3814513  23.4922499
  83.1251046  72.3123688  24.4791949  85.7715512  72.0461476  25.0760609
  86.7046185  71.9807038  25.2793485  85.6838725  72.8817743  24.6175142
  88.4003529  71.3627347  22.0364557  88.3217160  71.0287210  22.9300315
  89.2213196  71.8549115  22.0356029  82.9365051  63.0985139  21.2868080
  83.8824156  62.9691347  21.3556498  82.5579296  62.3599801  21.7637508
  81.1207968  61.0235115  21.2222965  80.2139424  60.7268228  21.2985679
  81.3983949  60.7264934  20.3557251  72.0385909  62.3441479  31.6722011
  71.7188693  61.4906787  31.3796385  71.4919337  62.5590057  32.4279979
  75.8165816  65.0603920  35.3891518  76.0351826  65.9921028  35.4079552
  76.2291590  64.7011894  36.1746322  82.7370034  55.5672005  27.3767206
  81.9270762  55.2219090  27.7522452  83.4254451  55.2579549  27.9654818
  84.6660582  54.6450052  28.9991503  85.2191621  55.0645505  29.6581526
  84.9030669  53.7185800  29.0414459  79.8906753  57.8822051  21.3634944
  80.7525917  58.2076949  21.6230761  80.0757097  57.0953547  20.8508010
  71.9074169  65.9644390  33.6415133  71.2137640  65.5498343  33.1285087
  72.6547160  66.0064927  33.0448552  73.8210911  65.8962644  31.5181148
  73.7981599  65.9950331  30.5663031  74.1311548  66.7427795  31.8398314
  76.4798289  67.9538799  35.6327762  77.4341542  67.9222741  35.5657694
  76.2810813  67.4929423  36.4477988  74.8348518  73.4958419  32.6497960
  74.7002986  72.7358820  32.0835958  74.4180580  74.2199319  32.1826749
  85.9707481  68.6795342  21.6574535  86.6743331  68.8845345  22.2732191
  85.2470130  69.2472104  21.9223619  86.8005291  64.4305203  27.7776806
  86.7440492  64.8873755  26.9384438  87.3533633  63.6695888  27.5999648
  94.9222435  62.9591009  31.1098216  94.3621993  63.0284198  31.8829778
  94.3165938  62.7831993  30.3897713  77.9917644  74.3927736  32.8616403
  77.8750028  75.3373168  32.7595093  77.1710090  74.0901297  33.2502202
  87.8794178  69.1177871  23.7072995  88.7139782  68.6859070  23.5250470
  87.7178521  68.9459885  24.6349890  87.5340070  65.6209985  25.0729335
  87.4788874  65.4554256  24.1317779  86.9086126  66.3286018  25.2291524
  72.3232585  60.8578049  38.8990757  72.9691449  60.3477003  39.3877982
  72.1149736  61.5946731  39.4734182  80.8436196  55.1218094  24.6514653
  80.8314866  56.0659934  24.8082924  81.7359618  54.9388239  24.3574114
  84.6588315  51.7160870  28.9060590  83.8920711  51.1619357  29.0517272
  85.0699020  51.7882739  29.7674742  94.7554534  85.1081395  25.0401053
  94.1042514  85.6935475  24.6535066  95.5498897  85.6387590  25.0996090
  91.0176439  78.3563198  23.0706637  91.2701960  77.8344719  22.3090100
  90.0800998  78.1929343  23.1733321  96.0619722  77.3598976  30.8781380
  96.8482811  76.9418400  30.5271797  96.3258426  78.2645069  31.0463029
  96.2329799  82.7971827  25.5770037  95.5975632  82.8706453  26.2890942
  95.9027206  83.3865425  24.8989116 101.4628149  77.2974210  31.7814359
 102.1953321  76.7273426  32.0152188 100.7067505  76.9095810  32.2220864
  93.0804269  79.7201451  28.9777701  92.7162476  79.1932072  29.6890623
  93.9371384  79.3299920  28.8044187  92.7209756  74.7491351  23.9739050
  92.8884158  75.6171587  24.3409521  92.5306925  74.9118632  23.0500339
  98.8782233  75.7290870  33.3202317  97.9699110  75.6606278  33.0261078
  98.8269828  76.2062815  34.1484143  92.6998976  77.2049008  24.9585716
  92.5798602  77.6506059  25.7971197  92.0051565  77.5534326  24.3999255
 100.7443879  73.9307308  35.0980191 100.1018259  74.2239841  34.4519986
 100.2398807  73.8160229  35.9033388  98.3984043  77.6770481  25.7866051
  99.3101899  77.9097868  25.6113748  97.8893690  78.2607526  25.2241129
 100.8842857  83.5950738  30.5323996 100.1993895  83.9749639  29.9821029
 100.9686706  84.2046064  31.2655944  91.4950473  78.5193860  27.2519282
  92.1974516  78.9714904  27.7193209  91.1631101  77.8777679  27.8799175
 107.3445609  80.4621401  31.6526668 106.5909318  79.8928799  31.4970673
 107.4793151  80.4284065  32.5997303  96.0486984  78.8473976  24.3652716
  95.5333607  79.6178581  24.6041103  95.7764292  78.1739112  24.9885777
  93.6334095  73.6923677  29.4237954  92.7775691  73.3030527  29.2443593
  94.0461047  73.7715638  28.5637740 101.0221258  81.6006331  26.3005890
 100.2450701  81.2617490  25.8561052 101.7012739  81.6058954  25.6260855
  95.8373287  76.7201068  26.1912497  95.5323422  77.0347217  27.0422640
  96.7903729  76.7982488  26.2339830  94.2819719  82.8791291  27.8405451
  93.7541080  82.1444051  27.5278689  93.7807221  83.6565968  27.5945420
  99.2612565  81.0740312  32.9572498  98.6036239  81.7639573  33.0452626
 100.0652964  81.4636744  33.3006484  98.0718024  79.4284685  31.0076439
  98.5849905  80.0614676  31.5098149  98.7219247  78.8285880  30.6419799
  89.3408033  75.5715419  24.2207948  88.5045346  75.9090105  24.5417223
  89.2012803  75.4364398  23.2835085  91.3161114  70.4152207  28.9287132
  90.6625526  70.1001224  28.3043747  91.2741588  69.7927947  29.6546955
  92.4272319  80.6971502  20.8440424  91.5199381  80.4660755  21.0431573
  92.9243351  79.9009121  21.0314406  95.3340398  89.4069009  23.7637110
  94.6602097  89.7100706  24.3722068  95.7206220  90.2098089  23.4142567
  94.5498854  76.9034140  33.2534780  93.6321416  77.1249087  33.0956468
  94.9658998  76.9780451  32.3946487  95.3333902  78.3025556  28.3837460
  96.0805721  78.8146953  28.0744582  95.6025492  77.9809608  29.2441854
  93.6060552  80.7984096  25.3664414  92.6971772  80.5143129  25.4636884
  93.6355636  81.2183175  24.5067721  98.8379820  84.4090686  29.1355582
  98.3842147  83.5681596  29.1920772  98.2073787  85.0452084  29.4730362
  97.7812739  75.3382672  30.3656249  97.0435496  74.8260058  30.6966492
  98.0339513  74.8983054  29.5539526  93.3036640  82.3392840  22.7052493
  92.8656070  81.6228699  22.2458130  94.0447081  82.5668955  22.1437584
  90.0937806  77.0289777  29.2264589  89.2805672  77.3283947  29.6329781
  90.5896801  76.6345466  29.9439071 101.4209755  80.6150037  28.7628811
 101.2827654  80.8051633  27.8350001 101.0645974  81.3769420  29.2196863
 101.4479135  82.6826564  33.7740083 101.8815641  82.5901853  34.6223137
 102.1610715  82.6584065  33.1360099  86.5880498  74.5708457  29.6198810
  86.8487315  75.4853791  29.5107971  87.4097670  74.1032900  29.7695423
 102.3094684  82.7250265  36.3072968 102.5030574  83.6296075  36.5532243
 102.2095302  82.2657684  37.1411553  93.5331613  89.5748681  25.9784190
  93.7083369  89.1036724  26.7929812  92.8464401  90.2014447  26.2065450
  97.4247868  81.1977222  22.2984550  96.8077038  80.4724050  22.2017603
  96.9564356  81.9586582  21.9551625  99.0801999  85.9076130  39.9590331
  99.0214546  85.2235350  39.2920914  99.4821518  86.6495120  39.5070957
  88.0992698  92.7238044  32.7524050  88.3389296  93.3556568  33.4303068
  87.2561895  92.3726084  33.0389409  89.2146414  75.4162646  21.4205855
  88.3375880  75.2951447  21.0568101  89.6904167  74.6248724  21.1684743
  80.7348554  80.2039806  31.5147362  81.4219594  79.8901536  30.9268377
  80.5796683  81.1081170  31.2414613  92.6120560  88.5317166  35.1565554
  92.5390732  89.3372138  35.6684858  92.1697953  88.7309132  34.3313575
  95.7106990  73.5783566  31.3102581  96.2075689  72.8253528  30.9903651
  94.9393971  73.6147883  30.7445790 103.5636747  79.2823931  32.9520872
 103.5526624  80.1648647  32.5814805 102.6954127  78.9295482  32.7575409
  95.0719244  88.4304000  37.3123712  95.7847216  89.0651465  37.2399614
  94.5809272  88.5267866  36.4963714  96.7936771  82.3355253  28.8841004
  95.8593049  82.4556716  28.7145708  96.9713439  81.4327720  28.6201014
 100.1809322  78.1772572  29.4191038 100.6469774  79.0100564  29.3451341
 100.6316822  77.7117554  30.1236297  98.2485553  84.5216394  26.4177190
  98.5245397  84.4072988  27.3271064  97.3790052  84.1233879  26.3789363
  97.9232443  78.7343051  35.9581834  97.2703893  78.9818959  35.3034286
  98.3012823  77.9207190  35.6244311  92.7142799  90.7829790  36.6805487
  93.2661107  90.9461411  37.4454572  93.0548993  91.3734228  36.0085511
  97.9146095  86.5320785  35.2948719  96.9676430  86.4126137  35.2227046
  98.2628868  85.6443284  35.3774980  85.6712949  74.6918599  26.9858086
  85.3425655  73.8115978  26.8033191  86.0252320  74.6366268  27.8734475
  88.7854772  74.9791569  27.3533563  89.1250845  75.5077490  26.6312172
  89.2326893  75.3171975  28.1292130  98.5226650  87.1502060  32.5817944
  99.4473197  86.9444922  32.4442395  98.3541953  86.9018462  33.4907285
  90.7722919  73.4766190  25.5526856  91.4931282  73.8547443  25.0490573
  90.1488224  74.1955067  25.6561834  94.9154042  74.1811339  26.4885188
  95.1317657  75.0635977  26.1874017  94.4348109  73.7897553  25.7590830
  98.3121966  87.6687728  27.9380035  98.4858844  87.1034150  27.1853888
  98.8050857  88.4688623  27.7559525  90.9186543  73.0113981  28.3824393
  91.0402454  72.0830627  28.5815280  90.6288585  73.0252667  27.4702708
  93.7877733  70.6968891  31.5191112  93.8099430  70.7608224  30.5643092
  94.2045792  69.8573400  31.7131619 104.1661357  80.4324151  29.5570335
 104.6092503  79.6831476  29.1589458 103.2887868  80.4234287  29.1744067
  99.2997139  86.9854492  25.0376934  99.9948043  87.6061185  25.2564248
  99.6420289  86.1349844  25.3129311 101.1988562  84.4354198  26.5664264
 101.7239886  84.7741471  25.8413584 101.1110914  83.5001213  26.3827399
 100.8882468  85.0687101  41.8715462 100.0978011  85.0511240  41.3319962
 100.6515822  85.6075395  42.6264499 101.0080343  81.9179568  39.1848191
 101.0578348  81.7529575  40.1263714 100.8994266  81.0506827  38.7946072
 102.5098540  84.3376509  39.4290212 102.2183348  84.7006490  40.2653673
 101.8970671  83.6243518  39.2503544 103.7094222  81.9029389  31.9492783
 104.5441113  82.3419193  32.1130343 103.8453351  81.4268042  31.1301028
  86.9164882  76.3561649  24.9787510  86.2234127  76.4306004  24.3227546
  86.6716634  75.5921992  25.5009027  93.3912007  87.0916244  23.9452027
  92.8185974  87.7106431  23.4922499  93.9644801  87.6415606  24.4791949
  99.4587397  76.3374884  36.1298576 100.4104820  76.4372982  36.1510800
  99.2890847  75.5453153  36.6396660  96.6109267  87.3753394  25.0760609
  97.5439940  87.3098956  25.2793485  96.5232480  88.2109661  24.6175142
  99.2397283  86.6919264  22.0364557  99.1610915  86.3579128  22.9300315
 100.0606950  87.1841032  22.0356029 101.9375475  79.5581004  35.2440876
 101.9051795  78.6197004  35.4300559 102.5476098  79.6365040  34.5106701
  93.7758805  78.4277057  21.2868080  94.7217910  78.2983265  21.3556498
  93.3973050  77.6891719  21.7637508 102.0869963  76.3492047  35.2899159
 101.5709012  75.5650504  35.1029088 102.9709912  76.0210764  35.4545678
 107.7552024  80.6197011  34.3846912 108.4855413  80.3582299  34.9454616
 107.1458970  79.8825733  34.4248980 105.8367322  78.7604873  34.9821364
 105.1100485  78.6260838  34.3737855 105.4214608  79.0681702  35.7878082
  91.9601723  76.3527033  21.2222965  91.0533178  76.0560146  21.2985679
  92.2377704  76.0556851  20.3557251  93.5763788  70.8963923  27.3767206
  92.7664517  70.5511008  27.7522452  94.2648205  70.5871467  27.9654818
  95.5054337  69.9741970  28.9991503  96.0585375  70.3937423  29.6581526
  95.7424423  69.0477718  29.0414459  90.7300507  73.2113968  21.3634944
  91.5919671  73.5368867  21.6230761  90.9150851  72.4245464  20.8508010
  98.8833144  72.0842495  28.5070167  98.3031813  72.7427299  28.1248220
  98.6169076  71.2619839  28.0957585  97.6658022  74.2442585  27.5626515
  96.7783877  74.5292236  27.3446710  98.0812011  74.0836349  26.7153792
 101.0172558  74.2689106  31.2780855 101.7932948  74.7585559  31.5505471
 100.2920692  74.6947160  31.7352724 103.4545117  74.9816725  32.3354795
 104.0489607  74.7412461  31.6248103 103.5271700  74.2623856  32.9628332
  85.6742272  88.8250336  32.6497960  85.5396740  88.0650737  32.0835958
  85.2574334  89.5491236  32.1826749  96.8101235  84.0087260  21.6574535
  97.5137085  84.2137262  22.2732191  96.0863884  84.5764022  21.9223619
  97.6399046  79.7597121  27.7776806  97.5834247  80.2165673  26.9384438
  98.1927388  78.9987806  27.5999648 101.4503851  75.5486853  28.6026925
 101.1940786  75.1483489  29.4335133 100.8256719  76.2630647  28.4777064
 105.7616189  78.2882926  31.1098216 105.2015747  78.3576116  31.8829778
 105.1559693  78.1123911  30.3897713  88.8311398  89.7219653  32.8616403
  88.7143782  90.6665086  32.7595093  88.0103844  89.4193215  33.2502202
  98.7187933  84.4469789  23.7072995  99.5533537  84.0150988  23.5250470
  98.5572276  84.2751803  24.6349890  98.3733825  80.9501902  25.0729335
  98.3182629  80.7846174  24.1317779  97.7479880  81.6577935  25.2291524
  91.6829950  70.4510011  24.6514653  91.6708620  71.3951851  24.8082924
  92.5753372  70.2680157  24.3574114  89.8565912  90.3747915  36.0772331
  90.7593159  90.4071526  36.3938826  89.6303282  89.4448366  36.0918667
  95.4982070  67.0452788  28.9060590  94.7314466  66.4911275  29.0517272
  95.9092775  67.1174657  29.7674742 107.3472208  94.9639440  33.8028172
 107.9850618  94.8446188  33.0991512 107.2293051  95.9120284  33.8616124
 104.1561914  94.9166868  33.7389697 103.8180426  94.8007933  32.8510232
 105.0251682  94.5158033  33.7190703 100.0148730  96.7702345  29.7286588
  99.4513595  96.6792282  28.9602876  99.9001125  95.9502249  30.2089080
 104.6381697  96.0701720  39.6975902 104.6270338  95.6754518  38.8256406
 104.8002336  95.3367793  40.2909674  97.5613162  98.2653536  32.5670808
  98.3534454  97.9244361  32.1517108  97.8009812  98.3748511  33.4872962
 105.5948288 100.4373312  25.0401053 104.9436268 101.0227393  24.6535066
 106.3892651 100.9679507  25.0996090  99.5203916  97.5262450  25.4388187
 100.2934792  96.9791437  25.3001063  99.8729314  98.3906699  25.6502648
 101.3588958  98.8538832  38.6455086 101.0678824  99.7584463  38.5301753
 101.9945943  98.8955359  39.3599156 102.2845165  96.2315680  35.2356446
 102.8808737  96.0071703  34.5213409 102.3420137  95.4900426  35.8381894
 101.8570193  93.6855116  23.0706637 102.1095714  93.1636637  22.3090100
 100.9194752  93.5221261  23.1733321 106.9013476  92.6890894  30.8781380
 107.6876565  92.2710317  30.5271797 107.1652181  93.5936986  31.0463029
 107.0723554  98.1263744  25.5770037 106.4369387  98.1998371  26.2890942
 106.7420960  98.7157343  24.8989116 112.3021903  92.6266127  31.7814359
 113.0347075  92.0565344  32.0152188 111.5461259  92.2387728  32.2220864
 101.5766482  95.5883222  25.2731012 101.4602740  94.9128125  25.9412096
 101.6868742  95.1015596  24.4563165 103.9198023  95.0493369  28.9777701
 103.5556230  94.5223990  29.6890623 104.7765139  94.6591838  28.8044187
 109.8247324  86.3387701  36.2408967 109.4930648  87.2083112  36.0170182
 109.2292937  86.0223985  36.9202998 103.5603510  90.0783268  23.9739050
 103.7277912  90.9463505  24.3409521 103.3700679  90.2410550  23.0500339
 106.3178843  98.5400247  35.6404880 106.0179566  99.4425286  35.5320687
 105.9729903  98.2732431  36.4926033  99.7691325  94.9914044  31.6741584
  98.8441821  94.8590258  31.8819276 100.0175738  95.7708263  32.1711527
 109.7175987  91.0582788  33.3202317 108.8092864  90.9898196  33.0261078
 109.6663583  91.5354732  34.1484143 103.5392731  92.5340926  24.9585716
 103.4192356  92.9797977  25.7971197 102.8445319  92.8826244  24.3999255
  97.1300136  94.6347318  32.5085374  97.2592517  94.8881797  33.4224785
  96.4497587  95.2275026  32.1890029 101.2999623 105.3044568  28.6075848
 101.2223653 106.2552393  28.6864328 100.6961267 104.9590440  29.2650774
 111.5837633  89.2599226  35.0980191 110.9412014  89.5531759  34.4519986
 111.0792562  89.1452146  35.9033388 109.2377797  93.0062399  25.7866051
 110.1495653  93.2389786  25.6113748 108.7287444  93.5899443  25.2241129
 102.0463225  95.2857886  40.8255182 102.7877909  95.8242930  40.5490005
 101.3400211  95.9124175  40.9826733 107.5218565  97.4287027  39.4227343
 107.9301921  96.9869437  38.6781975 106.7995826  96.8539654  39.6761536
 103.8749635  92.3659634  36.7960900 104.7210830  92.7899047  36.9395549
 103.8148272  91.7093258  37.4899463 107.8447379  97.9888218  33.1779632
 107.2156242  98.1533932  32.4755700 107.4573041  98.4029827  33.9490596
 111.7236611  98.9242655  30.5323996 111.0387649  99.3041557  29.9821029
 111.8080461  99.5337982  31.2655944 107.0249080  90.0264002  38.4542074
 106.7810012  90.7806063  37.9176349 107.3009011  90.4049350  39.2889321
 108.9787543  96.5702614  37.1319339 109.1904438  97.2134374  36.4553720
 108.9317291  95.7364931  36.6641269 106.5813772  89.1820435  34.0355911
 105.7198251  89.4801689  34.3272649 106.6076207  89.3990834  33.1036944
 103.3975341  97.7262626  30.4429717 103.8613687  98.0050329  29.6534340
 103.1332139  96.8246070  30.2602808 100.2899422  97.2734107  33.3809480
 100.8600779  97.7021376  32.7426965 100.8807534  96.9916692  34.0793666
 102.3344227  93.8485778  27.2519282 103.0368271  94.3006822  27.7193209
 102.0024856  93.2069597  27.8799175  96.0769561  92.1069331  32.5536416
  95.2868615  92.3626859  32.0776526  96.5680809  92.9217669  32.6588456
 110.0933371  99.4474570  35.3041697 110.9150815  99.0454757  35.0224378
 110.0895774  99.3442804  36.2557812  98.0284307  92.4713910  29.5119893
  97.2315470  92.5832604  30.0303388  97.8009899  92.8100562  28.6460783
 103.8589974  98.9958613  37.4602407 103.9234407  99.4579020  38.2960579
 103.1500898  98.3655978  37.5884717  94.3607264  92.3599821  34.9851407
  94.6115303  93.2446831  35.2508983  94.8966813  92.1804423  34.2126498
 118.1839364  95.7913318  31.6526668 117.4303072  95.2220716  31.4970673
 118.3186905  95.7575983  32.5997303 103.5737992 100.6626721  27.3281387
 103.4383667 101.5078256  27.7566235 104.1147804 100.8645998  26.5647321
  97.0267389  98.1802159  27.9009313  97.5391910  98.9745409  28.0514877
  97.6790102  97.4828449  27.8342914  98.8362274 101.2967915  29.9832066
  99.0128902 102.2185880  29.7953050  99.6319108 100.9826334  30.4126446
  98.1214631  93.3432547  39.8594229  98.0068146  92.4417804  40.1601328
  97.2659148  93.5896244  39.5079045 105.2006468 101.2850287  41.4581730
 104.7570323 100.4986666  41.1402634 105.8623682 101.4729438  40.7925620
  99.9593590 102.8146089  35.9842408 100.5101015 102.6863152  35.2119402
  99.1205065 103.1140978  35.6337301 107.2987706 101.5653087  39.4863131
 107.2806182 102.3861968  38.9943400 108.2207626 101.4407162  39.7113272
 103.7560761  99.0797217  40.3286639 104.2889097  98.3185505  40.0985947
 103.2274842  98.7870868  41.0710794 106.9230456  84.1857283  35.8580281
 106.5794725  85.0758924  35.7819392 107.2909418  83.9958940  34.9949866
  94.9916306  96.5090813  28.6768883  95.8291528  96.9187821  28.4602591
  95.1694574  95.5690255  28.6469077 106.8880738  94.1765894  24.3652716
 106.3727362  94.9470498  24.6041103 106.6158047  93.5031030  24.9885777
 104.4727849  89.0215594  29.4237954 103.6169446  88.6322445  29.2443593
 104.8854801  89.1007555  28.5637740 106.0026996  86.5561938  33.8229514
 105.4991791  86.5192073  33.0097319 106.2957603  87.4654680  33.8826171
 102.2469882  86.6400667  32.8295696 103.1122879  86.4443476  32.4701585
 102.3147391  86.4111019  33.7565053 111.8615012  96.9298248  26.3005890
 111.0844455  96.5909408  25.8561052 112.5406493  96.9350871  25.6260855
 106.6767041  92.0492986  26.1912497 106.3717177  92.3639135  27.0422640
 107.6297484  92.1274406  26.2339830 105.1213473  98.2083209  27.8405451
 104.5934835  97.4735969  27.5278689 104.6200976  98.9857885  27.5945420
 110.1006319  96.4032230  32.9572498 109.4429994  97.0931491  33.0452626
 110.9046718  96.7928661  33.3006484  99.8532201  88.8702875  30.2012063
 100.4275953  88.6478057  29.4685256 100.4403183  88.9391570  30.9540664
 108.9111778  94.7576602  31.0076439 109.4243660  95.3906594  31.5098149
 109.5613002  94.1577798  30.6419799 100.1801788  90.9007336  24.2207948
  99.3439100  91.2382023  24.5417223 100.0406558  90.7656316  23.2835085
 102.1554869  85.7444124  28.9287132 101.5019281  85.4293141  28.3043747
 102.1135343  85.1219865  29.6546955 103.2666073  96.0263419  20.8440424
 102.3593135  95.7952673  21.0431573 103.7637105  95.2301039  21.0314406
 106.1734152 104.7360926  23.7637110 105.4995851 105.0392623  24.3722068
 106.5599974 105.5390007  23.4142567 105.3892609  92.2326058  33.2534780
 104.4715170  92.4541005  33.0956468 105.8052753  92.3072368  32.3946487
 106.1727657  93.6317473  28.3837460 106.9199476  94.1438871  28.0744582
 106.4419246  93.3101526  29.2441854 104.4454307  96.1276014  25.3664414
 103.5365526  95.8435047  25.4636884 104.4749391  96.5475093  24.5067721
 109.6773574  99.7382604  29.1355582 109.2235901  98.8973514  29.1920772
 109.0467541 100.3744002  29.4730362 108.6206494  90.6674590  30.3656249
 107.8829251  90.1551976  30.6966492 108.8733267  90.2274971  29.5539526
 108.1206514 101.5759100  30.0705400 108.4129488 102.1364157  29.3517766
 108.6305134 101.8687661  30.8258559 108.7218121  83.4450842  30.9598019
 109.0276998  82.5848205  30.6723934 109.4470726  84.0368462  30.7597013
  95.0142477  93.8481528  29.3479617  94.8166877  93.2550889  28.6230683
  94.4589141  93.5433738  30.0655555 102.9939201  93.7404635  31.4674210
 103.0487811  92.7878471  31.3916686 102.1830403  93.8964074  31.9515508
 104.1430395  97.6684758  22.7052493 103.7049825  96.9520617  22.2458130
 104.8840836  97.8960873  22.1437584 100.9331561  92.3581695  29.2264589
 100.1199426  92.6575865  29.6329781 101.4290555  91.9637383  29.9439071
 103.0840139 102.3539451  31.1598853 103.0416318 102.5800298  30.2307385
 104.0002838 102.1202826  31.3084654 106.5305773  92.8223519  38.0579482
 106.8855160  93.0494992  38.9173948 107.1777904  93.1541896  37.4356738
 112.2603509  95.9441955  28.7628811 112.1221408  96.1343551  27.8350001
 111.9039728  96.7061338  29.2196863 100.4245636  89.9300050  34.8425823
 101.0645015  89.7888809  34.1448787  99.5923166  89.6434563  34.4664425
 112.2872889  98.0118482  33.7740083 112.7209396  97.9193771  34.6223137
 113.0004470  97.9875982  33.1360099 101.2005939  99.2302480  30.9560816
 101.9946538  98.7352801  30.7543391 100.4897632  98.7020344  30.5928522
 106.0200784 101.6120576  35.3073184 106.0737806 102.1811512  36.0750899
 105.1515565 101.7822461  34.9427221  97.5088703  93.3745562  27.0320569
  96.5786291  93.3130018  27.2490531  97.6046175  92.8521515  26.2357210
  97.4274252  89.9000375  29.6198810  97.6881069  90.8145708  29.5107971
  98.2491424  89.4324818  29.7695423  98.8999177  91.3138132  36.7897635
  99.5722231  91.1055494  36.1410284  98.0728964  91.1160218  36.3502867
 113.1488439  98.0542183  36.3072968 113.3424329  98.9587993  36.5532243
 113.0489057  97.5949602  37.1411553 104.8024749  87.9400073  38.8063296
 104.1552664  88.6390023  38.7127772 105.5725765  88.3736217  39.1739544
 108.2103547  98.2048925  41.8813849 108.0589054  97.9759477  40.9643933
 108.2008227  99.1619527  41.8945194 104.9788884  95.7780838  36.8660115
 105.9080944  95.9291998  36.6929083 104.5579914  95.8664859  36.0108762
 103.7777215  99.8031502  34.6358653 103.6388301  99.4350287  35.5084591
 102.9891812 100.3179142  34.4642611 104.3725367 104.9040599  25.9784190
 104.5477123 104.4328642  26.7929812 103.6858155 105.5306365  26.2065450
 105.3282431  99.1813105  32.0247491 104.9932263  99.1413875  32.9205141
 104.8286376  98.5157821  31.5517901  99.3026675  94.5880735  37.5500072
  99.1646473  93.8560974  38.1511611 100.2131598  94.4989635  37.2684260
 108.2641622  96.5269139  22.2984550 107.6470793  95.8015968  22.2017603
 107.7958111  97.2878500  21.9551625 101.9308975  94.3000694  37.0383752
 102.6408594  93.6593887  36.9970370 101.8878283  94.5513589  37.9609932
 109.9195754 101.2368048  39.9590331 109.8608300 100.5527268  39.2920914
 110.3215272 101.9787038  39.5070957 100.6437909  91.2865912  38.8579391
 100.1075266  90.8356651  39.5100987 100.0554618  91.4211821  38.1149855
  98.9386453 108.0529962  32.7524050  99.1783051 108.6848486  33.4303068
  98.0955649 107.7018002  33.0389409 100.0540168  90.7454564  21.4205855
  99.1769635  90.6243365  21.0568101 100.5297921  89.9540642  21.1684743
 109.9213161  99.2007632  38.1904311 109.0339940  98.8633554  38.3130709
 110.4911712  98.4690663  38.4273076  91.5742308  95.5331724  31.5147362
  92.2613348  95.2193454  30.9268377  91.4190437  96.4373088  31.2414613
  96.3777030  90.4221920  35.9432386  96.2935219  89.8147590  35.2082796
  95.5559737  90.9130938  35.9441882 103.4514315 103.8609084  35.1565554
 103.3784486 104.6664056  35.6684858 103.0091708 104.0601050  34.3313575
 103.2404094 103.0980854  28.6668375 102.4571616 103.6402534  28.7606600
 103.9396839 103.6154834  29.0662616 106.5500744  88.9075484  31.3102581
 107.0469444  88.1545446  30.9903651 105.7787726  88.9439800  30.7445790
 114.4030502  94.6115849  32.9520872 114.3920378  95.4940565  32.5814805
 113.5347881  94.2587400  32.7575409 105.9112998 103.7595918  37.3123712
 106.6240970 104.3943383  37.2399614 105.4203027 103.8559784  36.4963714
 107.6330525  97.6647171  28.8841004 106.6986804  97.7848633  28.7145708
 107.8107194  96.7619638  28.6201014 103.1335713  91.0492867  31.0374265
 102.7633501  90.4963907  31.7255171 103.6294806  90.4451000  30.4849265
 111.0203076  93.5064490  29.4191038 111.4863529  94.3392482  29.3451341
 111.4710577  93.0409472  30.1236297 100.9624912 101.5090362  38.1329283
 101.6634371 102.1426845  38.2858677 100.4920027 101.8505093  37.3724922
 109.0879308  99.8508311  26.4177190 109.3639151  99.7364906  27.3271064
 108.2183806  99.4525796  26.3789363 108.9919739  85.8745077  33.4581940
 108.0782819  86.1049304  33.6264146 109.4212841  85.9583521  34.3095972
 108.7626198  94.0634969  35.9581834 108.1097648  94.3110877  35.3034286
 109.1406578  93.2499107  35.6244311 105.7233372 104.0994662  30.0610004
 105.9055766 103.2816318  30.5237756 106.5466358 104.3162354  29.6234894
 106.0575537 103.0262847  27.3225052 106.5863303 102.5155302  26.7095214
 106.3203757 102.7105378  28.1870585  96.5592630 101.0426717  35.0660386
  97.1446067 100.2970405  35.1988290  96.3617468 101.3530673  35.9497050
  99.4131285 104.0777964  30.0822828  98.7441660 104.5624092  29.5986868
  99.2744155 104.3247184  30.9966207  91.1510284  93.6132317  33.7864829
  91.1894384  93.0795908  34.5801947  90.6450577  93.0867522  33.1675806
 103.5536554 106.1121708  36.6805487 104.1054862 106.2753329  37.4454572
 103.8942747 106.7026145  36.0085511  98.5301047  88.4596857  37.2827371
  98.5942373  89.3211688  36.8704769  98.4668167  87.8470859  36.5499730
 108.4047428 100.9382965  42.5354141 108.9487332 101.5512923  42.0409096
 107.8234273 101.4962543  43.0521154  94.7818862  92.3396419  26.8618760
  95.0772303  91.4307097  26.8085814  93.8806898  92.3184158  26.5399763
 106.6904941 104.0603683  33.6669169 106.5656080 103.2593423  33.1580114
 107.3484032 104.5549876  33.1783139  98.3113109  90.4152416  32.8446309
  97.5899695  91.0288383  32.7053782  99.1006365  90.9510180  32.7662955
 108.7539849 101.8612703  35.2948719 107.8070185 101.7418054  35.2227046
 109.1022622 100.9735201  35.3774980 101.1139423  87.7506842  39.1186961
 101.6373824  87.9969139  39.8813270 100.8951756  88.5826877  38.6990098
  96.5106704  90.0210517  26.9858086  96.1819410  89.1407896  26.8033191
  96.8646074  89.9658185  27.8734475 105.7586283 101.6565419  31.4953071
 105.6111245 100.7282127  31.6760641 106.5839776 101.6785510  31.0110146
  99.6248527  90.3083486  27.3533563  99.9644599  90.8369408  26.6312172
 100.0720647  90.6463893  28.1292130 109.3620404 102.4793978  32.5817944
 110.2866952 102.2736839  32.4442395 109.1935708 102.2310379  33.4907285
 102.3191968  88.6920537  36.8036631 101.9788788  87.8928350  37.2057311
 101.6130974  88.9922248  36.2313464 102.9708439  85.7769850  35.2563954
 103.7934509  85.3030328  35.1342845 103.2146503  86.5560333  35.7562641
 101.6116674  88.8058108  25.5526856 102.3325036  89.1839361  25.0490573
 100.9881978  89.5246985  25.6561834 105.7547797  89.5103257  26.4885188
 105.9711411  90.3927895  26.1874017 105.2741864  89.1189470  25.7590830
 100.4947018  92.4688970  33.0655933 100.3491599  92.7829273  33.9580214
 100.0172222  93.0873871  32.5126832 102.3543401  89.4591518  33.1136822
 102.3404970  88.5632612  32.7769120 103.0715829  89.4662182  33.7475109
 104.2069532  89.8928858  35.1589950 103.9487310  90.8145929  35.1574280
 103.6754572  89.4959293  35.8490414 109.1515721 102.9979646  27.9380035
 109.3252598 102.4326068  27.1853888 109.6444612 103.7980540  27.7559525
  94.9692680  95.0094315  36.0043594  94.4246148  95.7854123  36.1363868
  95.8472030  95.3565119  35.8462716 101.7580297  88.3405899  28.3824393
 101.8796208  87.4122545  28.5815280 101.4682339  88.3544584  27.4702708
 104.6271487  86.0260809  31.5191112 104.6493184  86.0900142  30.5643092
 105.0439546  85.1865318  31.7131619 115.0055112  95.7616069  29.5570335
 115.4486258  95.0123394  29.1589458 114.1281622  95.7526205  29.1744067
 110.1390893 102.3146410  25.0376934 110.8341798 102.9353103  25.2564248
 110.4814043 101.4641761  25.3129311  95.7558702  94.1364211  38.8973751
  95.0140438  94.2846846  39.4838381  95.4351446  94.3972477  38.0340500
 112.0382316  99.7646116  26.5664264 112.5633640 100.1033388  25.8413584
 111.9504669  98.8293131  26.3827399 103.7002365 103.6780189  38.6954141
 104.0089491 103.4329336  39.5676841 104.4977847 103.8826828  38.2073011
 103.7222977 105.8318099  30.9259518 103.2827967 105.3394477  31.6192374
 104.4731094 105.2891066  30.6851593  96.2015316 102.0229640  30.9284146
  97.0273336 101.7233412  30.5482789  95.8509368 101.2537262  31.3773934
 101.1696849 101.3756108  32.9981819 100.5476858 100.7126813  32.6984047
 101.8401716 101.4017240  32.3155467  94.4023921  99.9415966  31.8873079
  93.5655829  99.5138140  31.7057080  94.3747566 100.1348409  32.8243870
 111.7276222 100.3979019  41.8715462 110.9371766 100.3803158  41.3319962
 111.4909577 100.9367313  42.6264499 111.8474097  97.2471486  39.1848191
 111.8972102  97.0821493  40.1263714 111.7388021  96.3798745  38.7946072
 100.7310356  99.9260031  26.4740280 100.8798476 100.6095496  25.8206952
 101.5376799  99.9065121  26.9889735 109.1377860  93.2302414  40.5007498
 110.0387722  93.0908878  40.2091495 109.2125834  93.3956868  41.4405675
 113.3492294  99.6668427  39.4290212 113.0577102 100.0298408  40.2653673
 112.7364425  98.9535435  39.2503544 114.5487976  97.2321307  31.9492783
 115.3834868  97.6711111  32.1130343 114.6847105  96.7559960  31.1301028
 111.5979482  94.7901042  37.8970270 112.0733604  94.9828688  37.0889122
 110.6745048  94.8460227  37.6513654  98.4862989  95.9525209  27.4801349
  98.2409031  95.0487539  27.6781559  98.6558903  95.9542359  26.5380827
 106.1759699  86.8248885  36.8626104 106.6941643  87.5609912  36.5372593
 105.8214832  87.1312879  37.6972863  97.7558636  91.6853566  24.9787510
  97.0627881  91.7597921  24.3227546  97.5110388  90.9213910  25.5009027
 106.4272293  83.2449168  32.3827001 106.7074047  82.5772357  33.0087427
 107.2122900  83.4378263  31.8701665 104.2305761 102.4208162  23.9452027
 103.6579729 103.0398349  23.4922499 104.8038555 102.9707523  24.4791949
 110.2981151  91.6666802  36.1298576 111.2498574  91.7664899  36.1510800
 110.1284602  90.8745070  36.6396660 108.3195531  88.7522385  36.3157977
 107.7245463  89.0327398  35.6204466 108.0345228  89.2416286  37.0874718
 107.4503021 102.7045312  25.0760609 108.3833694 102.6390873  25.2793485
 107.3626234 103.5401579  24.6175142 110.0791038 102.0211182  22.0364557
 110.0004669 101.6871046  22.9300315 110.9000705 102.5132950  22.0356029
 112.7769229  94.8872921  35.2440876 112.7445549  93.9488922  35.4300559
 113.3869853  94.9656958  34.5106701 104.6152560  93.7568974  21.2868080
 105.5611665  93.6275183  21.3556498 104.2366805  93.0183636  21.7637508
 112.9263718  91.6783965  35.2899159 112.4102766  90.8942422  35.1029088
 113.8103666  91.3502681  35.4545678 110.5874445  85.4224980  31.2494971
 110.3899266  85.1140069  32.1338303 111.1974150  86.1486619  31.3792901
 118.5945779  95.9488928  34.3846912 119.3249167  95.6874216  34.9454616
 117.9852724  95.2117650  34.4248980 116.6761076  94.0896791  34.9821364
 115.9494240  93.9552756  34.3737855 116.2608363  94.3973619  35.7878082
 102.7995477  91.6818951  21.2222965 101.8926933  91.3852064  21.2985679
 103.0771458  91.3848769  20.3557251  93.7173418  93.0025314  31.6722011
  93.3976202  92.1490622  31.3796385  93.1706846  93.2173892  32.4279979
  97.4953325  95.7187755  35.3891518  97.7139335  96.6504863  35.4079552
  97.9079099  95.3595730  36.1746322 104.4157543  86.2255841  27.3767206
 103.6058271  85.8802925  27.7522452 105.1041960  85.9163384  27.9654818
 106.3448091  85.3033887  28.9991503 106.8979130  85.7229341  29.6581526
 106.5818178  84.3769635  29.0414459 101.5694262  88.5405886  21.3634944
 102.4313426  88.8660784  21.6230761 101.7544606  87.7537382  20.8508010
  93.5861678  96.6228226  33.6415133  92.8925149  96.2082178  33.1285087
  94.3334669  96.6648762  33.0448552 109.7226898  87.4134412  28.5070167
 109.1425567  88.0719217  28.1248220 109.4562831  86.5911757  28.0957585
 108.1730465  86.8139470  30.7091487 108.6730243  86.9256005  29.9005806
 108.8166073  86.5100523  31.3492296  95.4998420  96.5546479  31.5181148
  95.4769108  96.6534167  30.5663031  95.8099057  97.4011630  31.8398314
  98.1585798  98.6122635  35.6327762  99.1129051  98.5806577  35.5657694
  97.9598322  98.1513258  36.4477988  98.7485180  97.1823751  38.1998560
  99.5678069  97.6767829  38.2233397  99.0221988  96.2655719  38.1716127
 108.5051776  89.5734503  27.5626515 107.6177631  89.8584153  27.3446710
 108.9205765  89.4128266  26.7153792 111.8566312  89.5981024  31.2780855
 112.6326703  90.0877476  31.5505471 111.1314447  90.0239078  31.7352724
 114.2938871  90.3108643  32.3354795 114.8883362  90.0704379  31.6248103
 114.3665455  89.5915774  32.9628332  96.5136027 104.1542254  32.6497960
  96.3790495 103.3942655  32.0835958  96.0968089 104.8783154  32.1826749
 107.6494990  99.3379178  21.6574535 108.3530840  99.5429180  22.2732191
 106.9257638  99.9055939  21.9223619 108.4792800  95.0889039  27.7776806
 108.4228001  95.5457590  26.9384438 109.0321142  94.3279723  27.5999648
 112.2897606  90.8778771  28.6026925 112.0334540  90.4775406  29.4335133
 111.6650474  91.5922565  28.4777064 116.6009944  93.6174844  31.1098216
 116.0409502  93.6868033  31.8829778 115.9953447  93.4415829  30.3897713
  99.6705153 105.0511571  32.8616403  99.5537537 105.9957004  32.7595093
  98.8497599 104.7485133  33.2502202 109.5581687  99.7761707  23.7072995
 110.3927291  99.3442905  23.5250470 109.3966030  99.6043720  24.6349890
 109.2127579  96.2793820  25.0729335 109.1576383  96.1138091  24.1317779
 108.5873635  96.9869853  25.2291524  94.0020094  91.5161884  38.8990757
  94.6478958  91.0060838  39.3877982  93.7937245  92.2530566  39.4734182
 102.5223705  85.7801929  24.6514653 102.5102375  86.7243769  24.8082924
 103.4147127  85.5972074  24.3574114 100.6959667 105.7039833  36.0772331
 101.5986913 105.7363443  36.3938826 100.4697037 104.7740284  36.0918667
 102.4513269 104.4570819  32.7382410 101.5008900 104.4572681  32.6246782
 102.7545755 103.7103554  32.2218444 106.3375824  82.3744706  28.9060590
 105.5708220  81.8203192  29.0517272 106.7486529  82.4466574  29.7674742
 118.1865962 110.2931358  33.8028172 118.8244372 110.1738105  33.0991512
 118.0686805 111.2412202  33.8616124 114.9955669 110.2458786  33.7389697
 114.6574180 110.1299851  32.8510232 115.8645437 109.8449951  33.7190703
 110.8542484 112.0994262  29.7286588 110.2907349 112.0084199  28.9602876
 110.7394879 111.2794167  30.2089080 115.4775452 111.3993638  39.6975902
 115.4664092 111.0046436  38.8256406 115.6396091 110.6659710  40.2909674
 108.4006916 113.5945454  32.5670808 109.1928208 113.2536279  32.1517108
 108.6403566 113.7040429  33.4872962 110.3597670 112.8554367  25.4388187
 111.1328546 112.3083354  25.3001063 110.7123069 113.7198617  25.6502648
 112.1982713 114.1830749  38.6455086 111.9072579 115.0876380  38.5301753
 112.8339697 114.2247277  39.3599156 113.1238919 111.5607598  35.2356446
 113.7202492 111.3363620  34.5213409 113.1813891 110.8192343  35.8381894
 117.7407231 108.0182812  30.8781380 118.5270320 107.6002235  30.5271797
 118.0045935 108.9228904  31.0463029 123.1415658 107.9558045  31.7814359
 123.8740830 107.3857262  32.0152188 122.3855014 107.5679645  32.2220864
 112.4160237 110.9175139  25.2731012 112.2996495 110.2420043  25.9412096
 112.5262497 110.4307513  24.4563165 114.7591778 110.3785286  28.9777701
 114.3949985 109.8515907  29.6890623 115.6158893 109.9883755  28.8044187
 120.6641078 101.6679619  36.2408967 120.3324403 102.5375030  36.0170182
 120.0686692 101.3515903  36.9202998 114.3997265 105.4075186  23.9739050
 114.5671667 106.2755422  24.3409521 114.2094434 105.5702468  23.0500339
 117.1572598 113.8692165  35.6404880 116.8573321 114.7717204  35.5320687
 116.8123657 113.6024348  36.4926033 110.6085079 110.3205962  31.6741584
 109.6835576 110.1882176  31.8819276 110.8569492 111.1000181  32.1711527
 120.5569742 106.3874705  33.3202317 119.6486619 106.3190114  33.0261078
 120.5057337 106.8646650  34.1484143 114.3786485 107.8632844  24.9585716
 114.2586111 108.3089894  25.7971197 113.6839074 108.2118161  24.3999255
 107.9693890 109.9639235  32.5085374 108.0986271 110.2173714  33.4224785
 107.2891342 110.5566943  32.1890029 114.6310607 107.8064351  41.2637215
 113.8543941 108.3658271  41.2540079 115.2701170 108.2921134  41.7852085
 122.4231388 104.5891144  35.0980191 121.7805768 104.8823677  34.4519986
 121.9186316 104.4744064  35.9033388 112.8856980 110.6149804  40.8255182
 113.6271664 111.1534848  40.5490005 112.1793965 111.2416093  40.9826733
 118.3612319 112.7578945  39.4227343 118.7695675 112.3161355  38.6781975
 117.6389581 112.1831572  39.6761536 114.7143389 107.6951551  36.7960900
 115.5604584 108.1190965  36.9395549 114.6542027 107.0385176  37.4899463
 118.6841134 113.3180135  33.1779632 118.0549996 113.4825849  32.4755700
 118.2966796 113.7321745  33.9490596 122.5630366 114.2534573  30.5323996
 121.8781404 114.6333474  29.9821029 122.6474215 114.8629900  31.2655944
 117.8642835 105.3555920  38.4542074 117.6203766 106.1097980  37.9176349
 118.1402765 105.7341267  39.2889321 119.8181297 111.8994532  37.1319339
 120.0298193 112.5426292  36.4553720 119.7711046 111.0656849  36.6641269
 117.4207526 104.5112353  34.0355911 116.5592005 104.8093606  34.3272649
 117.4469961 104.7282752  33.1036944 114.2369096 113.0554543  30.4429717
 114.7007441 113.3342246  29.6534340 113.9725894 112.1537988  30.2602808
 111.1293177 112.6026025  33.3809480 111.6994534 113.0313293  32.7426965
 111.7201289 112.3208610  34.0793666 113.1737982 109.1777696  27.2519282
 113.8762025 109.6298739  27.7193209 112.8418610 108.5361515  27.8799175
 111.6218343 107.7689452  41.6270492 110.9917004 108.4505733  41.8605888
 111.5154431 107.6572534  40.6823630 106.9163316 107.4361248  32.5536416
 106.1262370 107.6918777  32.0776526 107.4074563 108.2509586  32.6588456
 120.9327125 114.7766488  35.3041697 121.7544569 114.3746675  35.0224378
 120.9289528 114.6734722  36.2557812 108.8678061 107.8005828  29.5119893
 108.0709224 107.9124522  30.0303388 108.6403653 108.1392480  28.6460783
 114.6983729 114.3250531  37.4602407 114.7628161 114.7870938  38.2960579
 113.9894653 113.6947896  37.5884717 105.2001019 107.6891739  34.9851407
 105.4509057 108.5738749  35.2508983 105.7360567 107.5096340  34.2126498
 129.0233118 111.1205236  31.6526668 128.2696827 110.5512634  31.4970673
 129.1580660 111.0867900  32.5997303 110.8999086 102.0710218  43.9895743
 110.5066032 101.5176417  44.6643387 111.7165226 102.3820797  44.3802260
 107.8661144 113.5094076  27.9009313 108.3785664 114.3037327  28.0514877
 108.5183857 112.8120367  27.8342914 109.6756029 116.6259833  29.9832066
 109.8522657 117.5477797  29.7953050 110.4712862 116.3118252  30.4126446
 113.8167047 103.4868097  41.5815999 114.5576760 104.0875250  41.5020462
 114.0484970 102.7445735  41.0234042 108.9608385 108.6724465  39.8594229
 108.8461900 107.7709722  40.1601328 108.1052903 108.9188161  39.5079045
 116.0400223 116.6142205  41.4581730 115.5964077 115.8278583  41.1402634
 116.7017436 116.8021355  40.7925620 110.7987344 118.1438006  35.9842408
 111.3494769 118.0155070  35.2119402 109.9598820 118.4432895  35.6337301
 118.1381461 116.8945005  39.4863131 118.1199936 117.7153886  38.9943400
 119.0601381 116.7699080  39.7113272 114.5954515 114.4089134  40.3286639
 115.1282852 113.6477422  40.0985947 114.0668596 114.1162786  41.0710794
 117.7624210  99.5149200  35.8580281 117.4188479 100.4050842  35.7819392
 118.1303173  99.3250858  34.9949866 105.8310061 111.8382731  28.6768883
 106.6685283 112.2479739  28.4602591 106.0088328 110.8982173  28.6469077
 115.3121604 104.3507512  29.4237954 114.4563200 103.9614362  29.2443593
 115.7248556 104.4299473  28.5637740 116.8420750 101.8853855  33.8229514
 116.3385546 101.8483991  33.0097319 117.1351357 102.7946598  33.8826171
 113.0863636 101.9692585  32.8295696 113.9516633 101.7735394  32.4701585
 113.1541145 101.7402937  33.7565053 117.5160796 107.3784903  26.1912497
 117.2110931 107.6931053  27.0422640 118.4691238 107.4566323  26.2339830
 115.9607228 113.5375127  27.8405451 115.4328589 112.8027886  27.5278689
 115.4594730 114.3149803  27.5945420 120.9400074 111.7324147  32.9572498
 120.2823748 112.4223409  33.0452626 121.7440473 112.1220579  33.3006484
 110.6925955 104.1994793  30.2012063 111.2669707 103.9769974  29.4685256
 111.2796938 104.2683487  30.9540664 119.7505533 110.0868520  31.0076439
 120.2637414 110.7198512  31.5098149 120.4006756 109.4869715  30.6419799
 111.0195542 106.2299254  24.2207948 110.1832855 106.5673941  24.5417223
 110.8800312 106.0948234  23.2835085 112.9948623 101.0736042  28.9287132
 112.3413035 100.7585059  28.3043747 112.9529097 100.4511782  29.6546955
 116.2286363 107.5617975  33.2534780 115.3108925 107.7832922  33.0956468
 116.6446507 107.6364286  32.3946487 117.0121411 108.9609391  28.3837460
 117.7593230 109.4730788  28.0744582 117.2813001 108.6393444  29.2441854
 119.4600248 105.9966507  30.3656249 118.7223005 105.4843894  30.6966492
 119.7127022 105.5566889  29.5539526 119.5611876  98.7742759  30.9598019
 119.8670752  97.9140123  30.6723934 120.2864480  99.3660380  30.7597013
 105.8536232 109.1773446  29.3479617 105.6560632 108.5842807  28.6230683
 105.2982896 108.8725656  30.0655555 113.8332955 109.0696552  31.4674210
 113.8881565 108.1170389  31.3916686 113.0224157 109.2255992  31.9515508
 111.7725315 107.6873612  29.2264589 110.9593181 107.9867783  29.6329781
 112.2684310 107.2929301  29.9439071 113.9233893 117.6831369  31.1598853
 113.8810072 117.9092215  30.2307385 114.8396592 117.4494744  31.3084654
 117.3699527 108.1515437  38.0579482 117.7248915 108.3786910  38.9173948
 118.0171658 108.4833813  37.4356738 111.2639390 105.2591968  34.8425823
 111.9038769 105.1180727  34.1448787 110.4316921 104.9726481  34.4664425
 123.1266644 113.3410400  33.7740083 123.5603150 113.2485689  34.6223137
 123.8398224 113.3167900  33.1360099 112.0399694 114.5594398  30.9560816
 112.8340292 114.0644718  30.7543391 111.3291386 114.0312261  30.5928522
 116.8594538 116.9412494  35.3073184 116.9131561 117.5103430  36.0750899
 115.9909320 117.1114379  34.9427221 108.3482457 108.7037480  27.0320569
 107.4180046 108.6421935  27.2490531 108.4439929 108.1813433  26.2357210
 108.2668007 105.2292293  29.6198810 108.5274824 106.1437626  29.5107971
 109.0885179 104.7616735  29.7695423 109.7392932 106.6430050  36.7897635
 110.4115985 106.4347412  36.1410284 108.9122718 106.4452136  36.3502867
 123.9882193 113.3834100  36.3072968 124.1818083 114.2879911  36.5532243
 123.8882811 112.9241519  37.1411553 115.6418504 103.2691991  38.8063296
 114.9946419 103.9681940  38.7127772 116.4119519 103.7028135  39.1739544
 119.0497302 113.5340843  41.8813849 118.8982808 113.3051395  40.9643933
 119.0401981 114.4911444  41.8945194 115.8182638 111.1072756  36.8660115
 116.7474698 111.2583915  36.6929083 115.3973668 111.1956776  36.0108762
 114.6170970 115.1323420  34.6358653 114.4782056 114.7642205  35.5084591
 113.8285566 115.6471060  34.4642611 116.1676185 114.5105023  32.0247491
 115.8326018 114.4705793  32.9205141 115.6680131 113.8449739  31.5517901
 110.1420429 109.9172653  37.5500072 110.0040227 109.1852892  38.1511611
 111.0525353 109.8281553  37.2684260 112.7702730 109.6292612  37.0383752
 113.4802348 108.9885804  36.9970370 112.7272038 109.8805507  37.9609932
 120.7589508 116.5659965  39.9590331 120.7002055 115.8819186  39.2920914
 121.1609027 117.3078956  39.5070957 111.4831664 106.6157830  38.8579391
 110.9469021 106.1648569  39.5100987 110.8948372 106.7503739  38.1149855
 109.7780207 123.3821879  32.7524050 110.0176805 124.0140404  33.4303068
 108.9349404 123.0309919  33.0389409 110.8933923 106.0746481  21.4205855
 110.0163389 105.9535282  21.0568101 111.3691676 105.2832560  21.1684743
 120.7606916 114.5299549  38.1904311 119.8733694 114.1925471  38.3130709
 121.3305467 113.7982581  38.4273076 102.4136063 110.8623641  31.5147362
 103.1007103 110.5485371  30.9268377 102.2584192 111.7665006  31.2414613
 107.2170785 105.7513838  35.9432386 107.1328974 105.1439507  35.2082796
 106.3953491 106.2422856  35.9441882 114.2908069 119.1901002  35.1565554
 114.2178241 119.9955973  35.6684858 113.8485462 119.3892968  34.3313575
 117.3894499 104.2367401  31.3102581 117.8863198 103.4837364  30.9903651
 116.6181480 104.2731718  30.7445790 125.2424256 109.9407767  32.9520872
 125.2314132 110.8232482  32.5814805 124.3741636 109.5879318  32.7575409
 116.7506753 119.0887836  37.3123712 117.4634725 119.7235301  37.2399614
 116.2596781 119.1851702  36.4963714 118.4724280 112.9939088  28.8841004
 117.5380558 113.1140551  28.7145708 118.6500948 112.0911555  28.6201014
 113.9729468 106.3784784  31.0374265 113.6027255 105.8255825  31.7255171
 114.4688560 105.7742918  30.4849265 121.8596831 108.8356408  29.4191038
 122.3257283 109.6684399  29.3451341 122.3104331 108.3701389  30.1236297
 111.8018666 116.8382279  38.1329283 112.5028126 117.4718762  38.2858677
 111.3313781 117.1797011  37.3724922 119.8313494 101.2036995  33.4581940
 118.9176573 101.4341222  33.6264146 120.2606595 101.2875439  34.3095972
 119.6019952 109.3926887  35.9581834 118.9491402 109.6402794  35.3034286
 119.9800332 108.5791025  35.6244311 115.6507525 110.1346698  42.4447871
 114.9748162 110.0340827  43.1150246 116.4735159 109.9785912  42.9083868
 107.3986384 116.3718634  35.0660386 107.9839821 115.6262322  35.1988290
 107.2011223 116.6822591  35.9497050 110.2525039 119.4069882  30.0822828
 109.5835415 119.8916009  29.5986868 110.1137909 119.6539102  30.9966207
 101.9904039 108.9424235  33.7864829 102.0288138 108.4087825  34.5801947
 101.4844332 108.4159440  33.1675806 114.3930308 121.4413625  36.6805487
 114.9448616 121.6045247  37.4454572 114.7336501 122.0318063  36.0085511
 109.3694801 103.7888775  37.2827371 109.4336128 104.6503606  36.8704769
 109.3061921 103.1762777  36.5499730 108.8447074 105.8611908  40.9300406
 109.4719113 105.4788985  41.5437930 107.9874993 105.6426110  41.2956098
 119.2441182 116.2674883  42.5354141 119.7881086 116.8804841  42.0409096
 118.6628027 116.8254461  43.0521154 105.6212617 107.6688337  26.8618760
 105.9166058 106.7599015  26.8085814 104.7200652 107.6476076  26.5399763
 117.5298695 119.3895601  33.6669169 117.4049835 118.5885341  33.1580114
 118.1877786 119.8841794  33.1783139 109.1506864 105.7444333  32.8446309
 108.4293449 106.3580301  32.7053782 109.9400119 106.2802098  32.7662955
 119.5933604 117.1904621  35.2948719 118.6463939 117.0709972  35.2227046
 119.9416377 116.3027119  35.3774980 111.9533177 103.0798760  39.1186961
 112.4767579 103.3261056  39.8813270 111.7345510 103.9118795  38.6990098
 107.3500458 105.3502434  26.9858086 107.0213164 104.4699813  26.8033191
 107.7039829 105.2950103  27.8734475 116.5980037 116.9857337  31.4953071
 116.4504999 116.0574044  31.6760641 117.4233530 117.0077428  31.0110146
 110.4642281 105.6375404  27.3533563 110.8038354 106.1661325  26.6312172
 110.9114402 105.9755810  28.1292130 120.2014159 117.8085896  32.5817944
 121.1260706 117.6028757  32.4442395 120.0329462 117.5602297  33.4907285
 113.1585722 104.0212455  36.8036631 112.8182542 103.2220268  37.2057311
 112.4524728 104.3214166  36.2313464 113.8102194 101.1061767  35.2563954
 114.6328263 100.6322245  35.1342845 114.0540257 101.8852251  35.7562641
 112.4510428 104.1350026  25.5526856 113.1718791 104.5131279  25.0490573
 111.8275733 104.8538903  25.6561834 116.5941551 104.8395175  26.4885188
 116.8105166 105.7219813  26.1874017 116.1135618 104.4481388  25.7590830
 111.3340773 107.7980888  33.0655933 111.1885353 108.1121191  33.9580214
 110.8565976 108.4165788  32.5126832 113.1937156 104.7883436  33.1136822
 113.1798724 103.8924529  32.7769120 113.9109584 104.7954100  33.7475109
 115.0463286 105.2220776  35.1589950 114.7881064 106.1437847  35.1574280
 114.5148327 104.8251211  35.8490414 105.8086435 110.3386232  36.0043594
 105.2639903 111.1146040  36.1363868 106.6865785 110.6857037  35.8462716
 112.5974051 103.6697816  28.3824393 112.7189963 102.7414462  28.5815280
 112.3076094 103.6836502  27.4702708 115.4665242 101.3552727  31.5191112
 115.4886939 101.4192060  30.5643092 115.8833301 100.5157235  31.7131619
 125.8448866 111.0907986  29.5570335 126.2880012 110.3415311  29.1589458
 124.9675377 111.0818123  29.1744067 106.5952457 109.4656129  38.8973751
 105.8534193 109.6138764  39.4838381 106.2745201 109.7264394  38.0340500
 114.5396119 119.0072107  38.6954141 114.8483246 118.7621254  39.5676841
 115.3371601 119.2118745  38.2073011 114.5616731 121.1610016  30.9259518
 114.1221722 120.6686395  31.6192374 115.3124848 120.6182984  30.6851593
 107.0409070 117.3521557  30.9284146 107.8667090 117.0525329  30.5482789
 106.6903122 116.5829180  31.3773934 112.0090604 116.7048026  32.9981819
 111.3870613 116.0418731  32.6984047 112.6795470 116.7309157  32.3155467
 105.2417675 115.2707884  31.8873079 104.4049584 114.8430058  31.7057080
 105.2141321 115.4640327  32.8243870 112.0815131 105.1829814  42.5914325
 112.1303287 106.0591936  42.2092095 112.6237645 104.6407207  42.0185968
 122.5669977 115.7270937  41.8715462 121.7765520 115.7095076  41.3319962
 122.3303331 116.2659231  42.6264499 122.6867852 112.5763403  39.1848191
 122.7365857 112.4113411  40.1263714 122.5781775 111.7090662  38.7946072
 119.9771614 108.5594331  40.5007498 120.8781477 108.4200796  40.2091495
 120.0519589 108.7248786  41.4405675 114.3114419 105.9361186  39.3460684
 113.4417729 106.2294752  39.0743272 114.5473900 106.5201631  40.0667948
 124.1886049 114.9960345  39.4290212 123.8970857 115.3590325  40.2653673
 123.5758180 114.2827353  39.2503544 125.3881731 112.5613224  31.9492783
 126.2228622 113.0003029  32.1130343 125.5240860 112.0851878  31.1301028
 122.4373237 110.1192959  37.8970270 122.9127358 110.3120606  37.0889122
 121.5138802 110.1752145  37.6513654 109.3256743 111.2817127  27.4801349
 109.0802785 110.3779457  27.6781559 109.4952658 111.2834277  26.5380827
 117.0153453 102.1540803  36.8626104 117.5335397 102.8901830  36.5372593
 116.6608586 102.4604796  37.6972863 108.5952391 107.0145484  24.9787510
 107.9021636 107.0889839  24.3227546 108.3504143 106.2505828  25.5009027
 117.2666047  98.5741085  32.3827001 117.5467801  97.9064275  33.0087427
 118.0516654  98.7670181  31.8701665 121.1374906 106.9958719  36.1298576
 122.0892329 107.0956817  36.1510800 120.9678356 106.2036988  36.6396660
 119.1589285 104.0814303  36.3157977 118.5639217 104.3619315  35.6204466
 118.8738982 104.5708204  37.0874718 123.6162984 110.2164839  35.2440876
 123.5839304 109.2780840  35.4300559 124.2263607 110.2948876  34.5106701
 123.7657472 107.0075883  35.2899159 123.2496521 106.2234339  35.1029088
 124.6497421 106.6794599  35.4545678 121.4268199 100.7516898  31.2494971
 121.2293020 100.4431986  32.1338303 122.0367905 101.4778537  31.3792901
 129.4339533 111.2780846  34.3846912 130.1642922 111.0166134  34.9454616
 128.8246479 110.5409568  34.4248980 127.5154831 109.4188709  34.9821364
 126.7887994 109.2844673  34.3737855 127.1002117 109.7265537  35.7878082
 115.3385007 113.1378638  42.7468737 116.2588016 113.3157237  42.9408783
 115.3034590 112.1934684  42.5948436 104.5567172 108.3317232  31.6722011
 104.2369956 107.4782540  31.3796385 104.0100600 108.5465810  32.4279979
 108.3347080 111.0479673  35.3891518 108.5533089 111.9796781  35.4079552
 108.7472853 110.6887647  36.1746322 115.2551297 101.5547758  27.3767206
 114.4452026 101.2094843  27.7522452 115.9435714 101.2455302  27.9654818
 117.1841846 100.6325805  28.9991503 117.7372884 101.0521258  29.6581526
 117.4211932  99.7061553  29.0414459 113.2074945 106.6212879  44.7794267
 113.1071672 107.5707236  44.7106358 112.9896487 106.2931118  43.9070337
 112.4088016 103.8697804  21.3634944 113.2707180 104.1952702  21.6230761
 112.5938360 103.0829300  20.8508010 104.4255432 111.9520143  33.6415133
 103.7318903 111.5374096  33.1285087 105.1728423 111.9940680  33.0448552
 120.5620653 102.7426330  28.5070167 119.9819322 103.4011134  28.1248220
 120.2956585 101.9203675  28.0957585 119.0124219 102.1431388  30.7091487
 119.5123997 102.2547922  29.9005806 119.6559827 101.8392441  31.3492296
 113.0706215 110.0510017  43.5959328 112.5873297 110.8510378  43.8023217
 113.1567154 110.0617962  42.6426772 106.3392175 111.8838397  31.5181148
 106.3162863 111.9826084  30.5663031 106.6492811 112.7303548  31.8398314
 108.9979552 113.9414552  35.6327762 109.9522806 113.9098495  35.5657694
 108.7992076 113.4805176  36.4477988 109.5878935 112.5115668  38.1998560
 110.4071824 113.0059747  38.2233397 109.8615742 111.5947636  38.1716127
 119.3445531 104.9026421  27.5626515 118.4571386 105.1876071  27.3446710
 119.7599520 104.7420184  26.7153792 122.6960067 104.9272942  31.2780855
 123.4720457 105.4169394  31.5505471 121.9708201 105.3530996  31.7352724
 125.1332626 105.6400561  32.3354795 125.7277116 105.3996297  31.6248103
 125.2059209 104.9207691  32.9628332 107.3529781 119.4834172  32.6497960
 107.2184249 118.7234573  32.0835958 106.9361843 120.2075072  32.1826749
 119.3186554 110.4180956  27.7776806 119.2621756 110.8749508  26.9384438
 119.8714897 109.6571641  27.5999648 123.1291360 106.2070688  28.6026925
 122.8728295 105.8067324  29.4335133 122.5044228 106.9214482  28.4777064
 127.4403698 108.9466762  31.1098216 126.8803256 109.0159951  31.8829778
 126.8347202 108.7707746  30.3897713 110.5098907 120.3803489  32.8616403
 110.3931291 121.3248921  32.7595093 109.6891353 120.0777050  33.2502202
 104.8413849 106.8453802  38.8990757 105.4872712 106.3352756  39.3877982
 104.6331000 107.5822484  39.4734182 117.3667241 113.9134650  44.3982897
 118.2358401 114.0875302  44.0369532 116.8873992 114.7329066  44.2758627
 113.3617459 101.1093847  24.6514653 113.3496129 102.0535687  24.8082924
 114.2540881 100.9263992  24.3574114 111.5353421 121.0331751  36.0772331
 112.4380668 121.0655361  36.3938826 111.3090791 120.1032202  36.0918667
 113.2907023 119.7862737  32.7382410 112.3402654 119.7864599  32.6246782
 113.5939509 119.0395472  32.2218444 117.1769579  97.7036623  28.9060590
 116.4101975  97.1495110  29.0517272 117.5880284  97.7758492  29.7674742
 109.1811340 103.9921419  42.9965771 110.0442801 103.6358224  43.2069096
 108.6076750 103.6535314  43.6841175 126.3169206 126.7285555  39.6975902
 126.3057847 126.3338354  38.8256406 126.4789845 125.9951628  40.2909674
 131.5034833 116.9971537  36.2408967 131.1718157 117.8666948  36.0170182
 130.9080446 116.6807821  36.9202998 125.4704362 123.1356268  41.2637215
 124.6937696 123.6950189  41.2540079 126.1094925 123.6213051  41.7852085
 123.7250734 125.9441722  40.8255182 124.4665418 126.4826766  40.5490005
 123.0187720 126.5708011  40.9826733 125.5537144 123.0243469  36.7960900
 126.3998339 123.4482883  36.9395549 125.4935781 122.3677093  37.4899463
 128.7036589 120.6847837  38.4542074 128.4597521 121.4389898  37.9176349
 128.9796520 121.0633185  39.2889321 122.4612098 123.0981370  41.6270492
 121.8310758 123.7797651  41.8605888 122.3548186 122.9864452  40.6823630
 116.0394773 123.0183656  34.9851407 116.2902812 123.9030666  35.2508983
 116.5754322 122.8388258  34.2126498 121.7392841 117.4002136  43.9895743
 121.3459786 116.8468334  44.6643387 122.5558981 117.7112714  44.3802260
 124.6560802 118.8160015  41.5815999 125.3970515 119.4167168  41.5020462
 124.8878724 118.0737653  41.0234042 119.8002140 124.0016382  39.8594229
 119.6855655 123.1001639  40.1601328 118.9446657 124.2480079  39.5079045
 125.4348270 129.7381052  40.3286639 125.9676606 128.9769340  40.0985947
 124.9062351 129.4454704  41.0710794 128.6017965 114.8441118  35.8580281
 128.2582234 115.7342760  35.7819392 128.9696927 114.6542775  34.9949866
 123.9257391 117.2984503  32.8295696 124.7910388 117.1027311  32.4701585
 123.9934900 117.0694855  33.7565053 122.1033145 120.5883885  34.8425823
 122.7432524 120.4472644  34.1448787 121.2710675 120.3018399  34.4664425
 120.5786686 121.9721968  36.7897635 121.2509740 121.7639330  36.1410284
 119.7516473 121.7744054  36.3502867 126.4812258 118.5983908  38.8063296
 125.8340173 119.2973858  38.7127772 127.2513274 119.0320052  39.1739544
 129.8891056 128.8632761  41.8813849 129.7376563 128.6343312  40.9643933
 129.8795736 129.8203362  41.8945194 120.9814184 125.2464571  37.5500072
 120.8433982 124.5144809  38.1511611 121.8919107 125.1573471  37.2684260
 123.6096484 124.9584530  37.0383752 124.3196103 124.3177722  36.9970370
 123.5665792 125.2097425  37.9609932 122.3225418 121.9449748  38.8579391
 121.7862775 121.4940486  39.5100987 121.7342127 122.0795657  38.1149855
 118.0564539 121.0805755  35.9432386 117.9722728 120.4731425  35.2082796
 117.2347246 121.5714774  35.9441882 126.4901280 125.4638615  42.4447871
 125.8141917 125.3632745  43.1150246 127.3128914 125.3077829  42.9083868
 112.8297793 124.2716152  33.7864829 112.8681893 123.7379743  34.5801947
 112.3238086 123.7451358  33.1675806 120.2088556 119.1180693  37.2827371
 120.2729882 119.9795524  36.8704769 120.1455676 118.5054694  36.5499730
 119.6840828 121.1903825  40.9300406 120.3112867 120.8080903  41.5437930
 118.8268747 120.9718027  41.2956098 122.7926932 118.4090677  39.1186961
 123.3161333 118.6552974  39.8813270 122.5739265 119.2410712  38.6990098
 123.9979477 119.3504373  36.8036631 123.6576297 118.5512186  37.2057311
 123.2918483 119.6506083  36.2313464 124.6495948 116.4353685  35.2563954
 125.4722018 115.9614163  35.1342845 124.8934012 117.2144169  35.7562641
 125.8857041 120.5512694  35.1589950 125.6274819 121.4729764  35.1574280
 125.3542081 120.1543128  35.8490414 116.6480189 125.6678150  36.0043594
 116.1033657 126.4437958  36.1363868 117.5259539 126.0148954  35.8462716
 117.4346211 124.7948046  38.8973751 116.6927947 124.9430682  39.4838381
 117.1138955 125.0556312  38.0340500 122.9208886 120.5121731  42.5914325
 122.9697041 121.3883854  42.2092095 123.4631400 119.9699124  42.0185968
 130.8165369 123.8886249  40.5007498 131.7175231 123.7492714  40.2091495
 130.8913343 124.0540704  41.4405675 125.1508174 121.2653104  39.3460684
 124.2811483 121.5586670  39.0743272 125.3867654 121.8493549  40.0667948
 127.8547208 117.4832721  36.8626104 128.3729152 118.2193748  36.5372593
 127.5002341 117.7896714  37.6972863 129.9983040 119.4106220  36.3157977
 129.4032972 119.6911233  35.6204466 129.7132736 119.9000121  37.0874718
 126.1778762 128.4670556  42.7468737 127.0981771 128.6449155  42.9408783
 126.1428345 127.5226601  42.5948436 124.0468699 121.9504796  44.7794267
 123.9465426 122.8999153  44.7106358 123.8290241 121.6223035  43.9070337
 123.9099969 125.3801935  43.5959328 123.4267051 126.1802295  43.8023217
 123.9960908 125.3909880  42.6426772 120.4272689 127.8407586  38.1998560
 121.2465578 128.3351665  38.2233397 120.7009497 126.9239554  38.1716127
 115.6807603 122.1745720  38.8990757 116.3266467 121.6644674  39.3877982
 115.4724754 122.9114401  39.4734182 128.2060995 129.2426567  44.3982897
 129.0752155 129.4167220  44.0369532 127.7267747 130.0620984  44.2758627
 120.0205094 119.3213337  42.9965771 120.8836556 118.9650142  43.2069096
 119.4470505 118.9827232  43.6841175  61.2806680  11.7596172  26.4221209
  61.2695321  11.3648970  25.5501713  61.4427320  11.0262245  27.0154980
  58.0013941  14.5433284  25.3700393  57.7103807  15.4478915  25.2547059
  58.6370926  14.5849811  26.0844463  62.9603827  14.2294699  22.3650187
  62.6604550  15.1319738  22.2565994  62.6154886  13.9626882  23.2171340
  60.4341836   8.1666885  27.9882521  59.6575170   8.7260805  27.9785386
  61.0732399   8.6523668  28.5097391  58.6888208  10.9752338  27.5500488
  59.4302893  11.5137382  27.2735312  57.9825194  11.6018627  27.7072040
  64.1643548  13.1181479  26.1472650  64.5726904  12.6763889  25.4027282
  63.4420810  12.5434106  26.4006843  65.6212526  12.2597066  23.8564646
  65.8329421  12.9028826  23.1799027  65.5742274  11.4259383  23.3886576
  66.7358354  15.1369022  22.0287003  67.5575798  14.7349209  21.7469685
  66.7320757  15.0337256  22.9803119  60.5014958  14.6853065  24.1847714
  60.5659390  15.1473472  25.0205886  59.7925881  14.0550430  24.3130024
  61.8431452  16.9744739  28.1827036  61.3995306  16.1881118  27.8647941
  62.5048665  17.1623890  27.5170927  56.6018573  18.5040541  22.7087715
  57.1525998  18.3757604  21.9364709  55.7630049  18.8035430  22.3582607
  63.9412690  17.2547539  26.2108437  63.9231165  18.0756420  25.7188707
  64.8632610  17.1301614  26.4358579  60.3985744  14.7691668  27.0531946
  60.9314081  14.0079957  26.8231254  59.8699825  14.4765320  27.7956100
  68.9297872  13.7012934  20.4985390  69.3634379  13.6088223  21.3468444
  69.6429453  13.6770434  19.8605406  62.6625767  17.3015028  22.0318490
  62.7162790  17.8705964  22.7996206  61.7940549  17.4716913  21.6672527
  69.7913422  13.7436634  23.0318275  69.9849312  14.6482445  23.2777550
  69.6914040  13.2844053  23.8656860  64.8528531  13.8943377  28.6059156
  64.7014037  13.6653929  27.6889239  64.8433210  14.8513979  28.6190501
  66.5620737  16.9262500  26.6835637  66.5033283  16.2421720  26.0166221
  66.9640256  17.6681490  26.2316263  55.5811436  23.7424414  19.4769356
  55.8208034  24.3742938  20.1548375  54.7380633  23.3912454  19.7634716
  66.5638145  14.8902084  24.9149617  65.6764923  14.5528005  25.0376016
  67.1336696  14.1585115  25.1518383  60.0939298  19.5503536  21.8810860
  60.0209469  20.3558508  22.3930165  59.6516691  19.7495502  21.0558882
  62.5537981  19.4490370  24.0369019  63.2665954  20.0837835  23.9644920
  62.0628010  19.5454236  23.2209021  57.6049895  17.1984814  24.8574590
  58.3059354  17.8321296  25.0103984  57.1345010  17.5399545  24.0970229
  61.4538754  10.4949232  29.1693177  60.7779391  10.3943361  29.8395552
  62.2766388  10.3388446  29.6329174  60.1961537  21.8016159  23.4050793
  60.7479845  21.9647781  24.1699878  60.5367730  22.3920597  22.7330818
  65.0472411  16.6277417  29.2599448  65.5912315  17.2407375  28.7654403
  64.4659256  17.1856995  29.7766461  63.3329924  19.7498135  20.3914475
  63.2081064  18.9487875  19.8825421  63.9909015  20.2444328  19.9028445
  65.3964832  17.5507155  22.0194026  64.4495168  17.4312506  21.9472352
  65.7447606  16.6629653  22.1020287  66.0045388  18.1688430  19.3063251
  66.9291935  17.9631291  19.1687702  65.8360691  17.9204831  20.2152592
  60.3427348  19.3674641  25.4199448  60.6514475  19.1223788  26.2922147
  61.1402830  19.5721280  24.9318318  68.3701206  16.0873471  28.5960769
  67.5796749  16.0697610  28.0565268  68.1334560  16.6261765  29.3509806
  68.4899081  12.9365937  25.9093498  68.5397086  12.7715945  26.8509020
  68.3813004  12.0693196  25.5191378  65.7802843   8.9196865  27.2252804
  66.6812706   8.7803330  26.9336802  65.8550817   9.0851320  28.1650982
  69.9917277  15.3562879  26.1535519  69.7002086  15.7192859  26.9898980
  69.3789409  14.6429887  25.9748851  68.2404466  10.4795494  24.6215577
  68.7158587  10.6723140  23.8134428  67.3170031  10.5354679  24.3758961
  69.4194212  10.5767373  21.9686182  69.3870533   9.6383374  22.1545866
  70.0294836  10.6551410  21.2352007  75.2370762  11.6383380  21.1092219
  75.9674151  11.3768668  21.6699922  74.6277708  10.9012102  21.1494287
  73.3186059   9.7791243  21.7066670  72.5919223   9.6447208  21.0983162
  72.9033346  10.0868071  22.5123388  61.1416236  13.4981172  29.4714043
  62.0619245  13.6759771  29.6654090  61.1065819  12.5537218  29.3193743
  59.0106174   6.9815413  31.5039573  58.9102901   7.9309770  31.4351664
  58.7927716   6.6533652  30.6315643  58.8737444  10.4112552  30.3204635
  58.3904525  11.2112912  30.5268524  58.9598383  10.4220497  29.3672079
  63.1698470  14.2737184  31.1228204  64.0389629  14.4477836  30.7614839
  62.6905221  15.0931601  31.0003933  57.3384650  21.3934285  22.8017638
  58.2411897  21.4257895  23.1184133  57.1122020  20.4634736  22.8163974
  74.8290946  25.9825810  20.5273479  75.4669355  25.8632557  19.8236819
  74.7111788  26.9306654  20.5861431  71.6380652  25.9353238  20.4635003
  71.2999163  25.8194303  19.5755538  72.5070420  25.5344403  20.4436010
  67.4967467  27.7888714  16.4531894  66.9332333  27.6978651  15.6848182
  67.3819863  26.9688619  16.9334387  72.1200435  27.0888090  26.4221209
  72.1089076  26.6940888  25.5501713  72.2821074  26.3554162  27.0154980
  65.0431899  29.2839906  19.2916115  65.8353191  28.9430730  18.8762414
  65.2828550  29.3934881  20.2118268  73.0767026  31.4559682  11.7646359
  72.4255006  32.0413762  11.3780373  73.8711389  31.9865877  11.8241397
  67.0022653  28.5448819  12.1633494  67.7753529  27.9977806  12.0246369
  67.3548052  29.4093068  12.3747955  68.8407696  29.8725201  25.3700393
  68.5497562  30.7770832  25.2547059  69.4764680  29.9141729  26.0844463
  69.7663903  27.2502050  21.9601753  70.3627475  27.0258072  21.2458716
  69.8238874  26.5086795  22.5627200  74.3832214  23.7077264  17.6026687
  75.1695303  23.2896687  17.2517104  74.6470918  24.6123356  17.7708335
  74.5542291  29.1450114  12.3015344  73.9188124  29.2184740  13.0136248
  74.2239698  29.7343713  11.6234423  79.7840641  23.6452497  18.5059665
  80.5165813  23.0751714  18.7397495  79.0279997  23.2574097  18.9466171
  71.4016761  26.0679738  15.7023008  71.0374968  25.5410359  16.4135929
  72.2583877  25.6778207  15.5289493  77.3066061  17.3574071  22.9654274
  76.9749386  18.2269482  22.7415489  76.7111675  17.0410355  23.6448304
  73.7997581  29.5586617  22.3650187  73.4998304  30.4611656  22.2565994
  73.4548641  29.2918800  23.2171340  67.2510062  26.0100414  18.3986891
  66.3260559  25.8776628  18.6064583  67.4994476  26.7894633  18.8956834
  77.1994725  22.0769157  20.0447624  76.2911602  22.0084566  19.7506385
  77.1482321  22.5541102  20.8729449  64.6118874  25.6533687  19.2330680
  64.7411255  25.9068166  20.1470092  63.9316325  26.2461395  18.9135335
  68.7818361  36.3230937  15.3321154  68.7042391  37.2738762  15.4109635
  68.1780004  35.9776810  15.9896081  71.2735591  23.4958803  27.9882521
  70.4968925  24.0552723  27.9785386  71.9126154  23.9815586  28.5097391
  79.0656371  20.2785595  21.8225498  78.4230751  20.5718129  21.1765293
  78.5611300  20.1638516  22.6278695  76.7196535  24.0248769  12.5111357
  77.6314391  24.2576155  12.3359055  76.2106182  24.6085813  11.9486436
  69.5281963  26.3044256  27.5500488  70.2696647  26.8429300  27.2735312
  68.8218948  26.9310545  27.7072040  75.0037303  28.4473396  26.1472650
  75.4120659  28.0055807  25.4027282  74.2814564  27.8726024  26.4006843
  71.3568373  23.3846003  23.5206207  72.2029568  23.8085417  23.6640856
  71.2967010  22.7279628  24.2144770  75.3266117  29.0074587  19.9024939
  74.6974980  29.1720301  19.2001007  74.9391779  29.4216197  20.6735903
  79.2055349  29.9429025  17.2569302  78.5206387  30.3227926  16.7066336
  79.2899198  30.5524352  17.9901250  74.5067818  21.0450372  25.1787380
  74.2628750  21.7992432  24.6421656  74.7827748  21.4235719  26.0134627
  76.4606281  27.5888984  23.8564646  76.6723176  28.2320744  23.1799027
  76.4136029  26.7551301  23.3886576  74.0632510  20.2006805  20.7601218
  73.2016989  20.4988058  21.0517956  74.0894944  20.4177204  19.8282251
  70.8794079  28.7448995  17.1675024  71.3432425  29.0236698  16.3779646
  70.6150877  27.8432440  16.9848114  67.7718160  28.2920477  20.1054787
  68.3419517  28.7207745  19.4672272  68.3626272  28.0103061  20.8038973
  69.8162965  24.8672148  13.9764589  70.5187008  25.3193191  14.4438515
  69.4843594  24.2255966  14.6044482  68.2643327  23.4583904  28.3515798
  67.6341987  24.1400185  28.5851195  68.1579415  23.3466986  27.4068937
  63.5588299  23.1255700  19.2781722  62.7687353  23.3813229  18.8021833
  64.0499546  23.9404038  19.3833763  77.5752109  30.4660939  22.0287003
  78.3969552  30.0641127  21.7469685  77.5714511  30.3629174  22.9803119
  65.5103044  23.4900279  16.2365199  64.7134208  23.6018974  16.7548695
  65.2828637  23.8286932  15.3706090  71.3408712  30.0144983  24.1847714
  71.4053145  30.4765390  25.0205886  70.6319636  29.3842348  24.3130024
  61.8426002  23.3786191  21.7096713  62.0934040  24.2633201  21.9754289
  62.3785550  23.1990792  20.9371805  85.6658102  26.8099688  18.3771975
  84.9121810  26.2407086  18.2215979  85.8005643  26.7762352  19.3242609
  71.0556730  31.6813090  14.0526694  70.9202405  32.5264626  14.4811542
  71.5966542  31.8832368  13.2892628  67.5424069  17.7604670  30.7141049
  67.1491015  17.2070869  31.3888694  68.3590210  18.0715249  31.1047567
  64.5086127  29.1988528  14.6254619  65.0210648  29.9931778  14.7760184
  65.1608840  28.5014819  14.5588221  66.3181012  32.3154285  16.7077372
  66.4947640  33.2372249  16.5198356  67.1137845  32.0012704  17.1371752
  70.4592030  19.1762549  28.3061306  71.2001744  19.7769702  28.2265768
  70.6909953  18.4340187  27.7479348  65.6033368  24.3618916  26.5839536
  65.4886884  23.4604174  26.8846634  64.7477886  24.6082613  26.2324352
  72.6825206  32.3036657  28.1827036  72.2389060  31.5173035  27.8647941
  73.3442420  32.4915807  27.5170927  67.4412327  33.8332458  22.7087715
  67.9919752  33.7049522  21.9364709  66.6023803  34.1327347  22.3582607
  74.7806444  32.5839457  26.2108437  74.7624920  33.4048338  25.7188707
  75.7026364  32.4593532  26.4358579  71.2379498  30.0983586  27.0531946
  71.7707835  29.3371874  26.8231254  70.7093579  29.8057238  27.7956100
  74.4049193  15.2043652  22.5825588  74.0613463  16.0945294  22.5064698
  74.7728156  15.0145310  21.7195173  62.4735044  27.5277183  15.4014190
  63.3110266  27.9374191  15.1847897  62.6513312  26.5876625  15.3714384
  74.3699476  25.1952263  11.0898023  73.8546099  25.9656868  11.3286410
  74.0976784  24.5217399  11.7131084  71.9546587  20.0401964  16.1483261
  71.0988183  19.6508814  15.9688900  72.3673539  20.1193925  15.2883047
  73.4845734  17.5748307  20.5474821  72.9810529  17.5378442  19.7342626
  73.7776341  18.4841050  20.6071477  69.7288620  17.6587037  19.5541003
  70.5941616  17.4629846  19.1946892  69.7966128  17.4297389  20.4810359
  79.3433750  27.9484618  13.0251196  78.5663193  27.6095777  12.5806358
  80.0225231  27.9537241  12.3506161  74.1585779  23.0679355  12.9157804
  73.8535915  23.3825504  13.7667947  75.1116221  23.1460775  12.9585137
  72.6032211  29.2269579  14.5650758  72.0753573  28.4922338  14.2523995
  72.1019714  30.0044255  14.3190726  77.5825057  27.4218599  19.6817804
  76.9248731  28.1117860  19.7697933  78.3865456  27.8115031  20.0251790
  76.3930516  25.7762972  17.7321746  76.9062398  26.4092964  18.2343456
  77.0431740  25.1764167  17.3665106  73.6552890  35.7547296  10.4882417
  72.9814589  36.0578993  11.0967375  74.0418712  36.5576376  10.1387874
  72.8711347  23.2512427  19.9780086  71.9533908  23.4727374  19.8201774
  73.2871490  23.3258738  19.1191794  73.6546394  24.6503843  15.1082767
  74.4018213  25.1625240  14.7989889  73.9237984  24.3287896  15.9687160
  71.9273045  27.1462384  12.0909721  71.0184264  26.8621417  12.1882191
  71.9568128  27.5661462  11.2313028  77.1592312  30.7568973  15.8600889
  76.7054639  29.9159883  15.9166079  76.5286279  31.3930372  16.1975669
  76.1025232  21.6860959  17.0901556  75.3647988  21.1738345  17.4211799
  76.3552005  21.2461341  16.2784833  75.6025251  32.5945470  16.7950707
  75.8948226  33.1550527  16.0763072  76.1123872  32.8874031  17.5503866
  76.2036859  14.4637211  17.6843325  76.5095736  13.6034575  17.3969240
  76.9289464  15.0554831  17.4842319  70.4757939  24.7591004  18.1919516
  70.5306548  23.8064841  18.1161993  69.6649141  24.9150443  18.6760815
  68.4150299  23.3768064  15.9509895  67.6018164  23.6762235  16.3575087
  68.9109293  22.9823753  16.6684377  70.5658877  33.3725821  17.8844160
  70.5235055  33.5986667  16.9552692  71.4821575  33.1389196  18.0329961
  74.0124510  23.8409889  24.7824789  74.3673898  24.0681362  25.6419255
  74.6596642  24.1728265  24.1602044  79.7422247  26.9628324  15.4874118
  79.6040146  27.1529920  14.5595307  79.3858466  27.7247707  15.9442169
  67.9064373  20.9486420  21.5671130  68.5463753  20.8075179  20.8694093
  67.0741904  20.6620933  21.1909732  79.7691627  29.0304851  20.4985390
  80.2028134  28.9380141  21.3468444  80.4823208  29.0062352  19.8605406
  68.6824677  30.2488850  17.6806123  69.4765276  29.7539170  17.4788698
  67.9716370  29.7206713  17.3173828  73.5019522  32.6306946  22.0318490
  73.5556544  33.1997882  22.7996206  72.6334303  32.8008831  21.6672527
  66.3817915  22.3324502  23.5142941  67.0540969  22.1241864  22.8655590
  65.5547702  22.1346588  23.0748174  80.6307176  29.0728552  23.0318275
  80.8243066  29.9774363  23.2777550  80.5307795  28.6135971  23.8656860
  72.2843487  18.9586443  25.5308602  71.6371402  19.6576392  25.4373079
  73.0544503  19.3922587  25.8984851  75.6922285  29.2235295  28.6059156
  75.5407791  28.9945847  27.6889239  75.6826965  30.1805896  28.6190501
  72.4607621  26.7967208  23.5905422  73.3899681  26.9478367  23.4174389
  72.0398652  26.8851228  22.7354069  71.2595953  30.8217872  21.3603960
  71.1207039  30.4536656  22.2329898  70.4710550  31.3365511  21.1887917
  71.8544105  35.9226968  12.7029496  72.0295861  35.4515012  13.5175119
  71.1676893  36.5492735  12.9310757  72.8101168  30.1999475  18.7492797
  72.4751001  30.1600245  19.6450447  72.3105114  29.5344191  18.2763208
  66.7845412  25.6067105  24.2745379  66.6465210  24.8747344  24.8756918
  67.6950336  25.5176005  23.9929566  69.4127713  25.3187064  23.7629058
  70.1227332  24.6780256  23.7215677  69.3697021  25.5699959  24.6855239
  77.4014492  32.2554417  26.6835637  77.3427038  31.5713638  26.0166221
  77.8034010  32.9973407  26.2316263  68.1256647  22.3052282  25.5824698
  67.5894004  21.8543020  26.2346294  67.5373355  22.4398191  24.8395162
  66.4205191  39.0716331  19.4769356  66.6601789  39.7034855  20.1548375
  65.5774387  38.7204371  19.7634716  77.4031899  30.2194001  24.9149617
  76.5158678  29.8819923  25.0376016  77.9730450  29.4877033  25.1518383
  59.0561046  26.5518093  18.2392669  59.7432086  26.2379823  17.6513684
  58.9009175  27.4559458  17.9659920  63.8595768  21.4408290  22.6677692
  63.7753957  20.8333959  21.9328102  63.0378475  21.9317308  22.6687189
  70.9333052  34.8795454  21.8810860  70.8603224  35.6850425  22.3930165
  70.4910446  35.0787419  21.0558882  70.7222832  34.1167224  15.3913682
  69.9390354  34.6588904  15.4851906  71.4215577  34.6341203  15.7907923
  74.0319482  19.9261853  18.0347887  74.5288182  19.1731815  17.7148958
  73.2606464  19.9626170  17.4691097  81.8849240  25.6302219  19.6766179
  81.8739116  26.5126934  19.3060112  81.0166619  25.2773770  19.4820716
  73.3931736  34.7782288  24.0369019  74.1059708  35.4129753  23.9644920
  72.9021765  34.8746154  23.2209021  75.1149263  28.6833540  15.6086311
  74.1805542  28.8035003  15.4391015  75.2925931  27.7806007  15.3446321
  70.6154451  22.0679236  17.7619572  70.2452238  21.5150277  18.4500477
  71.1113543  21.4637370  17.2094572  78.5021814  24.5250860  16.1436345
  78.9682266  25.3578851  16.0696647  78.9529315  24.0595841  16.8481603
  68.4443649  32.5276731  24.8574590  69.1453109  33.1613214  25.0103984
  67.9738764  32.8691463  24.0970229  76.5698045  30.8694681  13.1422497
  76.8457889  30.7551276  14.0516371  75.7002544  30.4712166  13.1034670
  76.4738477  16.8931447  20.1827246  75.5601557  17.1235674  20.3509453
  76.9031578  16.9769891  21.0341279  76.2444935  25.0821339  22.6827140
  75.5916386  25.3297246  22.0279593  76.6225315  24.2685477  22.3489617
  73.2052109  35.1181032  16.7855310  73.3874504  34.3002688  17.2483063
  74.0285095  35.3348724  16.3480200  73.5394275  34.0449217  14.0470359
  74.0682041  33.5341672  13.4340521  73.8022494  33.7291747  14.9115892
  72.2932508  25.8241150  29.1693177  71.6173145  25.7235279  29.8395552
  73.1160142  25.6680363  29.6329174  64.0411368  32.0613086  21.7905693
  64.6264804  31.3156774  21.9233597  63.8436206  32.3717043  22.6742356
  66.8950023  35.0964334  16.8068135  66.2260398  35.5810461  16.3232175
  66.7562892  35.3433554  17.7211513  58.6329022  24.6318686  20.5110136
  58.6713122  24.0982277  21.3047254  58.1269315  24.1053892  19.8921113
  71.0355291  37.1308077  23.4050793  71.5873599  37.2939699  24.1699878
  71.3761485  37.7212515  22.7330818  66.0119785  19.4783227  24.0072678
  66.0761111  20.3398058  23.5950076  65.9486905  18.8657229  23.2745036
  65.4872057  21.5506359  27.6545712  66.1144096  21.1683437  28.2683237
  64.6299976  21.3320561  28.0201405  75.8866166  31.9569335  29.2599448
  76.4306070  32.5699293  28.7654403  75.3053010  32.5148913  29.7766461
  74.1723679  35.0790053  20.3914475  74.0474818  34.2779793  19.8825421
  74.8302770  35.5736246  19.9028445  65.7931847  21.4338785  19.5691616
  65.0718433  22.0474753  19.4299089  66.5825103  21.9696550  19.4908262
  76.2358587  32.8799073  22.0194026  75.2888923  32.7604424  21.9472352
  76.5841360  31.9921571  22.1020287  68.5958160  18.7693212  25.8432267
  69.1192562  19.0155508  26.6058577  68.3770494  19.6013246  25.4235405
  73.2405020  32.6751789  18.2198378  73.0929983  31.7468496  18.4005948
  74.0658514  32.6971880  17.7355453  76.8439142  33.4980348  19.3063251
  77.7685690  33.2923209  19.1687702  76.6754446  33.2496749  20.2152592
  69.8010705  19.7106907  23.5281938  69.4607526  18.9114720  23.9302618
  69.0949712  20.0108618  22.9558771  70.4527177  16.7956219  21.9809261
  71.2753247  16.3216697  21.8588151  70.6965241  17.5746703  22.4807947
  67.9765756  23.4875340  19.7901240  67.8310337  23.8015643  20.6825521
  67.4990960  24.1060240  19.2372138  69.8362139  20.4777888  19.8382129
  69.8223708  19.5818981  19.5014427  70.5534567  20.4848552  20.4720415
  71.6888270  20.9115228  21.8835257  71.4306047  21.8332299  21.8819587
  71.1573310  20.5145663  22.5735721  76.6334458  34.0166015  14.6625342
  76.8071336  33.4512438  13.9099194  77.1263350  34.8166910  14.4804832
  62.4511418  26.0280684  22.7288901  61.9064886  26.8040492  22.8609175
  63.3290768  26.3751489  22.5708022  72.1090225  17.0447179  18.2436419
  72.1311922  17.1086512  17.2888399  72.5258284  16.2051687  18.4376925
  82.4873850  26.7802438  16.2815642  82.9304996  26.0309763  15.8834765
  81.6100360  26.7712574  15.8989374  77.6209631  33.3332780  11.7622240
  78.3160535  33.9539472  11.9809555  77.9632781  32.4828131  12.0374618
  63.2377440  25.1550580  25.6219058  62.4959176  25.3033216  26.2083688
  62.9170184  25.4158846  24.7585807  79.5201054  30.7832485  13.2909571
  80.0452378  31.1219758  12.5658891  79.4323407  29.8479500  13.1072706
  71.1821103  34.6966559  25.4199448  71.4908229  34.4515705  26.2922147
  71.9796585  34.9013197  24.9318318  71.2041715  36.8504468  17.6504824
  70.7646705  36.3580847  18.3437681  71.9549832  36.3077436  17.4096899
  63.6834054  33.0416009  17.6529452  64.5092074  32.7419781  17.2728096
  63.3328106  32.2723632  18.1019241  68.6515587  32.3942477  19.7227126
  68.0295596  31.7313182  19.4229354  69.3220454  32.4203609  19.0400774
  61.8842659  30.9602336  18.6118386  61.0474567  30.5324510  18.4302387
  61.8566304  31.1534779  19.5489177  68.7240114  20.8724265  29.3159632
  68.7728270  21.7486388  28.9337401  69.2662629  20.3301659  28.7431275
  79.2094960  31.4165389  28.5960769  78.4190504  31.3989528  28.0565268
  78.9728315  31.9553682  29.3509806  79.3292835  28.2657855  25.9093498
  79.3790840  28.1007863  26.8509020  79.2206758  27.3985114  25.5191378
  68.2129094  30.9446401  13.1985586  68.3617214  31.6281865  12.5452259
  69.0195537  30.9251491  13.7135042  76.6196597  24.2488783  27.2252804
  77.5206460  24.1095248  26.9336802  76.6944572  24.4143238  28.1650982
  70.9539403  21.6255638  26.0705991  70.0842712  21.9189204  25.7988579
  71.1898883  22.2096083  26.7913254  80.8311032  30.6854797  26.1535519
  80.5395840  31.0484777  26.9898980  80.2183163  29.9721805  25.9748851
  82.0306714  28.2507676  18.6738089  82.8653606  28.6897480  18.8375650
  82.1665843  27.7746330  17.8546335  79.0798220  25.8087411  24.6215577
  79.5552342  26.0015058  23.8134428  78.1563786  25.8646597  24.3758961
  65.9681727  26.9711578  14.2046655  65.7227769  26.0673908  14.4026865
  66.1377641  26.9728729  13.2626133  73.6578437  17.8435255  23.5871411
  74.1760380  18.5796282  23.2617899  73.3033569  18.1499248  24.4218170
  73.9091031  14.2635537  19.1072308  74.1892785  13.5958726  19.7332734
  74.6941638  14.4564633  18.5946971  71.7124499  33.4394531  10.6697334
  71.1398466  34.0584718  10.2167806  72.2857293  33.9893893  11.2037256
  77.7799889  22.6853171  22.8543883  78.7317312  22.7851269  22.8756107
  77.6103340  21.8931440  23.3641967  75.8014269  19.7708755  23.0403284
  75.2064201  20.0513767  22.3449772  75.5163965  20.2602655  23.8120025
  74.9321759  33.7231681  11.8005916  75.8652432  33.6577243  12.0038792
  74.8444972  34.5587948  11.3420449  77.5609776  33.0397552   8.7609864
  77.4823407  32.7057415   9.6545622  78.3819443  33.5319320   8.7601336
  80.2587967  25.9059291  21.9686182  80.2264287  24.9675292  22.1545866
  80.8688591  25.9843328  21.2352007  80.4082455  22.6970334  22.0144465
  79.8921504  21.9128791  21.8274394  81.2922404  22.3689051  22.1790985
  78.0693182  16.4411350  17.9740278  77.8718003  16.1326438  18.8583610
  78.6792888  17.1672989  18.1038208  86.0764517  26.9675298  21.1092219
  86.8067905  26.7060586  21.6699922  85.4671462  26.2304020  21.1494287
  84.1579814  25.1083160  21.7066670  83.4312977  24.9739125  21.0983162
  83.7427101  25.4159989  22.5123388  71.9809990  28.8273090  29.4714043
  72.9013000  29.0051689  29.6654090  71.9459573  27.8829135  29.3193743
  61.1992155  24.0211684  18.3967318  60.8794940  23.1676992  18.1041692
  60.6525583  24.2360262  19.1525285  64.9772063  26.7374125  22.1136824
  65.1958073  27.6691233  22.1324858  65.3897837  26.3782099  22.8991628
  69.8499928  22.3107331  31.5039573  69.7496655  23.2601687  31.4351664
  69.6321470  21.9825569  30.6315643  61.0680415  27.6414595  20.3660440
  60.3743887  27.2268548  19.8530394  61.8153406  27.6835132  19.7693858
  77.2045636  18.4320782  15.2315474  76.6244305  19.0905586  14.8493526
  76.9381569  17.6098127  14.8202891  75.6549202  17.8325840  17.4336794
  76.1548981  17.9442374  16.6251113  76.2984810  17.5286893  18.0737603
  69.7131198  25.7404469  30.3204635  69.2298280  26.5404829  30.5268524
  69.7992137  25.7512414  29.3672079  62.9817158  27.5732849  18.2426454
  62.9587846  27.6720536  17.2908338  63.2917794  28.4198000  18.5643621
  65.6404536  29.6309004  22.3573069  66.5947789  29.5992946  22.2903000
  65.4417059  29.1699628  23.1723295  66.2303918  28.2010120  24.9243866
  67.0496807  28.6954199  24.9478704  66.5040726  27.2842088  24.8961434
  75.9870514  20.5920872  14.2871822  75.0996369  20.8770523  14.0692017
  76.4024503  20.4314636  13.4399099  79.3385050  20.6167393  18.0026161
  80.1145440  21.1063846  18.2750778  78.6133184  21.0425448  18.4598031
  81.7757609  21.3295013  19.0600102  82.3702100  21.0890749  18.3493410
  81.8484193  20.6102143  19.6873638  63.9954765  35.1728624  19.3743267
  63.8609232  34.4129024  18.8081265  63.5786827  35.8969523  18.9072056
  75.1313728  30.3565547   8.3819842  75.8349578  30.5615550   8.9977498
  74.4076376  30.9242309   8.6468926  75.9611538  26.1075408  14.5022112
  75.9046739  26.5643960  13.6629745  76.5139880  25.3466093  14.3244955
  79.7716344  21.8965140  15.3272232  79.5153278  21.4961776  16.1580439
  79.1469212  22.6108934  15.2022371  84.0828682  24.6361213  17.8343523
  83.5228240  24.7054403  18.6075085  83.4772185  24.4602198  17.1143019
  67.1523890  36.0697941  19.5861709  67.0356275  37.0143373  19.4840400
  66.3316337  35.7671502  19.9747509  77.0400425  30.7948076  10.4318302
  77.8746029  30.3629275  10.2495777  76.8784768  30.6230090  11.3595197
  76.6946317  27.2980190  11.7974641  76.6395121  27.1324461  10.8563085
  76.0692372  28.0056223  11.9536831  61.4838832  22.5348254  25.6236064
  62.1297696  22.0247208  26.1123289  61.2755983  23.2716936  26.1979489
  74.0092224  29.6029101  31.1228204  74.8783384  29.7769754  30.7614839
  73.5298976  30.4223518  31.0003933  68.1778405  36.7226202  22.8017638
  69.0805651  36.7549813  23.1184133  67.9515775  35.7926653  22.8163974
  69.9332007  35.4757189  19.4627716  68.9827638  35.4759051  19.3492089
  70.2364493  34.7289924  18.9463751  65.8236323  19.6815871  29.7211078
  66.6867785  19.3252676  29.9314402  65.2501734  19.3429766  30.4086482
  85.6684700  41.3117727  20.5273479  86.3063110  41.1924475  19.8236819
  85.5505543  42.2598571  20.5861431  82.4774406  41.2645156  20.4635003
  82.1392918  41.1486220  19.5755538  83.3464174  40.8636321  20.4436010
  78.3361222  43.1180632  16.4531894  77.7726087  43.0270569  15.6848182
  78.2213617  42.2980536  16.9334387  82.9594189  42.4180007  26.4221209
  82.9482830  42.0232806  25.5501713  83.1214829  41.6846080  27.0154980
  75.8825654  44.6131824  19.2916115  76.6746946  44.2722648  18.8762414
  76.1222304  44.7226799  20.2118268  83.9160781  46.7851600  11.7646359
  83.2648760  47.3705680  11.3780373  84.7105144  47.3157795  11.8241397
  77.8416408  43.8740737  12.1633494  78.6147284  43.3269724  12.0246369
  78.1941807  44.7384986  12.3747955  79.6801450  45.2017119  25.3700393
  79.3891316  46.1062750  25.2547059  80.3158435  45.2433647  26.0844463
  80.6057657  42.5793968  21.9601753  81.2021230  42.3549990  21.2458716
  80.6632629  41.8378713  22.5627200  80.1782686  40.0333403   9.7951944
  80.4308206  39.5114924   9.0335407  79.2407245  39.8699548   9.8978627
  85.2225968  39.0369181  17.6026687  86.0089058  38.6188604  17.2517104
  85.4864673  39.9415273  17.7708335  85.3936046  44.4742032  12.3015344
  84.7581879  44.5476658  13.0136248  85.0633452  45.0635630  11.6234423
  90.6234396  38.9744414  18.5059665  91.3559568  38.4043631  18.7397495
  89.8673751  38.5866015  18.9466171  79.8978974  41.9361509  11.9976319
  79.7815233  41.2606412  12.6657403  80.0081234  41.4493883  11.1808472
  82.2410515  41.3971656  15.7023008  81.8768723  40.8702277  16.4135929
  83.0977631  41.0070125  15.5289493  88.1459816  32.6865989  22.9654274
  87.8143141  33.5561400  22.7415489  87.5505429  32.3702273  23.6448304
  81.8816002  36.4261556  10.6984356  82.0490405  37.2941792  11.0654827
  81.6913171  36.5888837   9.7745646  84.6391336  44.8878535  22.3650187
  84.3392059  45.7903573  22.2565994  84.2942395  44.6210718  23.2171340
  78.0903817  41.3392331  18.3986891  77.1654313  41.2068546  18.6064583
  78.3388230  42.1186551  18.8956834  88.0388479  37.4061075  20.0447624
  87.1305357  37.3376483  19.7506385  87.9876075  37.8833020  20.8729449
  81.8605223  38.8819213  11.6831023  81.7404848  39.3276264  12.5216503
  81.1657812  39.2304531  11.1244561  75.4512628  40.9825605  19.2330680
  75.5805009  41.2360084  20.1470092  74.7710079  41.5753313  18.9135335
  79.6212115  51.6522855  15.3321154  79.5436145  52.6030680  15.4109635
  79.0173759  51.3068727  15.9896081  82.1129345  38.8250720  27.9882521
  81.3362679  39.3844640  27.9785386  82.7519908  39.3107503  28.5097391
  89.9050126  35.6077513  21.8225498  89.2624506  35.9010046  21.1765293
  89.4005054  35.4930433  22.6278695  87.5590289  39.3540686  12.5111357
  88.4708145  39.5868073  12.3359055  87.0499936  39.9377731  11.9486436
  80.3675717  41.6336174  27.5500488  81.1090402  42.1721218  27.2735312
  79.6612703  42.2602462  27.7072040  85.8431057  43.7765314  26.1472650
  86.2514413  43.3347725  25.4027282  85.1208319  43.2017942  26.4006843
  82.1962127  38.7137921  23.5206207  83.0423322  39.1377334  23.6640856
  82.1360765  38.0571545  24.2144770  86.1659872  44.3366505  19.9024939
  85.5368734  44.5012219  19.2001007  85.7785534  44.7508114  20.6735903
  90.0449104  45.2720943  17.2569302  89.3600142  45.6519844  16.7066336
  90.1292953  45.8816269  17.9901250  85.3461572  36.3742289  25.1787380
  85.1022504  37.1284350  24.6421656  85.6221503  36.7527637  26.0134627
  87.3000035  42.9180902  23.8564646  87.5116930  43.5612662  23.1799027
  87.2529783  42.0843218  23.3886576  84.9026264  35.5298722  20.7601218
  84.0410743  35.8279976  21.0517956  84.9288699  35.7469121  19.8282251
  81.7187834  44.0740913  17.1675024  82.1826179  44.3528616  16.3779646
  81.4544632  43.1724357  16.9848114  78.6111915  43.6212394  20.1054787
  79.1813272  44.0499663  19.4672272  79.2020026  43.3394979  20.8038973
  80.6556720  40.1964065  13.9764589  81.3580763  40.6485109  14.4438515
  80.3237348  39.5547884  14.6044482  79.1037081  38.7875822  28.3515798
  78.4735742  39.4692103  28.5851195  78.9973169  38.6758903  27.4068937
  74.3982054  38.4547618  19.2781722  73.6081108  38.7105146  18.8021833
  74.8893301  39.2695956  19.3833763  88.4145863  45.7952857  22.0287003
  89.2363307  45.3933044  21.7469685  88.4108266  45.6921091  22.9803119
  76.3496799  38.8192197  16.2365199  75.5527962  38.9310891  16.7548695
  76.1222391  39.1578849  15.3706090  82.1802467  45.3436900  24.1847714
  82.2446899  45.8057308  25.0205886  81.4713390  44.7134265  24.3130024
  72.6819757  38.7078108  21.7096713  72.9327795  39.5925118  21.9754289
  73.2179305  38.5282710  20.9371805  96.5051856  42.1391606  18.3771975
  95.7515565  41.5699004  18.2215979  96.6399397  42.1054270  19.3242609
  81.8950484  47.0105008  14.0526694  81.7596159  47.8556544  14.4811542
  82.4360297  47.2124286  13.2892628  78.3817824  33.0896588  30.7141049
  77.9884769  32.5362786  31.3888694  79.1983964  33.4007166  31.1047567
  75.3479882  44.5280446  14.6254619  75.8604402  45.3223696  14.7760184
  76.0002594  43.8306736  14.5588221  77.1574766  47.6446202  16.7077372
  77.3341395  48.5664167  16.5198356  77.9531600  47.3304621  17.1371752
  81.2985785  34.5054467  28.3061306  82.0395498  35.1061620  28.2265768
  81.5303708  33.7632105  27.7479348  76.4427123  39.6910834  26.5839536
  76.3280638  38.7896091  26.8846634  75.5871641  39.9374531  26.2324352
  83.5218961  47.6328574  28.1827036  83.0782815  46.8464953  27.8647941
  84.1836174  47.8207725  27.5170927  78.2806082  49.1624376  22.7087715
  78.8313507  49.0341439  21.9364709  77.4417558  49.4619265  22.3582607
  85.6200199  47.9131374  26.2108437  85.6018674  48.7340255  25.7188707
  86.5420119  47.7885450  26.4358579  82.0773253  45.4275504  27.0531946
  82.6101590  44.6663792  26.8231254  81.5487334  45.1349156  27.7956100
  85.2442948  30.5335570  22.5825588  84.9007217  31.4237211  22.5064698
  85.6121910  30.3437227  21.7195173  73.3128798  42.8569100  15.4014190
  74.1504020  43.2666109  15.1847897  73.4907066  41.9168542  15.3714384
  85.2093231  40.5244181  11.0898023  84.6939854  41.2948785  11.3286410
  84.9370539  39.8509317  11.7131084  82.7940342  35.3693882  16.1483261
  81.9381938  34.9800732  15.9688900  83.2067293  35.4485842  15.2883047
  84.3239488  32.9040225  20.5474821  83.8204284  32.8670360  19.7342626
  84.6170095  33.8132968  20.6071477  80.5682374  32.9878955  19.5541003
  81.4335371  32.7921763  19.1946892  80.6359883  32.7589306  20.4810359
  90.1827505  43.2776536  13.0251196  89.4056947  42.9387695  12.5806358
  90.8618986  43.2829159  12.3506161  84.9979534  38.3971273  12.9157804
  84.6929669  38.7117422  13.7667947  85.9509976  38.4752693  12.9585137
  83.4425966  44.5561496  14.5650758  82.9147327  43.8214256  14.2523995
  82.9413468  45.3336173  14.3190726  88.4218812  42.7510517  19.6817804
  87.7642486  43.4409778  19.7697933  89.2259211  43.1406949  20.0251790
  78.1744693  35.2181163  16.9257369  78.7488445  34.9956344  16.1930562
  78.7615676  35.2869857  17.6785971  87.2324270  41.1054889  17.7321746
  87.7456152  41.7384881  18.2343456  87.8825494  40.5056085  17.3665106
  78.5014280  37.2485624  10.9453255  77.6651593  37.5860310  11.2662529
  78.3619050  37.1134603  10.0080392  80.4767361  32.0922411  15.6532439
  79.8231773  31.7771429  15.0289054  80.4347835  31.4698152  16.3792262
  81.5878566  42.3741707   7.5685731  80.6805627  42.1430960   7.7676880
  82.0849598  41.5779326   7.7559712  84.4946645  51.0839214  10.4882417
  83.8208343  51.3870910  11.0967375  84.8812467  51.8868294  10.1387874
  83.7105101  38.5804345  19.9780086  82.7927663  38.8019292  19.8201774
  84.1265245  38.6550655  19.1191794  84.4940149  39.9795761  15.1082767
  85.2411968  40.4917158  14.7989889  84.7631739  39.6579813  15.9687160
  82.7666799  42.4754301  12.0909721  81.8578018  42.1913334  12.1882191
  82.7961883  42.8953380  11.2313028  87.9986067  46.0860891  15.8600889
  87.5448394  45.2451801  15.9166079  87.3680033  46.7222289  16.1975669
  86.9418986  37.0152877  17.0901556  86.2041743  36.5030263  17.4211799
  87.1945760  36.5753259  16.2784833  86.4419006  47.9237388  16.7950707
  86.7341980  48.4842445  16.0763072  86.9517626  48.2165949  17.5503866
  87.0430613  29.7929129  17.6843325  87.3489490  28.9326492  17.3969240
  87.7683218  30.3846749  17.4842319  73.3354970  40.1959816  16.0724923
  73.1379369  39.6029176  15.3475990  72.7801634  39.8912026  16.7900862
  81.3151693  40.0882922  18.1919516  81.3700303  39.1356758  18.1161993
  80.5042895  40.2442361  18.6760815  82.4642887  44.0163045   9.4297800
  82.0262317  43.2998904   8.9703437  83.2053328  44.2439160   8.8682891
  79.2544053  38.7059982  15.9509895  78.4411919  39.0054152  16.3575087
  79.7503047  38.3115671  16.6684377  81.4052631  48.7017739  17.8844160
  81.3628810  48.9278585  16.9552692  82.3215330  48.4681113  18.0329961
  84.8518265  39.1701806  24.7824789  85.2067653  39.3973279  25.6419255
  85.4990396  39.5020183  24.1602044  90.5816002  42.2920242  15.4874118
  90.4433900  42.4821838  14.5595307  90.2252221  43.0539625  15.9442169
  78.7458128  36.2778337  21.5671130  79.3857507  36.1367096  20.8694093
  77.9135658  35.9912851  21.1909732  90.6085381  44.3596769  20.4985390
  91.0421888  44.2672058  21.3468444  91.3216962  44.3354270  19.8605406
  79.5218432  45.5780768  17.6806123  80.3159030  45.0831088  17.4788698
  78.8110124  45.0498631  17.3173828  84.3413276  47.9598863  22.0318490
  84.3950299  48.5289800  22.7996206  83.4728058  48.1300748  21.6672527
  75.8301195  39.7223849  13.7565875  74.8998783  39.6608305  13.9735837
  75.9258667  39.1999802  12.9602517  75.7486744  36.2478662  16.3444117
  76.0093562  37.1623996  16.2353277  76.5703917  35.7803105  16.4940730
  77.2211670  37.6616419  23.5142941  77.8934723  37.4533782  22.8655590
  76.3941456  37.4638505  23.0748174  91.4700931  44.4020470  23.0318275
  91.6636821  45.3066280  23.2777550  91.3701549  43.9427889  23.8656860
  83.1237242  34.2878360  25.5308602  82.4765157  34.9868310  25.4373079
  83.8938257  34.7214504  25.8984851  86.5316040  44.5527213  28.6059156
  86.3801546  44.3237764  27.6889239  86.5220719  45.5097814  28.6190501
  83.3001376  42.1259125  23.5905422  84.2293436  42.2770285  23.4174389
  82.8792406  42.2143146  22.7354069  82.0989708  46.1509790  21.3603960
  81.9600793  45.7828574  22.2329898  81.3104304  46.6657429  21.1887917
  82.6937860  51.2518886  12.7029496  82.8689615  50.7806929  13.5175119
  82.0070648  51.8784652  12.9310757  83.6494923  45.5291392  18.7492797
  83.3144756  45.4892162  19.6450447  83.1498869  44.8636108  18.2763208
  77.6239167  40.9359022  24.2745379  77.4858965  40.2039261  24.8756918
  78.5344090  40.8467923  23.9929566  86.5854115  42.8747427   9.0229857
  85.9683285  42.1494255   8.9262910  86.1170603  43.6356787   8.6796931
  80.2521468  40.6478982  23.7629058  80.9621086  40.0072174  23.7215677
  80.2090776  40.8991877  24.6855239  88.2408246  47.5846335  26.6835637
  88.1820792  46.9005555  26.0166221  88.6427765  48.3265325  26.2316263
  78.9650402  37.6344200  25.5824698  78.4287759  37.1834938  26.2346294
  78.3767110  37.7690108  24.8395162  77.2598945  54.4008249  19.4769356
  77.4995543  55.0326773  20.1548375  76.4168142  54.0496289  19.7634716
  78.3752660  37.0932851   8.1451161  77.4982127  36.9721652   7.7813408
  78.8510414  36.3018929   7.8930050  88.2425654  45.5485919  24.9149617
  87.3552432  45.2111841  25.0376016  88.8124205  44.8168950  25.1518383
  69.8954801  41.8810011  18.2392669  70.5825840  41.5671741  17.6513684
  69.7402929  42.7851375  17.9659920  74.6989523  36.7700207  22.6677692
  74.6147711  36.1625877  21.9328102  73.8772229  37.2609226  22.6687189
  81.7726807  50.2087371  21.8810860  81.6996978  51.0142343  22.3930165
  81.3304200  50.4079337  21.0558882  81.5616587  49.4459141  15.3913682
  80.7784108  49.9880822  15.4851906  82.2609332  49.9633121  15.7907923
  84.8713237  35.2553771  18.0347887  85.3681936  34.5023733  17.7148958
  84.1000218  35.2918087  17.4691097  92.7242994  40.9594136  19.6766179
  92.7132870  41.8418852  19.3060112  91.8560373  40.6065687  19.4820716
  84.2325490  50.1074205  24.0369019  84.9453463  50.7421670  23.9644920
  83.7415519  50.2038071  23.2209021  85.9543017  44.0125458  15.6086311
  85.0199296  44.1326921  15.4391015  86.1319686  43.1097925  15.3446321
  81.4548205  37.3971154  17.7619572  81.0845993  36.8442194  18.4500477
  81.9507298  36.7929287  17.2094572  89.3415569  39.8542777  16.1436345
  89.8076021  40.6870769  16.0696647  89.7923069  39.3887759  16.8481603
  79.2837404  47.8568649  24.8574590  79.9846863  48.4905132  25.0103984
  78.8132519  48.1983380  24.0970229  87.4091800  46.1986599  13.1422497
  87.6851644  46.0843193  14.0516371  86.5396299  45.8004083  13.1034670
  87.3132231  32.2223364  20.1827246  86.3995311  32.4527591  20.3509453
  87.7425333  32.3061808  21.0341279  87.0838690  40.4113256  22.6827140
  86.4310140  40.6589164  22.0279593  87.4619070  39.5977394  22.3489617
  84.0445864  50.4472949  16.7855310  84.2268258  49.6294605  17.2483063
  84.8678850  50.6640642  16.3480200  84.3788029  49.3741135  14.0470359
  84.9075796  48.8633589  13.4340521  84.6416249  49.0583665  14.9115892
  83.1326263  41.1533067  29.1693177  82.4566900  41.0527197  29.8395552
  83.9553897  40.9972281  29.6329174  74.8805122  47.3905004  21.7905693
  75.4658559  46.6448692  21.9233597  74.6829960  47.7008961  22.6742356
  77.7343777  50.4256251  16.8068135  77.0654152  50.9102379  16.3232175
  77.5956647  50.6725472  17.7211513  69.4722777  39.9610604  20.5110136
  69.5106876  39.4274195  21.3047254  68.9663070  39.4345810  19.8921113
  81.8749046  52.4599995  23.4050793  82.4267354  52.6231616  24.1699878
  82.2155239  53.0504433  22.7330818  76.8513539  34.8075145  24.0072678
  76.9154866  35.6689976  23.5950076  76.7880659  34.1949146  23.2745036
  76.3265812  36.8798277  27.6545712  76.9537850  36.4975354  28.2683237
  75.4693730  36.6612479  28.0201405  86.7259920  47.2861252  29.2599448
  87.2699824  47.8991211  28.7654403  86.1446765  47.8440831  29.7766461
  73.1031354  38.6874706  13.5864067  73.3984795  37.7785385  13.5331121
  72.2019390  38.6662446  13.2645069  85.0117433  50.4081970  20.3914475
  84.8868573  49.6071710  19.8825421  85.6696524  50.9028164  19.9028445
  76.6325601  36.7630703  19.5691616  75.9112187  37.3766671  19.4299089
  77.4218857  37.2988468  19.4908262  87.0752341  48.2090990  22.0194026
  86.1282677  48.0896342  21.9472352  87.4235115  47.3213488  22.1020287
  79.4351915  34.0985129  25.8432267  79.9586317  34.3447426  26.6058577
  79.2164248  34.9305164  25.4235405  74.8319196  36.3688804  13.7103392
  74.5031902  35.4886183  13.5278498  75.1858567  36.3136473  14.5979781
  84.0798775  48.0043707  18.2198378  83.9323737  47.0760414  18.4005948
  84.9052268  48.0263797  17.7355453  77.9461019  36.6561774  14.0778870
  78.2857092  37.1847695  13.3557478  78.3933140  36.9942180  14.8537436
  87.6832897  48.8272265  19.3063251  88.6079444  48.6215127  19.1687702
  87.5148200  48.5788667  20.2152592  80.6404460  35.0398824  23.5281938
  80.3001280  34.2406638  23.9302618  79.9343466  35.3400535  22.9558771
  81.2920932  32.1248137  21.9809261  82.1147001  31.6508615  21.8588151
  81.5358995  32.9038621  22.4807947  79.9329166  35.1536395  12.2772163
  80.6537529  35.5317648  11.7735880  79.3094470  35.8725272  12.3807141
  84.0760289  35.8581544  13.2130495  84.2923903  36.7406182  12.9119323
  83.5954356  35.4667758  12.4836137  78.8159510  38.8167258  19.7901240
  78.6704091  39.1307561  20.6825521  78.3384714  39.4352158  19.2372138
  80.6755893  35.8069805  19.8382129  80.6617462  34.9110899  19.5014427
  81.3928321  35.8140469  20.4720415  82.5282024  36.2407146  21.8835257
  82.2699802  37.1624216  21.8819587  81.9967064  35.8437580  22.5735721
  87.4728213  49.3457933  14.6625342  87.6465090  48.7804355  13.9099194
  87.9657104  50.1458828  14.4804832  73.2905173  41.3572602  22.7288901
  72.7458641  42.1332410  22.8609175  74.1684522  41.7043406  22.5708022
  80.0792789  34.6884186  15.1069699  80.2008700  33.7600832  15.3060587
  79.7894832  34.7022872  14.1948015  82.9483980  32.3739096  18.2436419
  82.9705676  32.4378429  17.2888399  83.3652039  31.5343605  18.4376925
  93.3267604  42.1094356  16.2815642  93.7698750  41.3601681  15.8834765
  92.4494114  42.1004492  15.8989374  88.4603385  48.6624697  11.7622240
  89.1554290  49.2831390  11.9809555  88.8026535  47.8120048  12.0374618
  74.0771194  40.4842498  25.6219058  73.3352931  40.6325134  26.2083688
  73.7563939  40.7450764  24.7585807  90.3594808  46.1124403  13.2909571
  90.8846133  46.4511676  12.5658891  90.2717161  45.1771418  13.1072706
  82.0214857  50.0258476  25.4199448  82.3301984  49.7807623  26.2922147
  82.8190339  50.2305115  24.9318318  82.0435469  52.1796386  17.6504824
  81.6040459  51.6872765  18.3437681  82.7943586  51.6369354  17.4096899
  74.5227808  48.3707927  17.6529452  75.3485828  48.0711699  17.2728096
  74.1721860  47.6015549  18.1019241  79.4909341  47.7234395  19.7227126
  78.8689351  47.0605100  19.4229354  80.1614208  47.7495527  19.0400774
  72.7236413  46.2894253  18.6118386  71.8868322  45.8616428  18.4302387
  72.6960059  46.4826697  19.5489177  79.5633869  36.2016183  29.3159632
  79.6122024  37.0778306  28.9337401  80.1056383  35.6593576  28.7431275
  90.0488715  46.7457306  28.5960769  89.2584258  46.7281445  28.0565268
  89.8122069  47.2845600  29.3509806  90.1686590  43.5949773  25.9093498
  90.2184594  43.4299780  26.8509020  90.0600513  42.7277032  25.5191378
  79.0522848  46.2738318  13.1985586  79.2010969  46.9573783  12.5452259
  79.8589292  46.2543409  13.7135042  87.4590352  39.5780701  27.2252804
  88.3600215  39.4387166  26.9336802  87.5338326  39.7435156  28.1650982
  81.7933157  36.9547556  26.0705991  80.9236467  37.2481122  25.7988579
  82.0292638  37.5388001  26.7913254  91.6704786  46.0146714  26.1535519
  91.3789595  46.3776695  26.9898980  91.0576918  45.3013723  25.9748851
  92.8700469  43.5799594  18.6738089  93.7047360  44.0189398  18.8375650
  93.0059597  43.1038247  17.8546335  89.9191975  41.1379329  24.6215577
  90.3946096  41.3306975  23.8134428  88.9957540  41.1938515  24.3758961
  76.8075481  42.3003496  14.2046655  76.5621523  41.3965826  14.4026865
  76.9771396  42.3020647  13.2626133  84.4972191  33.1727172  23.5871411
  85.0154135  33.9088199  23.2617899  84.1427324  33.4791166  24.4218170
  76.0771129  38.0331854  11.7032817  75.3840374  38.1076209  11.0472853
  75.8322881  37.2692197  12.2254334  84.7484785  29.5927455  19.1072308
  85.0286539  28.9250644  19.7332734  85.5335392  29.7856551  18.5946971
  82.5518254  48.7686449  10.6697334  81.9792221  49.3876636  10.2167806
  83.1251047  49.3185811  11.2037256  88.6193644  38.0145089  22.8543883
  89.5711067  38.1143187  22.8756107  88.4497094  37.2223358  23.3641967
  86.6408023  35.1000672  23.0403284  86.0457955  35.3805685  22.3449772
  86.3557720  35.5894573  23.8120025  85.7715514  49.0523599  11.8005916
  86.7046187  48.9869161  12.0038792  85.6838726  49.8879866  11.3420449
  88.4003530  48.3689469   8.7609864  88.3217162  48.0349333   9.6545622
  89.2213197  48.8611237   8.7601336  91.0981721  41.2351209  21.9686182
  91.0658042  40.2967209  22.1545866  91.7082345  41.3135245  21.2352007
  82.9365052  40.1047262   8.0113386  83.8824157  39.9753470   8.0801804
  82.5579297  39.3661924   8.4882814  91.2476210  38.0262252  22.0144465
  90.7315259  37.2420709  21.8274394  92.1316158  37.6980969  22.1790985
  88.9086937  31.7703268  17.9740278  88.7111758  31.4618356  18.8583610
  89.5186642  32.4964907  18.1038208  96.9158271  42.2967216  21.1092219
  97.6461660  42.0352504  21.6699922  96.3065217  41.5595937  21.1494287
  94.9973568  40.4375078  21.7066670  94.2706732  40.3031043  21.0983162
  94.5820855  40.7451907  22.5123388  82.8203745  44.1565008  29.4714043
  83.7406754  44.3343607  29.6654090  82.7853328  43.2121053  29.3193743
  81.1207969  38.0297238   7.9468272  80.2139425  37.7330351   8.0230985
  81.3983950  37.7327056   7.0802558  72.0385910  39.3503601  18.3967318
  71.7188694  38.4968910  18.1041692  71.4919338  39.5652180  19.1525285
  75.8165817  42.0666042  22.1136824  76.0351827  42.9983150  22.1324858
  76.2291591  41.7074017  22.8991628  82.7370035  32.5734128  14.1012513
  81.9270763  32.2281213  14.4767759  83.4254452  32.2641671  14.6900124
  84.6660583  31.6512175  15.7236809  85.2191622  32.0707628  16.3826833
  84.9030670  30.7247923  15.7659765  80.6893683  37.6399248  31.5039573
  80.5890410  38.5893605  31.4351664  80.4715225  37.3117487  30.6315643
  79.8906754  34.8884173   8.0880251  80.7525918  35.2139072   8.3476068
  80.0757098  34.1015669   7.5753317  71.9074170  42.9706513  20.3660440
  71.2137641  42.5560466  19.8530394  72.6547161  43.0127049  19.7693858
  88.0439391  33.7612700  15.2315474  87.4638060  34.4197504  14.8493526
  87.7775323  32.9390044  14.8202891  86.4942957  33.1617757  17.4336794
  86.9942735  33.2734292  16.6251113  87.1378565  32.8578810  18.0737603
  80.5524953  41.0696387  30.3204635  80.0692034  41.8696747  30.5268524
  80.6385892  41.0804332  29.3672079  73.8210912  42.9024767  18.2426454
  73.7981600  43.0012454  17.2908338  74.1311549  43.7489918  18.5643621
  76.4798290  44.9600922  22.3573069  77.4341544  44.9284864  22.2903000
  76.2810814  44.4991545  23.1723295  77.0697672  43.5302038  24.9243866
  77.8890561  44.0246116  24.9478704  77.3434480  42.6134006  24.8961434
  86.8264269  35.9212790  14.2871822  85.9390124  36.2062441  14.0692017
  87.2418258  35.7606553  13.4399099  90.1778805  35.9459311  18.0026161
  90.9539195  36.4355764  18.2750778  89.4526939  36.3717365  18.4598031
  92.6151363  36.6586930  19.0600102  93.2095854  36.4182666  18.3493410
  92.6877947  35.9394061  19.6873638  74.8348519  50.5020541  19.3743267
  74.7002987  49.7420942  18.8081265  74.4180581  51.2261441  18.9072056
  85.9707482  45.6857465   8.3819842  86.6743332  45.8907467   8.9977498
  85.2470131  46.2534227   8.6468926  86.8005292  41.4367326  14.5022112
  86.7440494  41.8935877  13.6629745  87.3533635  40.6758011  14.3244955
  90.6110098  37.2257058  15.3272232  90.3547032  36.8253694  16.1580439
  89.9862966  37.9400852  15.2022371  94.9222436  39.9653131  17.8343523
  94.3621994  40.0346320  18.6075085  94.3165939  39.7894116  17.1143019
  77.9917645  51.3989858  19.5861709  77.8750029  52.3435291  19.4840400
  77.1710091  51.0963420  19.9747509  87.8794179  46.1239994  10.4318302
  88.7139783  45.6921192  10.2495777  87.7178522  45.9522008  11.3595197
  87.5340072  42.6272107  11.7974641  87.4788875  42.4616379  10.8563085
  86.9086127  43.3348140  11.9536831  72.3232587  37.8640172  25.6236064
  72.9691450  37.3539126  26.1123289  72.1149738  38.6008853  26.1979489
  84.8485979  44.9321019  31.1228204  85.7177138  45.1061671  30.7614839
  84.3692730  45.7515436  31.0003933  80.8436197  32.1280216  11.3759960
  80.8314867  33.0722056  11.5328231  81.7359619  31.9450362  11.0819421
  79.0172159  52.0518120  22.8017638  79.9199406  52.0841730  23.1184133
  78.7909529  51.1218571  22.8163974  80.7725761  50.8049107  19.4627716
  79.8221392  50.8050968  19.3492089  81.0758247  50.0581841  18.9463751
  84.6588317  28.7222993  15.6305897  83.8920712  28.1681480  15.7762579
  85.0699021  28.7944862  16.4920048  76.6630078  35.0107789  29.7211078
  77.5261539  34.6544594  29.9314402  76.0895488  34.6721684  30.4086482
  96.5078455  56.6409645  20.5273479  97.1456864  56.5216392  19.8236819
  96.3899297  57.5890489  20.5861431  93.3168161  56.5937073  20.4635003
  92.9786672  56.4778138  19.5755538  94.1857929  56.1928238  20.4436010
  89.1754976  58.4472550  16.4531894  88.6119842  58.3562487  15.6848182
  89.0607372  57.6272454  16.9334387  86.7219408  59.9423741  19.2916115
  87.5140700  59.6014566  18.8762414  86.9616059  60.0518716  20.2118268
  94.7554535  62.1143517  11.7646359  94.1042515  62.6997598  11.3780373
  95.5498898  62.6449712  11.8241397  88.6810162  59.2032654  12.1633494
  89.4541038  58.6561642  12.0246369  89.0335561  60.0676904  12.3747955
  91.4451412  57.9085885  21.9601753  92.0414984  57.6841908  21.2458716
  91.5026383  57.1670631  22.5627200  91.0176440  55.3625321   9.7951944
  91.2701961  54.8406842   9.0335407  90.0800999  55.1991466   9.8978627
  96.0619723  54.3661099  17.6026687  96.8482812  53.9480522  17.2517104
  96.3258427  55.2707191  17.7708335  96.2329800  59.8033949  12.3015344
  95.5975633  59.8768576  13.0136248  95.9027207  60.3927548  11.6234423
 101.4628150  54.3036332  18.5059665 102.1953322  53.7335549  18.7397495
 100.7067506  53.9157933  18.9466171  90.7372729  57.2653427  11.9976319
  90.6208987  56.5898330  12.6657403  90.8474989  56.7785800  11.1808472
  93.0804270  56.7263574  15.7023008  92.7162477  56.1994195  16.4135929
  93.9371386  56.3362043  15.5289493  98.9853570  48.0157906  22.9654274
  98.6536895  48.8853317  22.7415489  98.3899184  47.6994190  23.6448304
  92.7209757  51.7553473  10.6984356  92.8884159  52.6233710  11.0654827
  92.5306926  51.9180755   9.7745646  95.4785090  60.2170452  22.3650187
  95.1785813  61.1195491  22.2565994  95.1336150  59.9502635  23.2171340
  88.9297571  56.6684249  18.3986891  88.0048068  56.5360463  18.6064583
  89.1781985  57.4478468  18.8956834  98.8782234  52.7352992  20.0447624
  97.9699111  52.6668401  19.7506385  98.8269830  53.2124937  20.8729449
  92.6998978  54.2111131  11.6831023  92.5798603  54.6568182  12.5216503
  92.0051566  54.5596449  11.1244561  86.2906383  56.3117523  19.2330680
  86.4198764  56.5652002  20.1470092  85.6103834  56.9045231  18.9135335
  90.4605870  66.9814773  15.3321154  90.3829899  67.9322598  15.4109635
  89.8567513  66.6360645  15.9896081 100.7443880  50.9369431  21.8225498
 100.1018260  51.2301964  21.1765293 100.2398809  50.8222351  22.6278695
  98.3984044  54.6832604  12.5111357  99.3101900  54.9159991  12.3359055
  97.8893691  55.2669648  11.9486436  96.6824812  59.1057232  26.1472650
  97.0908168  58.6639642  25.4027282  95.9602073  58.5309859  26.4006843
  93.0355882  54.0429839  23.5206207  93.8817077  54.4669252  23.6640856
  92.9754519  53.3863463  24.2144770  97.0053626  59.6658422  19.9024939
  96.3762489  59.8304137  19.2001007  96.6179288  60.0800032  20.6735903
 100.8842858  60.6012860  17.2569302 100.1993896  60.9811762  16.7066336
 100.9686707  61.2108187  17.9901250  96.1855327  51.7034207  25.1787380
  95.9416259  52.4576267  24.6421656  96.4615257  52.0819555  26.0134627
  98.1393790  58.2472819  23.8564646  98.3510685  58.8904579  23.1799027
  98.0923538  57.4135136  23.3886576  95.7420019  50.8590640  20.7601218
  94.8804498  51.1571894  21.0517956  95.7682453  51.0761039  19.8282251
  92.5581588  59.4032831  17.1675024  93.0219934  59.6820534  16.3779646
  92.2938386  58.5016275  16.9848114  89.4505669  58.9504312  20.1054787
  90.0207026  59.3791580  19.4672272  90.0413781  58.6686897  20.8038973
  91.4950474  55.5255983  13.9764589  92.1974517  55.9777027  14.4438515
  91.1631103  54.8839802  14.6044482  85.2375808  53.7839536  19.2781722
  84.4474862  54.0397064  18.8021833  85.7287055  54.5987873  19.3833763
  99.2539618  61.1244775  22.0287003 100.0757061  60.7224962  21.7469685
  99.2502020  61.0213009  22.9803119  87.1890553  54.1484115  16.2365199
  86.3921717  54.2602809  16.7548695  86.9616146  54.4870767  15.3706090
  93.0196221  60.6728818  24.1847714  93.0840654  61.1349225  25.0205886
  92.3107145  60.0426183  24.3130024  83.5213511  54.0370026  21.7096713
  83.7721549  54.9217036  21.9754289  84.0573059  53.8574628  20.9371805
 107.3445611  57.4683523  18.3771975 106.5909319  56.8990921  18.2215979
 107.4793152  57.4346188  19.3242609  92.7344239  62.3396926  14.0526694
  92.5989913  63.1848461  14.4811542  93.2754051  62.5416203  13.2892628
  89.2211578  48.4188505  30.7141049  88.8278524  47.8654704  31.3888694
  90.0377719  48.7299084  31.1047567  86.1873636  59.8572364  14.6254619
  86.6998157  60.6515614  14.7760184  86.8396349  59.1598654  14.5588221
  87.9968521  62.9738120  16.7077372  88.1735149  63.8956085  16.5198356
  88.7925354  62.6596539  17.1371752  92.1379539  49.8346384  28.3061306
  92.8789253  50.4353538  28.2265768  92.3697462  49.0924022  27.7479348
  89.1199836  64.4916294  22.7087715  89.6707261  64.3633357  21.9364709
  88.2811312  64.7911183  22.3582607  96.4593953  63.2423292  26.2108437
  96.4412429  64.0632173  25.7188707  97.3813873  63.1177367  26.4358579
  96.0836702  45.8627487  22.5825588  95.7400972  46.7529129  22.5064698
  96.4515665  45.6729145  21.7195173  84.1522553  58.1861018  15.4014190
  84.9897775  58.5958026  15.1847897  84.3300821  57.2460460  15.3714384
  96.0486985  55.8536099  11.0898023  95.5333608  56.6240703  11.3286410
  95.7764293  55.1801235  11.7131084  93.6334096  50.6985799  16.1483261
  92.7775692  50.3092650  15.9688900  94.0461048  50.7777760  15.2883047
  95.1633243  48.2332143  20.5474821  94.6598038  48.1962278  19.7342626
  95.4563850  49.1424885  20.6071477  91.4076129  48.3170872  19.5541003
  92.2729125  48.1213681  19.1946892  91.4753637  48.0881224  20.4810359
 101.0221259  58.6068453  13.0251196 100.2450702  58.2679613  12.5806358
 101.7012740  58.6121076  12.3506161  95.8373288  53.7263191  12.9157804
  95.5323424  54.0409340  13.7667947  96.7903730  53.8044611  12.9585137
  94.2819720  59.8853414  14.5650758  93.7541082  59.1506174  14.2523995
  93.7807223  60.6628090  14.3190726  99.2612566  58.0802434  19.6817804
  98.6036240  58.7701696  19.7697933 100.0652965  58.4698866  20.0251790
  89.0138448  50.5473080  16.9257369  89.5882200  50.3248262  16.1930562
  89.6009430  50.6161775  17.6785971  98.0718025  56.4346807  17.7321746
  98.5849907  57.0676799  18.2343456  98.7219249  55.8348003  17.3665106
  89.3408035  52.5777541  10.9453255  88.5045347  52.9152228  11.2662529
  89.2012804  52.4426521  10.0080392  91.3161115  47.4214329  15.6532439
  90.6625528  47.1063346  15.0289054  91.2741589  46.7990070  16.3792262
  92.4272320  57.7033624   7.5685731  91.5199382  57.4722878   7.7676880
  92.9243352  56.9071243   7.7559712  95.3340399  66.4131131  10.4882417
  94.6602098  66.7162828  11.0967375  95.7206221  67.2160212  10.1387874
  94.5498856  53.9096263  19.9780086  93.6321417  54.1311210  19.8201774
  94.9658999  53.9842573  19.1191794  95.3333903  55.3087678  15.1082767
  96.0805722  55.8209076  14.7989889  95.6025493  54.9871731  15.9687160
  93.6060554  57.8046219  12.0909721  92.6971773  57.5205252  12.1882191
  93.6355637  58.2245298  11.2313028  98.8379821  61.4152809  15.8600889
  98.3842148  60.5743718  15.9166079  98.2073788  62.0514207  16.1975669
  97.7812741  52.3444795  17.0901556  97.0435497  51.8322181  17.4211799
  98.0339514  51.9045176  16.2784833  97.2812760  63.2529305  16.7950707
  97.5735735  63.8134362  16.0763072  97.7911381  63.5457866  17.5503866
  97.8824368  45.1221047  17.6843325  98.1883245  44.2618410  17.3969240
  98.6076973  45.7138667  17.4842319  84.1748724  55.5251733  16.0724923
  83.9773124  54.9321094  15.3475990  83.6195388  55.2203943  16.7900862
  92.1545448  55.4174840  18.1919516  92.2094057  54.4648676  18.1161993
  91.3436650  55.5734279  18.6760815  93.3036641  59.3454963   9.4297800
  92.8656071  58.6290822   8.9703437  94.0447082  59.5731078   8.8682891
  90.0937808  54.0351899  15.9509895  89.2805673  54.3346070  16.3575087
  90.5896802  53.6407588  16.6684377  92.2446385  64.0309656  17.8844160
  92.2022564  64.2570503  16.9552692  93.1609084  63.7973031  18.0329961
  95.6912019  54.4993724  24.7824789  96.0461407  54.7265197  25.6419255
  96.3384151  54.8312101  24.1602044 101.4209756  57.6212160  15.4874118
 101.2827655  57.8113756  14.5595307 101.0645975  58.3831543  15.9442169
  89.5851882  51.6070255  21.5671130  90.2251262  51.4659014  20.8694093
  88.7529413  51.3204768  21.1909732 101.4479136  59.6888687  20.4985390
 101.8815642  59.5963976  21.3468444 102.1610717  59.6646187  19.8605406
  90.3612186  60.9072685  17.6806123  91.1552785  60.4123006  17.4788698
  89.6503879  60.3790549  17.3173828  95.1807031  63.2890781  22.0318490
  95.2344053  63.8581717  22.7996206  94.3121812  63.4592666  21.6672527
  86.6694950  55.0515767  13.7565875  85.7392538  54.9900223  13.9735837
  86.7652422  54.5291720  12.9602517  86.5880499  51.5770580  16.3444117
  86.8487316  52.4915913  16.2353277  87.4097671  51.1095023  16.4940730
  88.0605424  52.9908337  23.5142941  88.7328478  52.7825699  22.8655590
  87.2335211  52.7930423  23.0748174 102.3094685  59.7312387  23.0318275
 102.5030575  60.6358198  23.2777550 102.2095304  59.2719807  23.8656860
  93.9630996  49.6170278  25.5308602  93.3158911  50.3160228  25.4373079
  94.7332012  50.0506422  25.8984851  97.3709794  59.8819130  28.6059156
  97.2195300  59.6529682  27.6889239  97.3614474  60.8389732  28.6190501
  94.1395130  57.4551043  23.5905422  95.0687190  57.6062203  23.4174389
  93.7186160  57.5435064  22.7354069  92.9383462  61.4801707  21.3603960
  92.7994548  61.1120492  22.2329898  92.1498058  61.9949347  21.1887917
  93.5331614  66.5810804  12.7029496  93.7083370  66.1098847  13.5175119
  92.8464402  67.2076570  12.9310757  94.4888677  60.8583310  18.7492797
  94.1538510  60.8184080  19.6450447  93.9892623  60.1928026  18.2763208
  88.4632921  56.2650940  24.2745379  88.3252719  55.5331179  24.8756918
  89.3737845  56.1759840  23.9929566  97.4247869  58.2039344   9.0229857
  96.8077040  57.4786173   8.9262910  96.9564358  58.9648705   8.6796931
  99.0802001  62.9138253  26.6835637  99.0214547  62.2297473  26.0166221
  99.4821519  63.6557243  26.2316263  89.8044156  52.9636117  25.5824698
  89.2681513  52.5126856  26.2346294  89.2160864  53.0982026  24.8395162
  88.0992700  69.7300167  19.4769356  88.3389298  70.3618691  20.1548375
  87.2561896  69.3788207  19.7634716  89.2146415  52.4224769   8.1451161
  88.3375881  52.3013569   7.7813408  89.6904168  51.6310847   7.8930050
  99.0819408  60.8777837  24.9149617  98.1946187  60.5403758  25.0376016
  99.6517959  60.1460868  25.1518383  80.7348555  57.2101928  18.2392669
  81.4219595  56.8963658  17.6513684  80.5796684  58.1143293  17.9659920
  85.5383277  52.0992125  22.6677692  85.4541466  51.4917795  21.9328102
  84.7165984  52.5901143  22.6687189  92.6120561  65.5379289  21.8810860
  92.5390733  66.3434261  22.3930165  92.1697954  65.7371255  21.0558882
  92.4010341  64.7751059  15.3913682  91.6177863  65.3172739  15.4851906
  93.1003086  65.2925039  15.7907923  95.7106991  50.5845689  18.0347887
  96.2075691  49.8315651  17.7148958  94.9393973  50.6210005  17.4691097
 103.5636749  56.2886054  19.6766179 103.5526625  57.1710769  19.3060112
 102.6954128  55.9357605  19.4820716  95.0719245  65.4366123  24.0369019
  95.7847217  66.0713588  23.9644920  94.5809274  65.5329989  23.2209021
  96.7936772  59.3417376  15.6086311  95.8593051  59.4618838  15.4391015
  96.9713440  58.4389843  15.3446321  92.2941960  52.7263072  17.7619572
  91.9239747  52.1734112  18.4500477  92.7901052  52.1221205  17.2094572
 100.1809323  55.1834695  16.1436345 100.6469775  56.0162687  16.0696647
 100.6316824  54.7179677  16.8481603  90.1231158  63.1860567  24.8574590
  90.8240618  63.8197049  25.0103984  89.6526273  63.5275298  24.0970229
  98.2485554  61.5278516  13.1422497  98.5245398  61.4135111  14.0516371
  97.3790053  61.1296001  13.1034670  98.1525986  47.5515282  20.1827246
  97.2389066  47.7819509  20.3509453  98.5819087  47.6353726  21.0341279
  97.9232444  55.7405174  22.6827140  97.2703895  55.9881081  22.0279593
  98.3012824  54.9269312  22.3489617  94.8839618  65.7764867  16.7855310
  95.0662013  64.9586523  17.2483063  95.7072604  65.9932559  16.3480200
  95.2181784  64.7033052  14.0470359  95.7469550  64.1925507  13.4340521
  95.4810003  64.3875582  14.9115892  85.7198876  62.7196922  21.7905693
  86.3052313  61.9740609  21.9233597  85.5223715  63.0300878  22.6742356
  88.5737532  65.7548169  16.8068135  87.9047907  66.2394297  16.3232175
  88.4350401  66.0017389  17.7211513  80.3116531  55.2902522  20.5110136
  80.3500631  54.7566112  21.3047254  79.8056824  54.7637727  19.8921113
  92.7142800  67.7891912  23.4050793  93.2661108  67.9523534  24.1699878
  93.0548994  68.3796350  22.7330818  87.6907294  50.1367062  24.0072678
  87.7548620  50.9981893  23.5950076  87.6274414  49.5241064  23.2745036
  87.1659566  52.2090195  27.6545712  87.7931605  51.8267272  28.2683237
  86.3087485  51.9904397  28.0201405  97.5653675  62.6153170  29.2599448
  98.1093579  63.2283128  28.7654403  96.9840519  63.1732748  29.7766461
  83.9425109  54.0166624  13.5864067  84.2378550  53.1077302  13.5331121
  83.0413145  53.9954363  13.2645069  95.8511188  65.7373888  20.3914475
  95.7262327  64.9363628  19.8825421  96.5090279  66.2320081  19.9028445
  87.4719356  52.0922621  19.5691616  86.7505942  52.7058588  19.4299089
  88.2612612  52.6280385  19.4908262  97.9146096  63.5382908  22.0194026
  96.9676431  63.4188259  21.9472352  98.2628869  62.6505406  22.1020287
  90.2745669  49.4277047  25.8432267  90.7980071  49.6739344  26.6058577
  90.0558003  50.2597082  25.4235405  85.6712950  51.6980722  13.7103392
  85.3425657  50.8178101  13.5278498  86.0252321  51.6428390  14.5979781
  94.9192529  63.3335624  18.2198378  94.7717492  62.4052332  18.4005948
  95.7446023  63.3555715  17.7355453  88.7854774  51.9853691  14.0778870
  89.1250846  52.5139613  13.3557478  89.2326894  52.3234098  14.8537436
  98.5226651  64.1564183  19.3063251  99.4473199  63.9507044  19.1687702
  98.3541954  63.9080584  20.2152592  91.4798214  50.3690742  23.5281938
  91.1395035  49.5698555  23.9302618  90.7737221  50.6692453  22.9558771
  92.1314686  47.4540055  21.9809261  92.9540756  46.9800533  21.8588151
  92.3752750  48.2330538  22.4807947  90.7722921  50.4828313  12.2772163
  91.4931283  50.8609566  11.7735880  90.1488225  51.2017190  12.3807141
  94.9154044  51.1873462  13.2130495  95.1317658  52.0698100  12.9119323
  94.4348111  50.7959675  12.4836137  89.6553265  54.1459175  19.7901240
  89.5097846  54.4599478  20.6825521  89.1778469  54.7644076  19.2372138
  91.5149648  51.1361723  19.8382129  91.5011217  50.2402816  19.5014427
  92.2322076  51.1432387  20.4720415  93.3675779  51.5699063  21.8835257
  93.1093556  52.4916134  21.8819587  92.8360819  51.1729498  22.5735721
  98.3121967  64.6749850  14.6625342  98.4858845  64.1096273  13.9099194
  98.8050859  65.4750745  14.4804832  84.1298927  56.6864520  22.7288901
  83.5852395  57.4624328  22.8609175  85.0078277  57.0335324  22.5708022
  90.9186544  50.0176103  15.1069699  91.0402455  49.0892750  15.3060587
  90.6288586  50.0314789  14.1948015  93.7877734  47.7031014  18.2436419
  93.8099431  47.7670347  17.2888399  94.2045793  46.8635523  18.4376925
 104.1661358  57.4386273  16.2815642 104.6092505  56.6893599  15.8834765
 103.2887869  57.4296410  15.8989374  99.2997140  63.9916615  11.7622240
  99.9948044  64.6123308  11.9809555  99.6420290  63.1411966  12.0374618
  84.9164949  55.8134416  25.6219058  84.1746685  55.9617051  26.2083688
  84.5957693  56.0742681  24.7585807 101.1988563  61.4416320  13.2909571
 101.7239887  61.7803593  12.5658891 101.1110915  60.5063336  13.1072706
  92.8608612  65.3550394  25.4199448  93.1695738  65.1099541  26.2922147
  93.6584094  65.5597033  24.9318318  92.8829224  67.5088304  17.6504824
  92.4434214  67.0164682  18.3437681  93.6337341  66.9661271  17.4096899
  85.3621563  63.6999845  17.6529452  86.1879583  63.4003616  17.2728096
  85.0115615  62.9307467  18.1019241  90.3303096  63.0526313  19.7227126
  89.7083105  62.3897018  19.4229354  91.0007963  63.0787445  19.0400774
  83.5630168  61.6186171  18.6118386  82.7262076  61.1908345  18.4302387
  83.5353813  61.8118614  19.5489177  90.4027623  51.5308101  29.3159632
  90.4515779  52.4070224  28.9337401  90.9450138  50.9885494  28.7431275
 100.8882469  62.0749224  28.5960769 100.0978013  62.0573363  28.0565268
 100.6515824  62.6137518  29.3509806 101.0080344  58.9241690  25.9093498
 101.0578349  58.7591698  26.8509020 100.8994267  58.0568949  25.5191378
  89.8916603  61.6030236  13.1985586  90.0404723  62.2865701  12.5452259
  90.6983046  61.5835326  13.7135042  98.2984106  54.9072618  27.2252804
  99.1993969  54.7679083  26.9336802  98.3732081  55.0727073  28.1650982
  92.6326912  52.2839473  26.0705991  91.7630221  52.5773039  25.7988579
  92.8686392  52.8679918  26.7913254 102.5098541  61.3438632  26.1535519
 102.2183349  61.7068613  26.9898980 101.8970672  60.6305640  25.9748851
 103.7094223  58.9091512  18.6738089 104.5441115  59.3481316  18.8375650
 103.8453352  58.4330165  17.8546335 100.7585729  56.4671247  24.6215577
 101.2339851  56.6598893  23.8134428  99.8351294  56.5230432  24.3758961
  87.6469236  57.6295414  14.2046655  87.4015278  56.7257744  14.4026865
  87.8165150  57.6312564  13.2626133  95.3365946  48.5019090  23.5871411
  95.8547889  49.2380117  23.2617899  94.9821078  48.8083083  24.4218170
  86.9164883  53.3623771  11.7032817  86.2234128  53.4368126  11.0472853
  86.6716635  52.5984115  12.2254334  95.5878540  44.9219373  19.1072308
  95.8680294  44.2542562  19.7332734  96.3729147  45.1148468  18.5946971
  93.3912008  64.0978367  10.6697334  92.8185975  64.7168554  10.2167806
  93.9644802  64.6477728  11.2037256  99.4587398  53.3437007  22.8543883
 100.4104821  53.4435104  22.8756107  99.2890849  52.5515275  23.3641967
  97.4801778  50.4292590  23.0403284  96.8851710  50.7097603  22.3449772
  97.1951474  50.9186491  23.8120025  96.6109268  64.3815517  11.8005916
  97.5439941  64.3161078  12.0038792  96.5232481  65.2171784  11.3420449
  99.2397285  63.6981387   8.7609864  99.1610916  63.3641251   9.6545622
 100.0606952  64.1903155   8.7601336 101.9375476  56.5643126  21.9686182
 101.9051796  55.6259127  22.1545866 102.5476100  56.6427163  21.2352007
  93.7758807  55.4339179   8.0113386  94.7217911  55.3045387   8.0801804
  93.3973052  54.6953841   8.4882814 102.0869964  53.3554170  22.0144465
 101.5709013  52.5712626  21.8274394 102.9709913  53.0272886  22.1790985
  99.7480691  47.0995185  17.9740278  99.5505512  46.7910274  18.8583610
 100.3580397  47.8256824  18.1038208 107.7552026  57.6259133  21.1092219
 108.4855414  57.3644421  21.6699922 107.1458971  56.8887855  21.1494287
 105.8367323  55.7666996  21.7066670 105.1100486  55.6322961  21.0983162
 105.4214610  56.0743824  22.5123388  91.9601724  53.3589156   7.9468272
  91.0533179  53.0622268   8.0230985  92.2377705  53.0618974   7.0802558
  82.8779664  54.6795519  18.3967318  82.5582449  53.8260827  18.1041692
  82.3313092  54.8944097  19.1525285  86.6559572  57.3957960  22.1136824
  86.8745582  58.3275068  22.1324858  87.0685346  57.0365935  22.8991628
  93.5763790  47.9026045  14.1012513  92.7664518  47.5573130  14.4767759
  94.2648207  47.5933589  14.6900124  95.5054338  46.9804092  15.7236809
  96.0585377  47.3999546  16.3826833  95.7424424  46.0539840  15.7659765
  90.7300509  50.2176091   8.0880251  91.5919673  50.5430989   8.3476068
  90.9150853  49.4307587   7.5753317  82.7467924  58.2998431  20.3660440
  82.0531396  57.8852383  19.8530394  83.4940915  58.3418967  19.7693858
  98.8833145  49.0904617  15.2315474  98.3031814  49.7489421  14.8493526
  98.6169078  48.2681962  14.8202891  97.3336711  48.4909675  17.4336794
  97.8336490  48.6026210  16.6251113  97.9772319  48.1870728  18.0737603
  84.6604667  58.2316684  18.2426454  84.6375355  58.3304372  17.2908338
  84.9705303  59.0781835  18.5643621  87.3192045  60.2892839  22.3573069
  88.2735298  60.2576782  22.2903000  87.1204568  59.8283463  23.1723295
  87.9091427  58.8593955  24.9243866  88.7284316  59.3538034  24.9478704
  88.1828235  57.9425924  24.8961434  97.6658023  51.2504708  14.2871822
  96.7783878  51.5354358  14.0692017  98.0812012  51.0898471  13.4399099
 101.0172559  51.2751229  18.0026161 101.7932949  51.7647681  18.2750778
 100.2920693  51.7009283  18.4598031 103.4545118  51.9878848  19.0600102
 104.0489609  51.7474584  18.3493410 103.5271701  51.2685979  19.6873638
  85.6742273  65.8312459  19.3743267  85.5396741  65.0712860  18.8081265
  85.2574336  66.5553359  18.9072056  96.8101236  61.0149382   8.3819842
  97.5137087  61.2199385   8.9977498  96.0863885  61.5826144   8.6468926
  97.6399047  56.7659244  14.5022112  97.5834248  57.2227795  13.6629745
  98.1927389  56.0049928  14.3244955 101.4503853  52.5548976  15.3272232
 101.1940787  52.1545611  16.1580439 100.8256721  53.2692770  15.2022371
 105.7616191  55.2945049  17.8343523 105.2015749  55.3638238  18.6075085
 105.1559694  55.1186033  17.1143019  88.8311399  66.7281776  19.5861709
  88.7143784  67.6727208  19.4840400  88.0103846  66.4255337  19.9747509
  98.7187934  61.4531912  10.4318302  99.5533538  61.0213110  10.2495777
  98.5572277  61.2813925  11.3595197  98.3733826  57.9564025  11.7974641
  98.3182630  57.7908296  10.8563085  97.7479881  58.6640058  11.9536831
  83.1626341  53.1932089  25.6236064  83.8085205  52.6831043  26.1123289
  82.9543492  53.9300771  26.1979489  91.6829952  47.4572134  11.3759960
  91.6708621  48.4013974  11.5328231  92.5753373  47.2742279  11.0819421
  89.8565913  67.3810038  22.8017638  90.7593160  67.4133648  23.1184133
  89.6303284  66.4510489  22.8163974  91.6119516  66.1341024  19.4627716
  90.6615147  66.1342886  19.3492089  91.9152002  65.3873759  18.9463751
  95.4982071  44.0514911  15.6305897  94.7314467  43.4973397  15.7762579
  95.9092776  44.1236779  16.4920048  87.5023832  50.3399706  29.7211078
  88.3655294  49.9836511  29.9314402  86.9289243  50.0013601  30.4086482
 107.3472209  71.9701563  20.5273479 107.9850619  71.8508310  19.8236819
 107.2293052  72.9182407  20.5861431 104.1561915  71.9228991  20.4635003
 103.8180427  71.8070056  19.5755538 105.0251683  71.5220156  20.4436010
 100.0148731  73.7764467  16.4531894  99.4513596  73.6854404  15.6848182
  99.9001126  72.9564372  16.9334387 104.6381698  73.0763843  26.4221209
 104.6270339  72.6816641  25.5501713 104.8002338  72.3429915  27.0154980
  97.5613163  75.2715659  19.2916115  98.3534455  74.9306484  18.8762414
  97.8009813  75.3810634  20.2118268 105.5948290  77.4435435  11.7646359
 104.9436269  78.0289515  11.3780373 106.3892652  77.9741630  11.8241397
  99.5203917  74.5324572  12.1633494 100.2934793  73.9853559  12.0246369
  99.8729316  75.3968821  12.3747955 101.3588959  75.8600954  25.3700393
 101.0678825  76.7646585  25.2547059 101.9945944  75.9017482  26.0844463
 102.2845166  73.2377803  21.9601753 102.8808739  73.0133825  21.2458716
 102.3420138  72.4962548  22.5627200 101.8570195  70.6917238   9.7951944
 102.1095715  70.1698760   9.0335407 100.9194754  70.5283384   9.8978627
 106.9013477  69.6953017  17.6026687 107.6876567  69.2772440  17.2517104
 107.1652182  70.5999109  17.7708335 107.0723555  75.1325867  12.3015344
 106.4369388  75.2060493  13.0136248 106.7420961  75.7219466  11.6234423
 112.3021905  69.6328250  18.5059665 113.0347077  69.0627467  18.7397495
 111.5461260  69.2449850  18.9466171 101.5766483  72.5945344  11.9976319
 101.4602741  71.9190248  12.6657403 101.6868743  72.1077718  11.1808472
 103.9198024  72.0555491  15.7023008 103.5556232  71.5286112  16.4135929
 104.7765140  71.6653960  15.5289493 109.8247325  63.3449824  22.9654274
 109.4930650  64.2145235  22.7415489 109.2292938  63.0286108  23.6448304
 103.5603511  67.0845391  10.6984356 103.7277914  67.9525627  11.0654827
 103.3700680  67.2472673   9.7745646 106.3178844  75.5462370  22.3650187
 106.0179568  76.4487409  22.2565994 105.9729904  75.2794553  23.2171340
  99.7691326  71.9976167  18.3986891  98.8441822  71.8652381  18.6064583
 100.0175739  72.7770386  18.8956834 109.7175988  68.0644910  20.0447624
 108.8092866  67.9960319  19.7506385 109.6663584  68.5416855  20.8729449
 103.5392732  69.5403049  11.6831023 103.4192357  69.9860099  12.5216503
 102.8445321  69.8888366  11.1244561  97.1300137  71.6409440  19.2330680
  97.2592518  71.8943919  20.1470092  96.4497588  72.2337148  18.9135335
 101.2999624  82.3106690  15.3321154 101.2223654  83.2614515  15.4109635
 100.6961268  81.9652563  15.9896081 103.7916854  69.4834556  27.9882521
 103.0150188  70.0428476  27.9785386 104.4307417  69.9691339  28.5097391
 111.5837635  66.2661348  21.8225498 110.9412015  66.5593882  21.1765293
 111.0792563  66.1514269  22.6278695 109.2377798  70.0124522  12.5111357
 110.1495654  70.2451908  12.3359055 108.7287445  70.5961566  11.9486436
 102.0463226  72.2920009  27.5500488 102.7877911  72.8305053  27.2735312
 101.3400212  72.9186298  27.7072040 107.5218566  74.4349150  26.1472650
 107.9301922  73.9931560  25.4027282 106.7995828  73.8601777  26.4006843
 103.8749636  69.3721756  23.5206207 104.7210831  69.7961170  23.6640856
 103.8148274  68.7155381  24.2144770 107.8447381  74.9950340  19.9024939
 107.2156243  75.1596054  19.2001007 107.4573043  75.4091950  20.6735903
 111.7236613  75.9304778  17.2569302 111.0387651  76.3103679  16.7066336
 111.8080462  76.5400105  17.9901250 107.0249081  67.0326125  25.1787380
 106.7810013  67.7868185  24.6421656 107.3009012  67.4111472  26.0134627
 108.9787544  73.5764737  23.8564646 109.1904439  74.2196497  23.1799027
 108.9317292  72.7427054  23.3886576 106.5813773  66.1882558  20.7601218
 105.7198252  66.4863811  21.0517956 106.6076208  66.4052957  19.8282251
 103.3975343  74.7324748  17.1675024 103.8613688  75.0112451  16.3779646
 103.1332141  73.8308193  16.9848114 100.2899424  74.2796230  20.1054787
 100.8600781  74.7083498  19.4672272 100.8807535  73.9978814  20.8038973
 102.3344229  70.8547901  13.9764589 103.0368272  71.3068944  14.4438515
 102.0024857  70.2131719  14.6044482 100.7824590  69.4459657  28.3515798
 100.1523251  70.1275938  28.5851195 100.6760678  69.3342739  27.4068937
  96.0769563  69.1131453  19.2781722  95.2868617  69.3688982  18.8021833
  96.5680810  69.9279791  19.3833763 110.0933372  76.4536692  22.0287003
 110.9150816  76.0516880  21.7469685 110.0895775  76.3504927  22.9803119
  98.0284308  69.4776033  16.2365199  97.2315471  69.5894727  16.7548695
  97.8009900  69.8162685  15.3706090 103.8589976  76.0020736  24.1847714
 103.9234408  76.4641143  25.0205886 103.1500899  75.3718101  24.3130024
  94.3607266  69.3661944  21.7096713  94.6115304  70.2508954  21.9754289
  94.8966814  69.1866545  20.9371805 118.1839365  72.7975441  18.3771975
 117.4303074  72.2282839  18.2215979 118.3186906  72.7638105  19.3242609
 103.5737993  77.6688843  14.0526694 103.4383668  78.5140379  14.4811542
 104.1147806  77.8708121  13.2892628 100.0605333  63.7480423  30.7141049
  99.6672278  63.1946622  31.3888694 100.8771473  64.0591002  31.1047567
  97.0267391  75.1864281  14.6254619  97.5391911  75.9807532  14.7760184
  97.6790103  74.4890572  14.5588221  98.8362275  78.3030038  16.7077372
  99.0128904  79.2248002  16.5198356  99.6319109  77.9888457  17.1371752
 102.9773294  65.1638302  28.3061306 103.7183007  65.7645455  28.2265768
 103.2091217  64.4215940  27.7479348  98.1214632  70.3494669  26.5839536
  98.0068147  69.4479927  26.8846634  97.2659150  70.5958366  26.2324352
 105.2006470  78.2912410  28.1827036 104.7570324  77.5048788  27.8647941
 105.8623683  78.4791560  27.5170927  99.9593591  79.8208211  22.7087715
 100.5101016  79.6925275  21.9364709  99.1205067  80.1203100  22.3582607
 107.2987708  78.5715210  26.2108437 107.2806183  79.3924091  25.7188707
 108.2207628  78.4469285  26.4358579 103.7560762  76.0859339  27.0531946
 104.2889099  75.3247627  26.8231254 103.2274843  75.7932991  27.7956100
 106.9230457  61.1919405  22.5825588 106.5794726  62.0821047  22.5064698
 107.2909419  61.0021063  21.7195173  94.9916307  73.5152936  15.4014190
  95.8291529  73.9249944  15.1847897  95.1694575  72.5752378  15.3714384
 106.8880739  71.1828016  11.0898023 106.3727363  71.9532621  11.3286410
 106.6158048  70.5093152  11.7131084 104.4727851  66.0277717  16.1483261
 103.6169447  65.6384567  15.9688900 104.8854802  66.1069678  15.2883047
 106.0026997  63.5624060  20.5474821 105.4991793  63.5254195  19.7342626
 106.2957604  64.4716803  20.6071477 102.2469883  63.6462790  19.5541003
 103.1122880  63.4505599  19.1946892 102.3147392  63.4173142  20.4810359
 111.8615014  73.9360371  13.0251196 111.0844456  73.5971530  12.5806358
 112.5406495  73.9412994  12.3506161 106.6767043  69.0555108  12.9157804
 106.3717178  69.3701257  13.7667947 107.6297485  69.1336528  12.9585137
 105.1213475  75.2145332  14.5650758 104.5934836  74.4798091  14.2523995
 104.6200977  75.9920008  14.3190726 110.1006321  73.4094352  19.6817804
 109.4429995  74.0993614  19.7697933 110.9046720  73.7990784  20.0251790
  99.8532202  65.8764998  16.9257369 100.4275954  65.6540179  16.1930562
 100.4403185  65.9453692  17.6785971 108.9111779  71.7638725  17.7321746
 109.4243661  72.3968717  18.2343456 109.5613003  71.1639920  17.3665106
 100.1801789  67.9069459  10.9453255  99.3439101  68.2444145  11.2662529
 100.0406559  67.7718439  10.0080392 102.1554870  62.7506247  15.6532439
 101.5019282  62.4355264  15.0289054 102.1135344  62.1281987  16.3792262
 103.2666075  73.0325542   7.5685731 102.3593136  72.8014795   7.7676880
 103.7637107  72.2363161   7.7559712 106.1734154  81.7423049  10.4882417
 105.4995852  82.0454746  11.0967375 106.5599976  82.5452129  10.1387874
 105.3892610  69.2388180  19.9780086 104.4715172  69.4603127  19.8201774
 105.8052754  69.3134491  19.1191794 106.1727658  70.6379596  15.1082767
 106.9199477  71.1500993  14.7989889 106.4419248  70.3163649  15.9687160
 104.4454308  73.1338137  12.0909721 103.5365527  72.8497170  12.1882191
 104.4749392  73.5537215  11.2313028 109.6773576  76.7444726  15.8600889
 109.2235903  75.9035636  15.9166079 109.0467542  77.3806125  16.1975669
 108.6206495  67.6736712  17.0901556 107.8829252  67.1614098  17.4211799
 108.8733269  67.2337094  16.2784833 108.1206515  78.5821223  16.7950707
 108.4129489  79.1426280  16.0763072 108.6305135  78.8749784  17.5503866
 108.7218122  60.4512964  17.6843325 109.0276999  59.5910328  17.3969240
 109.4470727  61.0430584  17.4842319  95.0142479  70.8543651  16.0724923
  94.8166878  70.2613012  15.3475990  94.4589143  70.5495861  16.7900862
 102.9939202  70.7466757  18.1919516 103.0487812  69.7940594  18.1161993
 102.1830404  70.9026196  18.6760815 104.1430396  74.6746880   9.4297800
 103.7049826  73.9582739   8.9703437 104.8840837  74.9022995   8.8682891
 100.9331562  69.3643817  15.9509895 100.1199428  69.6637988  16.3575087
 101.4290556  68.9699506  16.6684377 103.0840140  79.3601574  17.8844160
 103.0416319  79.5862420  16.9552692 104.0002839  79.1264949  18.0329961
 106.5305774  69.8285642  24.7824789 106.8855161  70.0557115  25.6419255
 107.1777905  70.1604018  24.1602044 112.2603511  72.9504077  15.4874118
 112.1221409  73.1405673  14.5595307 111.9039730  73.7123460  15.9442169
 100.4245637  66.9362173  21.5671130 101.0645016  66.7950932  20.8694093
  99.5923167  66.6496686  21.1909732 112.2872890  75.0180604  20.4985390
 112.7209397  74.9255894  21.3468444 113.0004471  74.9938105  19.8605406
 101.2005941  76.2364603  17.6806123 101.9946539  75.7414923  17.4788698
 100.4897633  75.7082466  17.3173828 106.0200785  78.6182699  22.0318490
 106.0737808  79.1873635  22.7996206 105.1515567  78.7884584  21.6672527
  97.5088704  70.3807685  13.7565875  96.5786292  70.3192140  13.9735837
  97.6046176  69.8583638  12.9602517  97.4274253  66.9062498  16.3444117
  97.6881071  67.8207831  16.2353277  98.2491426  66.4386940  16.4940730
  98.8999179  68.3200255  23.5142941  99.5722232  68.1117617  22.8655590
  98.0728965  68.1222341  23.0748174 113.1488440  75.0604305  23.0318275
 113.3424330  75.9650116  23.2777550 113.0489058  74.6011724  23.8656860
 104.8024751  64.9462196  25.5308602 104.1552666  65.6452145  25.4373079
 105.5725766  65.3798340  25.8984851 108.2103549  75.2111048  28.6059156
 108.0589055  74.9821600  27.6889239 108.2008228  76.1681649  28.6190501
 104.9788885  72.7842961  23.5905422 105.9080945  72.9354120  23.4174389
 104.5579915  72.8726981  22.7354069 103.7777217  76.8093625  21.3603960
 103.6388302  76.4412409  22.2329898 102.9891813  77.3241264  21.1887917
 104.3725369  81.9102721  12.7029496 104.5477124  81.4390765  13.5175119
 103.6858157  82.5368488  12.9310757 105.3282432  76.1875228  18.7492797
 104.9932265  76.1475998  19.6450447 104.8286378  75.5219944  18.2763208
  99.3026676  71.5942858  24.2745379  99.1646474  70.8623097  24.8756918
 100.2131599  71.5051758  23.9929566 108.2641624  73.5331262   9.0229857
 107.6470794  72.8078090   8.9262910 107.7958112  74.2940622   8.6796931
 101.9308977  71.3062817  23.7629058 102.6408595  70.6656009  23.7215677
 101.8878285  71.5575712  24.6855239 109.9195755  78.2430170  26.6835637
 109.8608301  77.5589391  26.0166221 110.3215274  78.9849160  26.2316263
 100.6437911  68.2928035  25.5824698 100.1075268  67.8418773  26.2346294
 100.0554619  68.4273944  24.8395162  98.9386454  85.0592084  19.4769356
  99.1783052  85.6910608  20.1548375  98.0955650  84.7080124  19.7634716
 100.0540169  67.7516686   8.1451161  99.1769636  67.6305487   7.7813408
 100.5297923  66.9602765   7.8930050 109.9213162  76.2069754  24.9149617
 109.0339941  75.8695676  25.0376016 110.4911714  75.4752786  25.1518383
  91.5742310  72.5393846  18.2392669  92.2613349  72.2255576  17.6513684
  91.4190438  73.4435211  17.9659920  96.3777032  67.4284043  22.6677692
  96.2935220  66.8209712  21.9328102  95.5559738  67.9193061  22.6687189
 103.4514316  80.8671207  21.8810860 103.3784487  81.6726178  22.3930165
 103.0091709  81.0663173  21.0558882 103.2404095  80.1042977  15.3913682
 102.4571617  80.6464657  15.4851906 103.9396841  80.6216956  15.7907923
 106.5500746  65.9137606  18.0347887 107.0469445  65.1607569  17.7148958
 105.7787727  65.9501923  17.4691097 114.4030503  71.6177972  19.6766179
 114.3920379  72.5002687  19.3060112 113.5347882  71.2649523  19.4820716
 105.9112999  80.7658041  24.0369019 106.6240972  81.4005506  23.9644920
 105.4203028  80.8621907  23.2209021 107.6330526  74.6709293  15.6086311
 106.6986805  74.7910756  15.4391015 107.8107195  73.7681760  15.3446321
 103.1335714  68.0554989  17.7619572 102.7633502  67.5026030  18.4500477
 103.6294807  67.4513123  17.2094572 111.0203078  70.5126613  16.1436345
 111.4863530  71.3454604  16.0696647 111.4710578  70.0471594  16.8481603
 100.9624913  78.5152484  24.8574590 101.6634372  79.1488967  25.0103984
 100.4920028  78.8567216  24.0970229 109.0879309  76.8570434  13.1422497
 109.3639153  76.7427029  14.0516371 108.2183807  76.4587919  13.1034670
 108.9919740  62.8807200  20.1827246 108.0782820  63.1111427  20.3509453
 109.4212842  62.9645644  21.0341279 108.7626199  71.0697092  22.6827140
 108.1097649  71.3172999  22.0279593 109.1406579  70.2561230  22.3489617
 105.7233373  81.1056785  16.7855310 105.9055767  80.2878441  17.2483063
 106.5466359  81.3224477  16.3480200 106.0575538  80.0324970  14.0470359
 106.5863305  79.5217425  13.4340521 106.3203758  79.7167500  14.9115892
 104.8113772  71.8116903  29.1693177 104.1354409  71.7111032  29.8395552
 105.6341406  71.6556116  29.6329174  96.5592631  78.0488839  21.7905693
  97.1446068  77.3032527  21.9233597  96.3617469  78.3592796  22.6742356
  99.4131286  81.0840087  16.8068135  98.7441661  81.5686214  16.3232175
  99.2744156  81.3309307  17.7211513  91.1510286  70.6194439  20.5110136
  91.1894385  70.0858030  21.3047254  90.6450579  70.0929645  19.8921113
 103.5536555  83.1183830  23.4050793 104.1054863  83.2815452  24.1699878
 103.8942748  83.7088268  22.7330818  98.5301048  65.4658980  24.0072678
  98.5942375  66.3273811  23.5950076  98.4668168  64.8532982  23.2745036
  98.0053321  67.5382113  27.6545712  98.6325359  67.1559190  28.2683237
  97.1481239  67.3196314  28.0201405 108.4047429  77.9445088  29.2599448
 108.9487333  78.5575046  28.7654403 107.8234274  78.5024666  29.7766461
  94.7818863  69.3458542  13.5864067  95.0772304  68.4369220  13.5331121
  93.8806899  69.3246281  13.2645069 106.6904942  81.0665806  20.3914475
 106.5656082  80.2655546  19.8825421 107.3484033  81.5611999  19.9028445
  98.3113110  67.4214538  19.5691616  97.5899696  68.0350506  19.4299089
  99.1006366  67.9572303  19.4908262 108.7539850  78.8674826  22.0194026
 107.8070186  78.7480177  21.9472352 109.1022624  77.9797324  22.1020287
 101.1139424  64.7568965  25.8432267 101.6373826  65.0031261  26.6058577
 100.8951757  65.5888999  25.4235405  96.5106705  67.0272639  13.7103392
  96.1819411  66.1470018  13.5278498  96.8646076  66.9720308  14.5979781
 105.7586284  78.6627542  18.2198378 105.6111246  77.7344249  18.4005948
 106.5839777  78.6847633  17.7355453  99.6248528  67.3145609  14.0778870
  99.9644601  67.8431530  13.3557478 100.0720649  67.6526015  14.8537436
 109.3620406  79.4856101  19.3063251 110.2866953  79.2798962  19.1687702
 109.1935709  79.2372502  20.2152592 102.3191969  65.6982660  23.5281938
 101.9788789  64.8990473  23.9302618 101.6130975  65.9984371  22.9558771
 102.9708441  62.7831972  21.9809261 103.7934510  62.3092450  21.8588151
 103.2146504  63.5622456  22.4807947 101.6116675  65.8120231  12.2772163
 102.3325038  66.1901483  11.7735880 100.9881979  66.5309107  12.3807141
 105.7547798  66.5165380  13.2130495 105.9711412  67.3990018  12.9119323
 105.2741865  66.1251593  12.4836137 100.4947019  69.4751093  19.7901240
 100.3491600  69.7891396  20.6825521 100.0172223  70.0935993  19.2372138
 102.3543402  66.4653641  19.8382129 102.3404971  65.5694734  19.5014427
 103.0715830  66.4724305  20.4720415 104.2069533  66.8990981  21.8835257
 103.9487311  67.8208052  21.8819587 103.6754573  66.5021416  22.5735721
 109.1515722  80.0041768  14.6625342 109.3252599  79.4388191  13.9099194
 109.6444613  80.8042663  14.4804832  94.9692682  72.0156437  22.7288901
  94.4246150  72.7916245  22.8609175  95.8472031  72.3627242  22.5708022
 101.7580298  65.3468021  15.1069699 101.8796209  64.4184667  15.3060587
 101.4682341  65.3606707  14.1948015 104.6271489  63.0322932  18.2436419
 104.6493185  63.0962265  17.2888399 105.0439548  62.1927440  18.4376925
 115.0055113  72.7678191  16.2815642 115.4486259  72.0185516  15.8834765
 114.1281623  72.7588327  15.8989374 110.1390894  79.3208533  11.7622240
 110.8341799  79.9415225  11.9809555 110.4814044  78.4703884  12.0374618
  95.7558703  71.1426334  25.6219058  95.0140440  71.2908969  26.2083688
  95.4351448  71.4034599  24.7585807 112.0382317  76.7708238  13.2909571
 112.5633642  77.1095511  12.5658891 111.9504670  75.8355253  13.1072706
 103.7002366  80.6842312  25.4199448 104.0089493  80.4391459  26.2922147
 104.4977848  80.8888950  24.9318318 103.7222978  82.8380221  17.6504824
 103.2827968  82.3456600  18.3437681 104.4731095  82.2953189  17.4096899
  96.2015317  79.0291762  17.6529452  97.0273337  78.7295534  17.2728096
  95.8509369  78.2599385  18.1019241 101.1696850  78.3818230  19.7227126
 100.5476860  77.7188935  19.4229354 101.8401717  78.4079362  19.0400774
  94.4023922  76.9478089  18.6118386  93.5655831  76.5200263  18.4302387
  94.3747568  77.1410532  19.5489177 101.2421378  66.8600018  29.3159632
 101.2909533  67.7362141  28.9337401 101.7843892  66.3177412  28.7431275
 111.7276223  77.4041142  28.5960769 110.9371767  77.3865281  28.0565268
 111.4909578  77.9429435  29.3509806 111.8474099  74.2533608  25.9093498
 111.8972103  74.0883616  26.8509020 111.7388022  73.3860867  25.5191378
 100.7310357  76.9322154  13.1985586 100.8798478  77.6157618  12.5452259
 101.5376801  76.9127244  13.7135042 109.1377861  70.2364536  27.2252804
 110.0387724  70.0971001  26.9336802 109.2125835  70.4018991  28.1650982
 103.4720666  67.6131391  26.0705991 102.6023976  67.9064957  25.7988579
 103.7080147  68.1971836  26.7913254 113.3492295  76.6730550  26.1535519
 113.0577104  77.0360530  26.9898980 112.7364427  75.9597558  25.9748851
 114.5487978  74.2383429  18.6738089 115.3834869  74.6773233  18.8375650
 114.6847106  73.7622083  17.8546335 111.5979484  71.7963164  24.6215577
 112.0733605  71.9890811  23.8134428 110.6745049  71.8522350  24.3758961
  98.4862990  72.9587331  14.2046655  98.2409032  72.0549661  14.4026865
  98.6558905  72.9604482  13.2626133 106.1759700  63.8311008  23.5871411
 106.6941644  64.5672035  23.2617899 105.8214833  64.1375001  24.4218170
  97.7558638  68.6915689  11.7032817  97.0627883  68.7660044  11.0472853
  97.5110390  67.9276033  12.2254334 106.4272294  60.2511290  19.1072308
 106.7074048  59.5834479  19.7332734 107.2122901  60.4440386  18.5946971
 104.2305763  79.4270284  10.6697334 103.6579730  80.0460471  10.2167806
 104.8038556  79.9769646  11.2037256 110.2981153  68.6728924  22.8543883
 111.2498575  68.7727022  22.8756107 110.1284603  67.8807193  23.3641967
 108.3195532  65.7584508  23.0403284 107.7245464  66.0389520  22.3449772
 108.0345229  66.2478408  23.8120025 107.4503023  79.7107434  11.8005916
 108.3833696  79.6452996  12.0038792 107.3626235  80.5463701  11.3420449
 110.0791039  79.0273305   8.7609864 110.0004671  78.6933168   9.6545622
 110.9000706  79.5195073   8.7601336 112.7769230  71.8935044  21.9686182
 112.7445550  70.9551045  22.1545866 113.3869854  71.9719081  21.2352007
 104.6152561  70.7631097   8.0113386 105.5611666  70.6337305   8.0801804
 104.2366806  70.0245759   8.4882814 112.9263719  68.6846087  22.0144465
 112.4102768  67.9004544  21.8274394 113.8103667  68.3564804  22.1790985
 110.5874446  62.4287103  17.9740278 110.3899267  62.1202191  18.8583610
 111.1974151  63.1548742  18.1038208 118.5945780  72.9551051  21.1092219
 119.3249169  72.6936339  21.6699922 117.9852726  72.2179773  21.1494287
 116.6761077  71.0958913  21.7066670 115.9494241  70.9614878  21.0983162
 116.2608364  71.4035742  22.5123388 104.4991254  74.8148843  29.4714043
 105.4194263  74.9927442  29.6654090 104.4640837  73.8704888  29.3193743
 102.7995478  68.6881073   7.9468272 101.8926934  68.3914186   8.0230985
 103.0771459  68.3910891   7.0802558  93.7173419  70.0087437  18.3967318
  93.3976203  69.1552745  18.1041692  93.1706847  70.2236015  19.1525285
  97.4953326  72.7249878  22.1136824  97.7139336  73.6566986  22.1324858
  97.9079100  72.3657852  22.8991628 104.4157544  63.2317963  14.1012513
 103.6058272  62.8865048  14.4767759 105.1041961  62.9225507  14.6900124
 106.3448092  62.3096010  15.7236809 106.8979131  62.7291463  16.3826833
 106.5818179  61.3831758  15.7659765 102.3681192  68.2983084  31.5039573
 102.2677919  69.2477441  31.4351664 102.1502734  67.9701322  30.6315643
 101.5694263  65.5468009   8.0880251 102.4313427  65.8722907   8.3476068
 101.7544607  64.7599505   7.5753317  93.5861679  73.6290348  20.3660440
  92.8925150  73.2144301  19.8530394  94.3334670  73.6710885  19.7693858
 109.7226899  64.4196535  15.2315474 109.1425569  65.0781339  14.8493526
 109.4562832  63.5973880  14.8202891 108.1730466  63.8201593  17.4336794
 108.6730244  63.9318127  16.6251113 108.8166074  63.5162646  18.0737603
 102.2312462  71.7280222  30.3204635 101.7479543  72.5280583  30.5268524
 102.3173401  71.7388167  29.3672079  95.4998421  73.5608602  18.2426454
  95.4769109  73.6596289  17.2908338  95.8099058  74.4073753  18.5643621
  98.1585799  75.6184757  22.3573069  99.1129053  75.5868699  22.2903000
  97.9598323  75.1575381  23.1723295  98.7485181  74.1885873  24.9243866
  99.5678070  74.6829952  24.9478704  99.0221989  73.2717841  24.8961434
 108.5051778  66.5796625  14.2871822 107.6177633  66.8646276  14.0692017
 108.9205767  66.4190389  13.4399099 111.8566314  66.6043146  18.0026161
 112.6326704  67.0939599  18.2750778 111.1314448  67.0301201  18.4598031
 114.2938872  67.3170766  19.0600102 114.8883363  67.0766502  18.3493410
 114.3665456  66.5977896  19.6873638  96.5136028  81.1604377  19.3743267
  96.3790496  80.4004777  18.8081265  96.0968090  81.8845276  18.9072056
 107.6494991  76.3441300   8.3819842 108.3530841  76.5491303   8.9977498
 106.9257640  76.9118062   8.6468926 108.4792801  72.0951161  14.5022112
 108.4228003  72.5519713  13.6629745 109.0321144  71.3341846  14.3244955
 112.2897607  67.8840893  15.3272232 112.0334541  67.4837529  16.1580439
 111.6650475  68.5984687  15.2022371 116.6009945  70.6236967  17.8343523
 116.0409503  70.6930156  18.6075085 115.9953448  70.4477951  17.1143019
  99.6705154  82.0573694  19.5861709  99.5537538  83.0019126  19.4840400
  98.8497600  81.7547255  19.9747509 109.5581688  76.7823829  10.4318302
 110.3927292  76.3505028  10.2495777 109.3966031  76.6105843  11.3595197
 109.2127581  73.2855943  11.7974641 109.1576384  73.1200214  10.8563085
 108.5873636  73.9931976  11.9536831  94.0020096  68.5224007  25.6236064
  94.6478959  68.0122961  26.1123289  93.7937247  69.2592689  26.1979489
 106.5273488  75.5904854  31.1228204 107.3964647  75.7645507  30.7614839
 106.0480239  76.4099271  31.0003933 102.5223706  62.7864052  11.3759960
 102.5102376  63.7305892  11.5328231 103.4147128  62.6034197  11.0819421
 100.6959668  82.7101956  22.8017638 101.5986915  82.7425566  23.1184133
 100.4697038  81.7802406  22.8163974 102.4513270  81.4632942  19.4627716
 101.5008901  81.4634804  19.3492089 102.7545756  80.7165677  18.9463751
 106.3375825  59.3806828  15.6305897 105.5708221  58.8265315  15.7762579
 106.7486530  59.4528697  16.4920048  98.3417587  65.6691624  29.7211078
  99.2049048  65.3128429  29.9314402  97.7682997  65.3305519  30.4086482
 118.1865963  87.2993480  20.5273479 118.8244373  87.1800228  19.8236819
 118.0686806  88.2474324  20.5861431 114.9955670  87.2520909  20.4635003
 114.6574181  87.1361973  19.5755538 115.8645438  86.8512074  20.4436010
 110.8542485  89.1056385  16.4531894 110.2907351  89.0146322  15.6848182
 110.7394881  88.2856289  16.9334387 115.4775453  88.4055760  26.4221209
 115.4664094  88.0108559  25.5501713 115.6396092  87.6721833  27.0154980
 108.4006917  90.6007577  19.2916115 109.1928209  90.2598401  18.8762414
 108.6403568  90.7102552  20.2118268 110.3597671  89.8616490  12.1633494
 111.1328547  89.3145477  12.0246369 110.7123070  90.7260739  12.3747955
 112.1982714  91.1892872  25.3700393 111.9072580  92.0938503  25.2547059
 112.8339698  91.2309400  26.0844463 113.1238921  88.5669721  21.9601753
 113.7202493  88.3425743  21.2458716 113.1813892  87.8254466  22.5627200
 117.7407232  85.0244934  17.6026687 118.5270321  84.6064357  17.2517104
 118.0045936  85.9291026  17.7708335 123.1415659  84.9620167  18.5059665
 123.8740831  84.3919384  18.7397495 122.3855015  84.5741768  18.9466171
 112.4160238  87.9237262  11.9976319 112.2996496  87.2482165  12.6657403
 112.5262498  87.4369636  11.1808472 114.7591779  87.3847409  15.7023008
 114.3949986  86.8578030  16.4135929 115.6158895  86.9945878  15.5289493
 120.6641079  78.6741742  22.9654274 120.3324404  79.5437153  22.7415489
 120.0686693  78.3578026  23.6448304 114.3997266  82.4137309  10.6984356
 114.5671668  83.2817545  11.0654827 114.2094435  82.5764590   9.7745646
 117.1572599  90.8754288  22.3650187 116.8573322  91.7779326  22.2565994
 116.8123658  90.6086471  23.2171340 110.6085080  87.3268084  18.3986891
 109.6835577  87.1944299  18.6064583 110.8569494  88.1062304  18.8956834
 120.5569743  83.3936828  20.0447624 119.6486620  83.3252236  19.7506385
 120.5057339  83.8708773  20.8729449 114.3786487  84.8694966  11.6831023
 114.2586112  85.3152017  12.5216503 113.6839075  85.2180284  11.1244561
 107.9693891  86.9701358  19.2330680 108.0986273  87.2235837  20.1470092
 107.2891343  87.5629066  18.9135335 114.6310609  84.8126473  27.9882521
 113.8543943  85.3720394  27.9785386 115.2701172  85.2983256  28.5097391
 122.4231389  81.5953266  21.8225498 121.7805769  81.8885799  21.1765293
 121.9186318  81.4806187  22.6278695 112.8856981  87.6211927  27.5500488
 113.6271665  88.1596971  27.2735312 112.1793966  88.2478215  27.7072040
 118.3612320  89.7641067  26.1472650 118.7695677  89.3223478  25.4027282
 117.6389582  89.1893695  26.4006843 114.7143391  84.7013674  23.5206207
 115.5604586  85.1253088  23.6640856 114.6542028  84.0447298  24.2144770
 118.6841135  90.3242258  19.9024939 118.0549998  90.4887972  19.2001007
 118.2966797  90.7383867  20.6735903 122.5630367  91.2596696  17.2569302
 121.8781405  91.6395597  16.7066336 122.6474216  91.8692022  17.9901250
 117.8642836  82.3618042  25.1787380 117.6203768  83.1160103  24.6421656
 118.1402766  82.7403390  26.0134627 119.8181299  88.9056655  23.8564646
 120.0298194  89.5488415  23.1799027 119.7711047  88.0718971  23.3886576
 117.4207528  81.5174475  20.7601218 116.5592007  81.8155729  21.0517956
 117.4469962  81.7344874  19.8282251 114.2369097  90.0616666  17.1675024
 114.7007443  90.3404369  16.3779646 113.9725895  89.1600110  16.9848114
 111.1293178  89.6088147  20.1054787 111.6994535  90.0375416  19.4672272
 111.7201290  89.3270732  20.8038973 113.1737983  86.1839818  13.9764589
 113.8762026  86.6360862  14.4438515 112.8418612  85.5423637  14.6044482
 111.6218345  84.7751575  28.3515798 110.9917005  85.4567856  28.5851195
 111.5154432  84.6634657  27.4068937 106.9163317  84.4423371  19.2781722
 106.1262371  84.6980899  18.8021833 107.4074564  85.2571709  19.3833763
 120.9327127  91.7828610  22.0287003 121.7544570  91.3808797  21.7469685
 120.9289529  91.6796844  22.9803119 108.8678062  84.8067950  16.2365199
 108.0709226  84.9186644  16.7548695 108.6403655  85.1454602  15.3706090
 114.6983730  91.3312653  24.1847714 114.7628163  91.7933061  25.0205886
 113.9894654  90.7010018  24.3130024 105.2001020  84.6953861  21.7096713
 105.4509058  85.5800871  21.9754289 105.7360568  84.5158463  20.9371805
 129.0233120  88.1267359  18.3771975 128.2696828  87.5574757  18.2215979
 129.1580661  88.0930023  19.3242609 110.8999087  79.0772341  30.7141049
 110.5066033  78.5238539  31.3888694 111.7165228  79.3882919  31.1047567
 107.8661145  90.5156199  14.6254619 108.3785666  91.3099449  14.7760184
 108.5183858  89.8182489  14.5588221 109.6756030  93.6321955  16.7077372
 109.8522658  94.5539920  16.5198356 110.4712863  93.3180374  17.1371752
 113.8167048  80.4930220  28.3061306 114.5576762  81.0937373  28.2265768
 114.0484971  79.7507858  27.7479348 108.9608386  85.6786587  26.5839536
 108.8461901  84.7771844  26.8846634 108.1052904  85.9250284  26.2324352
 116.0400224  93.6204327  28.1827036 115.5964078  92.8340706  27.8647941
 116.7017438  93.8083478  27.5170927 110.7987345  95.1500129  22.7087715
 111.3494770  95.0217192  21.9364709 109.9598821  95.4495018  22.3582607
 118.1381462  93.9007127  26.2108437 118.1199937  94.7216008  25.7188707
 119.0601382  93.7761203  26.4358579 114.5954516  91.4151257  27.0531946
 115.1282853  90.6539545  26.8231254 114.0668597  91.1224909  27.7956100
 117.7624211  76.5211323  22.5825588 117.4188481  77.4112964  22.5064698
 118.1303174  76.3312980  21.7195173 105.8310062  88.8444853  15.4014190
 106.6685284  89.2541862  15.1847897 106.0088330  87.9044295  15.3714384
 115.3121605  81.3569635  16.1483261 114.4563201  80.9676485  15.9688900
 115.7248557  81.4361595  15.2883047 116.8420752  78.8915978  20.5474821
 116.3385547  78.8546113  19.7342626 117.1351359  79.8008721  20.6071477
 113.0863638  78.9754708  19.5541003 113.9516634  78.7797516  19.1946892
 113.1541146  78.7465059  20.4810359 117.5160797  84.3847026  12.9157804
 117.2110933  84.6993175  13.7667947 118.4691239  84.4628446  12.9585137
 115.9607229  90.5437249  14.5650758 115.4328591  89.8090009  14.2523995
 115.4594732  91.3211926  14.3190726 120.9400075  88.7386270  19.6817804
 120.2823749  89.4285531  19.7697933 121.7440474  89.1282702  20.0251790
 110.6925957  81.2056916  16.9257369 111.2669709  80.9832097  16.1930562
 111.2796939  81.2745610  17.6785971 119.7505534  87.0930642  17.7321746
 120.2637416  87.7260634  18.2343456 120.4006758  86.4931838  17.3665106
 111.0195544  83.2361377  10.9453255 110.1832856  83.5736063  11.2662529
 110.8800313  83.1010356  10.0080392 112.9948624  78.0798164  15.6532439
 112.3413037  77.7647182  15.0289054 112.9529098  77.4573905  16.3792262
 116.2286365  84.5680098  19.9780086 115.3108926  84.7895045  19.8201774
 116.6446508  84.6426409  19.1191794 117.0121412  85.9671514  15.1082767
 117.7593231  86.4792911  14.7989889 117.2813002  85.6455566  15.9687160
 119.4600250  83.0028630  17.0901556 118.7223006  82.4906016  17.4211799
 119.7127023  82.5629012  16.2784833 119.5611877  75.7804882  17.6843325
 119.8670754  74.9202245  17.3969240 120.2864482  76.3722502  17.4842319
 105.8536233  86.1835569  16.0724923 105.6560633  85.5904929  15.3475990
 105.2982897  85.8787779  16.7900862 113.8332957  86.0758675  18.1919516
 113.8881566  85.1232511  18.1161993 113.0224159  86.2318114  18.6760815
 111.7725317  84.6935735  15.9509895 110.9593182  84.9929905  16.3575087
 112.2684311  84.2991424  16.6684377 113.9233894  94.6893492  17.8844160
 113.8810073  94.9154338  16.9552692 114.8396593  94.4556866  18.0329961
 117.3699528  85.1577559  24.7824789 117.7248916  85.3849032  25.6419255
 118.0171659  85.4895936  24.1602044 111.2639391  82.2654090  21.5671130
 111.9038771  82.1242849  20.8694093 110.4316922  81.9788604  21.1909732
 123.1266645  90.3472522  20.4985390 123.5603151  90.2547811  21.3468444
 123.8398226  90.3230023  19.8605406 112.0399695  91.5656521  17.6806123
 112.8340294  91.0706841  17.4788698 111.3291388  91.0374384  17.3173828
 116.8594540  93.9474616  22.0318490 116.9131562  94.5165553  22.7996206
 115.9909321  94.1176501  21.6672527 108.3482459  85.7099602  13.7565875
 107.4180047  85.6484058  13.9735837 108.4439931  85.1875555  12.9602517
 108.2668008  82.2354415  16.3444117 108.5274825  83.1499749  16.2353277
 109.0885180  81.7678858  16.4940730 109.7392933  83.6492172  23.5142941
 110.4115987  83.4409535  22.8655590 108.9122720  83.4514258  23.0748174
 123.9882194  90.3896223  23.0318275 124.1818084  91.2942033  23.2777550
 123.8882813  89.9303642  23.8656860 115.6418505  80.2754113  25.5308602
 114.9946420  80.9744063  25.4373079 116.4119521  80.7090257  25.8984851
 119.0497303  90.5402966  28.6059156 118.8982809  90.3113517  27.6889239
 119.0401983  91.4973567  28.6190501 115.8182639  88.1134878  23.5905422
 116.7474699  88.2646038  23.4174389 115.3973669  88.2018899  22.7354069
 114.6170971  92.1385543  21.3603960 114.4782057  91.7704327  22.2329898
 113.8285567  92.6533182  21.1887917 116.1676186  91.5167145  18.7492797
 115.8326019  91.4767915  19.6450447 115.6680132  90.8511861  18.2763208
 110.1420430  86.9234775  24.2745379 110.0040228  86.1915014  24.8756918
 111.0525354  86.8343676  23.9929566 112.7702731  86.6354735  23.7629058
 113.4802350  85.9947927  23.7215677 112.7272039  86.8867630  24.6855239
 120.7589510  93.5722088  26.6835637 120.7002056  92.8881308  26.0166221
 121.1609028  94.3141078  26.2316263 111.4831665  83.6219953  25.5824698
 110.9469022  83.1710691  26.2346294 110.8948373  83.7565861  24.8395162
 109.7780208 100.3884002  19.4769356 110.0176807 101.0202526  20.1548375
 108.9349405 100.0372042  19.7634716 110.8933924  83.0808604   8.1451161
 110.0163390  82.9597405   7.7813408 111.3691677  82.2894682   7.8930050
 120.7606917  91.5361672  24.9149617 119.8733696  91.1987594  25.0376016
 121.3305468  90.8044703  25.1518383 102.4136064  87.8685764  18.2392669
 103.1007104  87.5547494  17.6513684 102.2584193  88.7727128  17.9659920
 107.2170786  82.7575960  22.6677692 107.1328975  82.1501630  21.9328102
 106.3953493  83.2484979  22.6687189 114.2908070  96.1963124  21.8810860
 114.2178242  97.0018096  22.3930165 113.8485463  96.3955090  21.0558882
 117.3894500  81.2429524  18.0347887 117.8863200  80.4899486  17.7148958
 116.6181482  81.2793841  17.4691097 125.2424258  86.9469889  19.6766179
 125.2314134  87.8294605  19.3060112 124.3741637  86.5941440  19.4820716
 116.7506754  96.0949958  24.0369019 117.4634726  96.7297423  23.9644920
 116.2596783  96.1913824  23.2209021 118.4724281  90.0001211  15.6086311
 117.5380560  90.1202674  15.4391015 118.6500949  89.0973678  15.3446321
 113.9729469  83.3846907  17.7619572 113.6027256  82.8317947  18.4500477
 114.4688561  82.7805040  17.2094572 121.8596832  85.8418530  16.1436345
 122.3257284  86.6746522  16.0696647 122.3104333  85.3763512  16.8481603
 111.8018667  93.8444402  24.8574590 112.5028127  94.4780885  25.0103984
 111.3313782  94.1859133  24.0970229 119.8313495  78.2099117  20.1827246
 118.9176575  78.4403344  20.3509453 120.2606596  78.2937561  21.0341279
 119.6019953  86.3989009  22.6827140 118.9491404  86.6464917  22.0279593
 119.9800333  85.5853148  22.3489617 115.6507526  87.1408820  29.1693177
 114.9748163  87.0402950  29.8395552 116.4735160  86.9848034  29.6329174
 107.3986385  93.3780757  21.7905693 107.9839822  92.6324445  21.9233597
 107.2011224  93.6884714  22.6742356 110.2525041  96.4132004  16.8068135
 109.5835416  96.8978132  16.3232175 110.1137910  96.6601225  17.7211513
 101.9904040  85.9486357  20.5110136 102.0288140  85.4149948  21.3047254
 101.4844333  85.4221563  19.8921113 114.3930309  98.4475748  23.4050793
 114.9448617  98.6107369  24.1699878 114.7336503  99.0380186  22.7330818
 109.3694803  80.7950898  24.0072678 109.4336129  81.6565729  23.5950076
 109.3061923  80.1824899  23.2745036 108.8447075  82.8674030  27.6545712
 109.4719114  82.4851107  28.2683237 107.9874994  82.6488232  28.0201405
 119.2441184  93.2737005  29.2599448 119.7881088  93.8866964  28.7654403
 118.6628028  93.8316584  29.7766461 105.6212618  84.6750459  13.5864067
 105.9166059  83.7661138  13.5331121 104.7200654  84.6538199  13.2645069
 117.5298697  96.3957723  20.3914475 117.4049836  95.5947463  19.8825421
 118.1877788  96.8903917  19.9028445 109.1506865  82.7506456  19.5691616
 108.4293451  83.3642424  19.4299089 109.9400121  83.2864221  19.4908262
 119.5933605  94.1966743  22.0194026 118.6463940  94.0772095  21.9472352
 119.9416378  93.3089241  22.1020287 111.9533178  80.0860882  25.8432267
 112.4767580  80.3323179  26.6058577 111.7345512  80.9180917  25.4235405
 107.3500459  82.3564557  13.7103392 107.0213166  81.4761936  13.5278498
 107.7039830  82.3012226  14.5979781 116.5980038  93.9919460  18.2198378
 116.4505001  93.0636167  18.4005948 117.4233532  94.0139550  17.7355453
 110.4642283  82.6437527  14.0778870 110.8038355  83.1723448  13.3557478
 110.9114403  82.9817933  14.8537436 120.2014160  94.8148018  19.3063251
 121.1260708  94.6090880  19.1687702 120.0329463  94.5664420  20.2152592
 113.1585723  81.0274577  23.5281938 112.8182544  80.2282391  23.9302618
 112.4524730  81.3276288  22.9558771 113.8102195  78.1123890  21.9809261
 114.6328265  77.6384368  21.8588151 114.0540259  78.8914374  22.4807947
 112.4510430  81.1412148  12.2772163 113.1718792  81.5193401  11.7735880
 111.8275734  81.8601025  12.3807141 116.5941553  81.8457297  13.2130495
 116.8105167  82.7281935  12.9119323 116.1135620  81.4543511  12.4836137
 111.3340774  84.8043011  19.7901240 111.1885355  85.1183314  20.6825521
 110.8565978  85.4227911  19.2372138 113.1937157  81.7945559  19.8382129
 113.1798726  80.8986652  19.5014427 113.9109585  81.8016222  20.4720415
 115.0463288  82.2282899  21.8835257 114.7881065  83.1499969  21.8819587
 114.5148328  81.8313333  22.5735721 105.8086436  87.3448355  22.7288901
 105.2639904  88.1208163  22.8609175 106.6865786  87.6919159  22.5708022
 112.5974053  80.6759939  15.1069699 112.7189964  79.7476585  15.3060587
 112.3076095  80.6898625  14.1948015 115.4665243  78.3614849  18.2436419
 115.4886940  78.4254182  17.2888399 115.8833302  77.5219358  18.4376925
 125.8448867  88.0970109  16.2815642 126.2880014  87.3477434  15.8834765
 124.9675378  88.0880245  15.8989374 106.5952458  86.4718251  25.6219058
 105.8534194  86.6200887  26.2083688 106.2745202  86.7326517  24.7585807
 114.5396121  96.0134229  25.4199448 114.8483247  95.7683376  26.2922147
 115.3371603  96.2180868  24.9318318 114.5616733  98.1672139  17.6504824
 114.1221723  97.6748518  18.3437681 115.3124850  97.6245107  17.4096899
 107.0409072  94.3583680  17.6529452 107.8667092  94.0587452  17.2728096
 106.6903124  93.5891302  18.1019241 112.0090605  93.7110148  19.7227126
 111.3870614  93.0480853  19.4229354 112.6795472  93.7371280  19.0400774
 105.2417677  92.2770006  18.6118386 104.4049585  91.8492181  18.4302387
 105.2141322  92.4702450  19.5489177 112.0815132  82.1891936  29.3159632
 112.1303288  83.0654059  28.9337401 112.6237647  81.6469329  28.7431275
 122.5669978  92.7333059  28.5960769 121.7765522  92.7157198  28.0565268
 122.3303333  93.2721353  29.3509806 122.6867853  89.5825526  25.9093498
 122.7365858  89.4175533  26.8509020 122.5781776  88.7152785  25.5191378
 119.9771615  85.5656454  27.2252804 120.8781478  85.4262919  26.9336802
 120.0519590  85.7310909  28.1650982 114.3114421  82.9423309  26.0705991
 113.4417730  83.2356875  25.7988579 114.5473901  83.5263754  26.7913254
 124.1886050  92.0022467  26.1535519 123.8970858  92.3652448  26.9898980
 123.5758181  91.2889476  25.9748851 125.3881732  89.5675347  18.6738089
 126.2228624  90.0065151  18.8375650 125.5240861  89.0914000  17.8546335
 122.4373238  87.1255082  24.6215577 122.9127360  87.3182728  23.8134428
 121.5138803  87.1814268  24.3758961 109.3256745  88.2879249  14.2046655
 109.0802787  87.3841579  14.4026865 109.4952659  88.2896400  13.2626133
 117.0153455  79.1602926  23.5871411 117.5335398  79.8963952  23.2617899
 116.6608587  79.4666919  24.4218170 108.5952392  84.0207607  11.7032817
 107.9021637  84.0951962  11.0472853 108.3504144  83.2567950  12.2254334
 117.2666049  75.5803208  19.1072308 117.5467803  74.9126397  19.7332734
 118.0516656  75.7732304  18.5946971 121.1374907  84.0020842  22.8543883
 122.0892330  84.1018940  22.8756107 120.9678358  83.2099111  23.3641967
 119.1589287  81.0876425  23.0403284 118.5639219  81.3681438  22.3449772
 118.8738983  81.5770326  23.8120025 123.6162985  87.2226962  21.9686182
 123.5839305  86.2842962  22.1545866 124.2263609  87.3010998  21.2352007
 123.7657473  84.0138005  22.0144465 123.2496522  83.2296462  21.8274394
 124.6497422  83.6856722  22.1790985 121.4268200  77.7579021  17.9740278
 121.2293021  77.4494109  18.8583610 122.0367906  78.4840660  18.1038208
 129.4339535  88.2842969  21.1092219 130.1642923  88.0228257  21.6699922
 128.8246480  87.5471690  21.1494287 127.5154832  86.4250831  21.7066670
 126.7887995  86.2906796  21.0983162 127.1002119  86.7327660  22.5123388
 115.3385008  90.1440761  29.4714043 116.2588018  90.3219360  29.6654090
 115.3034591  89.1996806  29.3193743 104.5567173  85.3379354  18.3967318
 104.2369958  84.4844663  18.1041692 104.0100601  85.5527933  19.1525285
 108.3347081  88.0541795  22.1136824 108.5533091  88.9858903  22.1324858
 108.7472855  87.6949770  22.8991628 115.2551299  78.5609881  14.1012513
 114.4452027  78.2156966  14.4767759 115.9435716  78.2517425  14.6900124
 117.1841847  77.6387928  15.7236809 117.7372886  78.0583381  16.3826833
 117.4211933  76.7123676  15.7659765 113.2074946  83.6275001  31.5039573
 113.1071673  84.5769358  31.4351664 112.9896488  83.2993240  30.6315643
 112.4088018  80.8759926   8.0880251 113.2707182  81.2014825   8.3476068
 112.5938362  80.0891422   7.5753317 104.4255433  88.9582266  20.3660440
 103.7318905  88.5436219  19.8530394 105.1728424  89.0002802  19.7693858
 120.5620654  79.7488453  15.2315474 119.9819323  80.4073257  14.8493526
 120.2956587  78.9265797  14.8202891 119.0124220  79.1493510  17.4336794
 119.5123999  79.2610045  16.6251113 119.6559828  78.8454563  18.0737603
 113.0706216  87.0572140  30.3204635 112.5873298  87.8572500  30.5268524
 113.1567155  87.0680085  29.3672079 106.3392176  88.8900520  18.2426454
 106.3162864  88.9888207  17.2908338 106.6492812  89.7365671  18.5643621
 108.9979554  90.9476675  22.3573069 109.9522807  90.9160617  22.2903000
 108.7992077  90.4867299  23.1723295 109.5878936  89.5177791  24.9243866
 110.4071825  90.0121870  24.9478704 109.8615744  88.6009759  24.8961434
 119.3445532  81.9088543  14.2871822 118.4571387  82.1938194  14.0692017
 119.7599521  81.7482307  13.4399099 122.6960068  81.9335064  18.0026161
 123.4720458  82.4231517  18.2750778 121.9708202  82.3593118  18.4598031
 125.1332627  82.6462683  19.0600102 125.7277118  82.4058419  18.3493410
 125.2059210  81.9269814  19.6873638 107.3529782  96.4896294  19.3743267
 107.2184250  95.7296695  18.8081265 106.9361845  97.2137194  18.9072056
 119.3186556  87.4243079  14.5022112 119.2621757  87.8811630  13.6629745
 119.8714898  86.6633764  14.3244955 123.1291362  83.2132811  15.3272232
 122.8728296  82.8129447  16.1580439 122.5044230  83.9276605  15.2022371
 127.4403700  85.9528884  17.8343523 126.8803258  86.0222074  18.6075085
 126.8347203  85.7769869  17.1143019 110.5098908  97.3865611  19.5861709
 110.3931292  98.3311044  19.4840400 109.6891355  97.0839173  19.9747509
 104.8413850  83.8515925  25.6236064 105.4872714  83.3414879  26.1123289
 104.6331001  84.5884606  26.1979489 117.3667242  90.9196772  31.1228204
 118.2358402  91.0937424  30.7614839 116.8873994  91.7391189  31.0003933
 113.3617461  78.1155969  11.3759960 113.3496130  79.0597809  11.5328231
 114.2540882  77.9326115  11.0819421 111.5353422  98.0393873  22.8017638
 112.4380669  98.0717483  23.1184133 111.3090793  97.1094324  22.8163974
 113.2907024  96.7924860  19.4627716 112.3402655  96.7926721  19.3492089
 113.5939511  96.0457594  18.9463751 117.1769580  74.7098746  15.6305897
 116.4101976  74.1557233  15.7762579 117.5880285  74.7820615  16.4920048
 109.1811341  80.9983542  29.7211078 110.0442803  80.6420347  29.9314402
 108.6076752  80.6597437  30.4086482 126.3169207 103.7347678  26.4221209
 126.3057848 103.3400476  25.5501713 126.4789847 103.0013751  27.0154980
 131.5034834  94.0033659  22.9654274 131.1718159  94.8729070  22.7415489
 130.9080447  93.6869943  23.6448304 125.4704363 100.1418391  27.9882521
 124.6937697 100.7012311  27.9785386 126.1094926 100.6275174  28.5097391
 123.7250735 102.9503844  27.5500488 124.4665420 103.4888888  27.2735312
 123.0187721 103.5770133  27.7072040 125.5537145 100.0305592  23.5206207
 126.3998340 100.4545005  23.6640856 125.4935783  99.3739216  24.2144770
 128.7036590  97.6909960  25.1787380 128.4597522  98.4452021  24.6421656
 128.9796521  98.0695308  26.0134627 122.4612099 100.1043493  28.3515798
 121.8310760 100.7859773  28.5851195 122.3548187  99.9926574  27.4068937
 116.0394775 100.0245779  21.7096713 116.2902813 100.9092789  21.9754289
 116.5754323  99.8450381  20.9371805 121.7392842  94.4064258  30.7141049
 121.3459787  93.8530457  31.3888694 122.5558982  94.7174837  31.1047567
 124.6560803  95.8222138  28.3061306 125.3970516  96.4229291  28.2265768
 124.8878726  95.0799775  27.7479348 119.8002141 101.0078505  26.5839536
 119.6855656 100.1063762  26.8846634 118.9446659 101.2542202  26.2324352
 125.4348271 106.7443175  27.0531946 125.9676608 105.9831463  26.8231254
 124.9062352 106.4516826  27.7956100 128.6017966  91.8503240  22.5825588
 128.2582235  92.7404882  22.5064698 128.9696928  91.6604898  21.7195173
 123.9257392  94.3046625  19.5541003 124.7910389  94.1089434  19.1946892
 123.9934901  94.0756977  20.4810359 122.1033146  97.5946008  21.5671130
 122.7432525  97.4534767  20.8694093 121.2710676  97.3080521  21.1909732
 120.5786688  98.9784090  23.5142941 121.2509741  98.7701452  22.8655590
 119.7516474  98.7806176  23.0748174 126.4812260  95.6046031  25.5308602
 125.8340175  96.3035981  25.4373079 127.2513275  96.0382175  25.8984851
 129.8891058 105.8694883  28.6059156 129.7376564 105.6405435  27.6889239
 129.8795737 106.8265485  28.6190501 120.9814185 102.2526693  24.2745379
 120.8433983 101.5206932  24.8756918 121.8919108 102.1635593  23.9929566
 123.6096486 101.9646652  23.7629058 124.3196104 101.3239845  23.7215677
 123.5665794 102.2159547  24.6855239 122.3225419  98.9511870  25.5824698
 121.7862777  98.5002609  26.2346294 121.7342128  99.0857779  24.8395162
 118.0564541  98.0867878  22.6677692 117.9722729  97.4793548  21.9328102
 117.2347247  98.5776896  22.6687189 126.4901281 102.4700738  29.1693177
 125.8141918 102.3694867  29.8395552 127.3128915 102.3139952  29.6329174
 112.8297795 101.2778275  20.5110136 112.8681894 100.7441866  21.3047254
 112.3238088 100.7513480  19.8921113 120.2088557  96.1242815  24.0072678
 120.2729883  96.9857646  23.5950076 120.1455677  95.5116817  23.2745036
 119.6840830  98.1965948  27.6545712 120.3112868  97.8143025  28.2683237
 118.8268748  97.9780150  28.0201405 122.7926933  95.4152800  25.8432267
 123.3161335  95.6615097  26.6058577 122.5739266  96.2472835  25.4235405
 123.9979478  96.3566495  23.5281938 123.6576298  95.5574308  23.9302618
 123.2918484  96.6568206  22.9558771 124.6495950  93.4415808  21.9809261
 125.4722019  92.9676286  21.8588151 124.8934013  94.2206291  22.4807947
 125.8857042  97.5574816  21.8835257 125.6274820  98.4791887  21.8819587
 125.3542082  97.1605251  22.5735721 116.6480191 102.6740273  22.7288901
 116.1033659 103.4500081  22.8609175 117.5259540 103.0211077  22.5708022
 117.4346212 101.8010169  25.6219058 116.6927948 101.9492804  26.2083688
 117.1138957 102.0618434  24.7585807 122.9208887  97.5183854  29.3159632
 122.9697042  98.3945977  28.9337401 123.4631401  96.9761247  28.7431275
 130.8165370 100.8948371  27.2252804 131.7175233 100.7554836  26.9336802
 130.8913344 101.0602826  28.1650982 125.1508175  98.2715226  26.0705991
 124.2811485  98.5648792  25.7988579 125.3867656  98.8555671  26.7913254
 127.8547209  94.4894843  23.5871411 128.3729153  95.2255870  23.2617899
 127.5002342  94.7958836  24.4218170 129.9983041  96.4168343  23.0403284
 129.4032973  96.6973356  22.3449772 129.7132738  96.9062244  23.8120025
 126.1778763 105.4732678  29.4714043 127.0981772 105.6511278  29.6654090
 126.1428346 104.5288724  29.3193743 124.0468701  98.9566919  31.5039573
 123.9465428  99.9061276  31.4351664 123.8290243  98.6285158  30.6315643
 123.9099971 102.3864058  30.3204635 123.4267052 103.1864418  30.5268524
 123.9960910 102.3972003  29.3672079 120.4272690 104.8469709  24.9243866
 121.2465579 105.3413787  24.9478704 120.7009498 103.9301677  24.8961434
 115.6807605  99.1807842  25.6236064 116.3266468  98.6706796  26.1123289
 115.4724756  99.9176524  26.1979489 128.2060997 106.2488690  31.1228204
 129.0752156 106.4229342  30.7614839 127.7267748 107.0683107  31.0003933
 120.0205096  96.3275459  29.7211078 120.8836557  95.9712264  29.9314402
 119.4470506  95.9889354  30.4086482  82.9594191  19.4242130  13.1466516
  82.9482831  19.0294928  12.2747019  83.1214830  18.6908202  13.7400287
  79.6801452  22.2079242  12.0945700  79.3891318  23.1124872  11.9792366
  80.3158436  22.2495769  12.8089769  84.6391337  21.8940657   9.0895493
  84.3392060  22.7965696   8.9811301  84.2942396  21.6272840   9.9416646
  82.1129346  15.8312843  14.7127828  81.3362680  16.3906763  14.7030693
  82.7519909  16.3169626  15.2342698  80.3675719  18.6398296  14.2745795
  81.1090403  19.1783340  13.9980619  79.6612704  19.2664585  14.4317347
  85.8431058  20.7827437  12.8717956  86.2514414  20.3409847  12.1272589
  85.1208320  20.2080064  13.1252149  87.3000036  19.9243024  10.5809953
  87.5116932  20.5674784   9.9044334  87.2529785  19.0905341  10.1131883
  88.4145864  22.8014980   8.7532310  89.2363308  22.3995167   8.4714992
  88.4108267  22.6983214   9.7048426  82.1802468  22.3499023  10.9093020
  82.2446900  22.8119430  11.7451192  81.4713392  21.7196388  11.0375330
  83.5218962  24.6390697  14.9072343  83.0782816  23.8527076  14.5893247
  84.1836175  24.8269847  14.2416234  78.2806083  26.1686499   9.4333021
  78.8313508  26.0403562   8.6610015  77.4417559  26.4681388   9.0827914
  85.6200200  24.9193497  12.9353744  85.6018675  25.7402378  12.4434013
  86.5420120  24.7947572  13.1603885  82.0773254  22.4337626  13.7777252
  82.6101591  21.6725915  13.5476560  81.5487335  22.1411278  14.5201407
  90.6085383  21.3658892   7.2230696  91.0421889  21.2734181   8.0713750
  91.3216963  21.3416392   6.5850712  84.3413278  24.9660986   8.7563797
  84.3950300  25.5351922   9.5241513  83.4728059  25.1362871   8.3917834
  91.4700932  21.4082592   9.7563582  91.6636822  22.3128403  10.0022857
  91.3701550  20.9490011  10.5902167  86.5316041  21.5589335  15.3304462
  86.3801547  21.3299887  14.4134546  86.5220720  22.5159937  15.3435807
  88.2408247  24.5908458  13.4080944  88.1820794  23.9067678  12.7411527
  88.6427766  25.3327448  12.9561570  77.2598946  31.4070372   6.2014663
  77.4995545  32.0388896   6.8793682  76.4168143  31.0558412   6.4880022
  88.2425655  22.5548042  11.6394924  87.3552434  22.2173963  11.7621323
  88.8124206  21.8231073  11.8763689  81.7726808  27.2149494   8.6056167
  81.6996980  28.0204465   9.1175472  81.3304201  27.4141460   7.7804188
  84.2325492  27.1136328  10.7614326  84.9453464  27.7483793  10.6890227
  83.7415520  27.2100194   9.9454327  79.2837405  24.8630771  11.5819896
  79.9846865  25.4967254  11.7349291  78.8132520  25.2045503  10.8215536
  83.1326264  18.1595190  15.8938484  82.4566901  18.0589319  16.5640859
  83.9553898  18.0034404  16.3574481  81.8749047  29.4662117  10.1296100
  82.4267355  29.6293739  10.8945185  82.2155241  30.0566555   9.4576125
  86.7259921  24.2923375  15.9844754  87.2699825  24.9053333  15.4899709
  86.1446766  24.8502953  16.5011767  85.0117434  27.4144093   7.1159782
  84.8868574  26.6133833   6.6070728  85.6696525  27.9090286   6.6273752
  87.0752343  25.2153113   8.7439332  86.1282678  25.0958464   8.6717659
  87.4235116  24.3275611   8.8265594  87.6832898  25.8334388   6.0308557
  88.6079445  25.6277249   5.8933008  87.5148201  25.5850789   6.9397899
  82.0214858  27.0320599  12.1444754  82.3301985  26.7869746  13.0167454
  82.8190340  27.2367237  11.6563625  90.0488716  23.7519429  15.3206076
  89.2584259  23.7343568  14.7810575  89.8122070  24.2907723  16.0755112
  90.1686591  20.6011895  12.6338804  90.2184596  20.4361903  13.5754327
  90.0600514  19.7339154  12.2436685  87.4590353  16.5842823  13.9498111
  88.3600216  16.4449288  13.6582109  87.5338328  16.7497278  14.8896288
  91.6704788  23.0208837  12.8780826  91.3789596  23.3838817  13.7144287
  91.0576919  22.3075845  12.6994158  89.9191976  18.1441452  11.3460884
  90.3946097  18.3369098  10.5379735  88.9957541  18.2000637  11.1004267
  91.0981723  18.2413331   8.6931489  91.0658043  17.3029332   8.8791173
  91.7082346  18.3197368   7.9597314  96.9158273  19.3029338   7.8337526
  97.6461661  19.0414626   8.3945229  96.3065218  18.5658060   7.8739594
  94.9973570  17.4437201   8.4311977  94.2706733  17.3093166   7.8228469
  94.5820857  17.7514029   9.2368695  82.8203746  21.1627130  16.1959350
  83.7406756  21.3405729  16.3899396  82.7853329  20.2183176  16.0439049
  80.6893684  14.6461371  18.2284880  80.5890411  15.5955728  18.1596971
  80.4715226  14.3179610  17.3560950  80.5524954  18.0758510  17.0449942
  80.0692036  18.8758870  17.2513831  80.6385893  18.0866455  16.0917386
  84.8485980  21.9383142  17.8473511  85.7177140  22.1123794  17.4860146
  84.3692732  22.7577559  17.7249240  79.0172160  29.0580243   9.5262944
  79.9199407  29.0903853   9.8429439  78.7909530  28.1280694   9.5409280
  96.5078456  33.6471768   7.2518785  97.1456866  33.5278515   6.5482126
  96.3899299  34.5952612   7.3106738  93.3168162  33.5999196   7.1880310
  92.9786674  33.4840260   6.3000845  94.1857930  33.1990361   7.1681316
  89.1754978  35.4534672   3.1777201  88.6119843  35.3624609   2.4093489
  89.0607373  34.6334577   3.6579694  93.7987945  34.7534048  13.1466516
  93.7876586  34.3586846  12.2747019  93.9608585  34.0200120  13.7400287
  86.7219410  36.9485864   6.0161422  87.5140702  36.6076688   5.6007721
  86.9616060  37.0580839   6.9363575  94.7554536  39.1205640  -1.5108334
  94.1042516  39.7059720  -1.8974320  95.5498899  39.6511835  -1.4513297
  88.6810164  36.2094777  -1.1121200  89.4541040  35.6623764  -1.2508324
  89.0335562  37.0739026  -0.9006738  90.5195206  37.5371159  12.0945700
  90.2285072  38.4416790  11.9792366  91.1552191  37.5787687  12.8089769
  91.4451413  34.9148008   8.6847059  92.0414985  34.6904030   7.9704022
  91.5026385  34.1732753   9.2872507  96.0619724  31.3723222   4.3271993
  96.8482813  30.9542645   3.9762410  96.3258429  32.2769314   4.4953642
  96.2329802  36.8096072  -0.9739350  95.5975635  36.8830698  -0.2618445
  95.9027208  37.3989671  -1.6520270 101.4628151  31.3098455   5.2304972
 102.1953323  30.7397672   5.4642801 100.7067507  30.9220055   5.6711478
  93.0804271  33.7325696   2.4268314  92.7162478  33.2056317   3.1381236
  93.9371387  33.3424165   2.2534800  98.9853572  25.0220029   9.6899581
  98.6536897  25.8915440   9.4660796  98.3899185  24.7056313  10.3693611
  95.4785091  37.2232575   9.0895493  95.1785814  38.1257614   8.9811301
  95.1336151  36.9564758   9.9416646  88.9297573  33.6746372   5.1232198
  88.0048069  33.5422586   5.3309890  89.1781986  34.4540591   5.6202140
  98.8782235  29.7415115   6.7692931  97.9699112  29.6730523   6.4751692
  98.8269831  30.2187060   7.5974756  86.2906384  33.3179645   5.9575987
  86.4198765  33.5714124   6.8715399  85.6103835  33.9107353   5.6380642
  90.4605871  43.9876895   2.0566461  90.3829901  44.9384720   2.1354942
  89.8567515  43.6422768   2.7141387  92.9523101  31.1604761  14.7127828
  92.1756435  31.7198681  14.7030693  93.5913664  31.6461544  15.2342698
 100.7443881  27.9431553   8.5470805 100.1018262  28.2364087   7.9010599
 100.2398810  27.8284474   9.3524001  91.2069473  33.9690214  14.2745795
  91.9484158  34.5075258  13.9980619  90.5006459  34.5956503  14.4317347
  96.6824813  36.1119354  12.8717956  97.0908169  35.6701765  12.1272589
  95.9602074  35.5371982  13.1252149  93.0355883  31.0491961  10.2451513
  93.8817078  31.4731375  10.3886162  92.9754520  30.3925586  10.9390076
  97.0053627  36.6720545   6.6270245  96.3762490  36.8366259   5.9246313
  96.6179290  37.0862155   7.3981209 100.8842859  37.6074983   3.9814609
 100.1993897  37.9873884   3.4311642 100.9686709  38.2170310   4.7146557
  96.1855328  28.7096330  11.9032687  95.9416260  29.4638390  11.3666963
  96.4615259  29.0881677  12.7379934  98.1393791  35.2534942  10.5809953
  98.3510686  35.8966702   9.9044334  98.0923539  34.4197258  10.1131883
  95.7420020  27.8652763   7.4846525  94.8804499  28.1634016   7.7763262
  95.7682455  28.0823161   6.5527557  92.5581589  36.4094953   3.8920330
  93.0219935  36.6882656   3.1024953  92.2938387  35.5078398   3.7093421
  89.4505670  35.9566435   6.8300094  90.0207027  36.3853703   6.1917578
  90.0413782  35.6749019   7.5284279  91.4950475  32.5318106   0.7009896
  92.1974519  32.9839149   1.1683822  91.1631104  31.8901924   1.3289789
  89.9430837  31.1229862  15.0761105  89.3129497  31.8046143  15.3096502
  89.8366925  31.0112944  14.1314243  85.2375809  30.7901658   6.0027029
  84.4474863  31.0459187   5.5267140  85.7287057  31.6049996   6.1079070
  99.2539619  38.1306897   8.7532310 100.0757063  37.7287085   8.4714992
  99.2502022  38.0275132   9.7048426  87.1890555  31.1546237   2.9610506
  86.3921718  31.2664932   3.4794001  86.9616147  31.4932890   2.0951396
  93.0196222  37.6790941  10.9093020  93.0840655  38.1411348  11.7451192
  92.3107146  37.0488306  11.0375330  83.5213512  31.0432149   8.4342020
  83.7721551  31.9279159   8.6999596  84.0573061  30.8636750   7.6617112
  92.7344240  39.3459048   0.7772001  92.5989915  40.1910584   1.2056849
  93.2754052  39.5478326   0.0137935  89.2211580  25.4250628  17.4386356
  88.8278525  24.8716827  18.1134000  90.0377720  25.7361206  17.8292873
  86.1873637  36.8634486   1.3499926  86.6998158  37.6577736   1.5005491
  86.8396350  36.1660777   1.2833527  87.9968522  39.9800242   3.4322679
  88.1735150  40.9018207   3.2443663  88.7925356  39.6658662   3.8617059
  92.1379541  26.8408507  15.0306613  92.8789254  27.4415660  14.9511075
  92.3697463  26.0986145  14.4724655  87.2820879  32.0264874  13.3084842
  87.1674394  31.1250132  13.6091941  86.4265396  32.2728571  12.9569659
  94.3612716  39.9682615  14.9072343  93.9176571  39.1818993  14.5893247
  95.0229930  40.1561765  14.2416234  89.1199838  41.4978416   9.4333021
  89.6707263  41.3695480   8.6610015  88.2811313  41.7973305   9.0827914
  96.4593954  40.2485415  12.9353744  96.4412430  41.0694296  12.4434013
  97.3813874  40.1239490  13.1603885  92.9167009  37.7629544  13.7777252
  93.4495345  37.0017832  13.5476560  92.3881090  37.4703196  14.5201407
  96.0836704  22.8689610   9.3070894  95.7400973  23.7591252   9.2310005
  96.4515666  22.6791268   8.4440479  84.1522554  35.1923140   2.1259496
  84.9897776  35.6020149   1.9093204  84.3300822  34.2522583   2.0959690
  96.0486986  32.8598221  -2.1856671  95.5333610  33.6302826  -1.9468283
  95.7764295  32.1863357  -1.5623609  93.6334097  27.7047922   2.8728568
  92.7775694  27.3154772   2.6934206  94.0461049  27.7839883   2.0128353
  95.1633244  25.2394265   7.2720127  94.6598040  25.2024400   6.4587933
  95.4563851  26.1487008   7.3316784  91.4076130  25.3232995   6.2786309
  92.2729127  25.1275804   5.9192199  91.4753639  25.0943347   7.2055666
  95.8373289  30.7325313  -0.3596890  95.5323425  31.0471462   0.4913254
  96.7903732  30.8106733  -0.3169557  94.2819721  36.8915537   1.2896064
  93.7541083  36.1568296   0.9769302  93.7807224  37.6690213   1.0436033
  99.2612567  35.0864557   6.4063111  98.6036242  35.7763818   6.4943239
 100.0652967  35.4760989   6.7497097  98.0718026  33.4408930   4.4567053
  98.5849908  34.0738922   4.9588762  98.7219250  32.8410125   4.0910413
  95.3340400  43.4193254  -2.7872276  94.6602099  43.7224951  -2.1787319
  95.7206222  44.2222334  -3.1366819  94.5498857  30.9158385   6.7025393
  93.6321418  31.1373332   6.5447081  94.9659001  30.9904696   5.8437100
  95.3333905  32.3149801   1.8328073  96.0805724  32.8271198   1.5235195
  95.6025494  31.9933854   2.6932467  93.6060555  34.8108342  -1.1844972
  92.6971774  34.5267374  -1.0872503  93.6355639  35.2307420  -2.0441666
  98.8379822  38.4214931   2.5846195  98.3842149  37.5805841   2.6411386
  98.2073789  39.0576330   2.9220975  97.7812742  29.3506917   3.8146863
  97.0435499  28.8384303   4.1457105  98.0339515  28.9107299   3.0030139
  97.2812762  40.2591428   3.5196013  97.5735736  40.8196485   2.8008379
  97.7911382  40.5519989   4.2749172  92.1545449  32.4236962   4.9164823
  92.2094059  31.4710799   4.8407300  91.3436651  32.5796401   5.4006121
  90.0937809  31.0414022   2.6755202  89.2805674  31.3408193   3.0820394
  90.5896803  30.6469711   3.3929684  92.2446387  41.0371779   4.6089467
  92.2022566  41.2632625   3.6797999  93.1609086  40.8035154   4.7575268
  95.6912021  31.5055846  11.5070096  96.0461408  31.7327320  12.3664561
  96.3384152  31.8374223  10.8847351 101.4209757  34.6274282   2.2119425
 101.2827656  34.8175878   1.2840614 101.0645976  35.3893665   2.6687476
  89.5851884  28.6132378   8.2916437  90.2251263  28.4721137   7.5939400
  88.7529414  28.3266891   7.9155039 101.4479137  36.6950809   7.2230696
 101.8815644  36.6026098   8.0713750 102.1610718  36.6708310   6.5850712
  90.3612188  37.9134808   4.4051429  91.1552786  37.4185128   4.2034004
  89.6503880  37.3852671   4.0419135  95.1807032  40.2952903   8.7563797
  95.2344054  40.8643840   9.5241513  94.3121813  40.4654789   8.3917834
  88.0605425  29.9970460  10.2388248  88.7328479  29.7887822   9.5900897
  87.2335212  29.7992546   9.7993480 102.3094687  36.7374510   9.7563582
 102.5030577  37.6420321  10.0022857 102.2095305  36.2781929  10.5902167
  93.9630997  26.6232401  12.2553909  93.3158912  27.3222350  12.1618385
  94.7332013  27.0568545  12.6230157  97.3709795  36.8881253  15.3304462
  97.2195302  36.6591804  14.4134546  97.3614475  37.8451854  15.3435807
  94.1395132  34.4613166  10.3150729  95.0687192  34.6124325  10.1419696
  93.7186162  34.5497186   9.4599375  92.9383464  38.4863830   8.0849266
  92.7994549  38.1182614   8.9575204  92.1498060  39.0011469   7.9133224
  93.5331615  43.5872926  -0.5725197  93.7083371  43.1160970   0.2420426
  92.8464404  44.2138693  -0.3443936  94.4888679  37.8645433   5.4738104
  94.1538511  37.8246203   6.3695754  93.9892624  37.1990149   5.0008514
  88.4632923  33.2713063  10.9990685  88.3252721  32.5393302  11.6002224
  89.3737846  33.1821963  10.7174873  91.0915223  32.9833022  10.4874365
  91.8014842  32.3426214  10.4460983  91.0484531  33.2345917  11.4100546
  99.0802002  39.9200375  13.4080944  99.0214548  39.2359595  12.7411527
  99.4821520  40.6619365  12.9561570  89.8044157  29.9698240  12.3070004
  89.2681514  29.5188978  12.9591601  89.2160866  30.1044149  11.5640469
  88.0992701  46.7362289   6.2014663  88.3389299  47.3680813   6.8793682
  87.2561897  46.3850329   6.4880022  99.0819409  37.8839959  11.6394924
  98.1946188  37.5465881  11.7621323  99.6517960  37.1522991  11.8763689
  80.7348556  34.2164051   4.9637975  81.4219596  33.9025781   4.3758990
  80.5796685  35.1205416   4.6905227  85.5383279  29.1054248   9.3922999
  85.4541467  28.4979917   8.6573409  84.7165985  29.5963266   9.3932495
  92.6120563  42.5441412   8.6056167  92.5390734  43.3496383   9.1175472
  92.1697956  42.7433377   7.7804188  92.4010342  41.7813182   2.1158989
  91.6177864  42.3234862   2.2097213  93.1003087  42.2987161   2.5153230
  95.7106992  27.5907811   4.7593194  96.2075692  26.8377773   4.4394264
  94.9393974  27.6272128   4.1936403 103.5636750  33.2948177   6.4011485
 103.5526626  34.1772892   6.0305419 102.6954129  32.9419727   6.2066022
  95.0719246  42.4428246  10.7614326  95.7847218  43.0775710  10.6890227
  94.5809275  42.5392112   9.9454327  96.7936773  36.3479498   2.3331617
  95.8593052  36.4680961   2.1636322  96.9713442  35.4451965   2.0691627
  92.2941961  29.7325194   4.4864879  91.9239749  29.1796234   5.1745784
  92.7901054  29.1283328   3.9339879 100.1809324  32.1896818   2.8681651
 100.6469777  33.0224809   2.7941954 100.6316825  31.7241799   3.5726910
  90.1231160  40.1922689  11.5819896  90.8240619  40.8259172  11.7349291
  89.6526275  40.5337421  10.8215536  98.2485556  38.5340639  -0.1332196
  98.5245399  38.4197233   0.7761678  97.3790054  38.1358124  -0.1720023
  98.1525987  24.5577405   6.9072553  97.2389067  24.7881631   7.0754760
  98.5819089  24.6415849   7.7586585  97.9232446  32.7467297   9.4072447
  97.2703896  32.9943204   8.7524900  98.3012826  31.9331435   9.0734924
  94.8839620  42.7826990   3.5100617  95.0662014  41.9648646   3.9728369
  95.7072606  42.9994682   3.0725507  95.2181785  41.7095175   0.7715666
  95.7469551  41.1987629   0.1585828  95.4810005  41.3937705   1.6361199
  93.9720019  33.4887108  15.8938484  93.2960656  33.3881237  16.5640859
  94.7947653  33.3326321  16.3574481  85.7198878  39.7259044   8.5150999
  86.3052315  38.9802732   8.6478903  85.5223716  40.0363001   9.3987663
  88.5737533  42.7610292   3.5313442  87.9047908  43.2456419   3.0477482
  88.4350403  43.0079512   4.4456820  80.3116532  32.2964644   7.2355442
  80.3500632  31.7628235   8.0292560  79.8056825  31.7699850   6.6166419
  92.7142802  44.7954035  10.1296100  93.2661110  44.9585657  10.8945185
  93.0548995  45.3858473   9.4576125  87.6907295  27.1429185  10.7317985
  87.7548621  28.0044016  10.3195382  87.6274415  26.5303187   9.9990343
  87.1659567  29.2152317  14.3791019  87.7931606  28.8329395  14.9928543
  86.3087486  28.9966519  14.7446711  97.5653676  39.6215293  15.9844754
  98.1093580  40.2345251  15.4899709  96.9840521  40.1794871  16.5011767
  95.8511189  42.7436011   7.1159782  95.7262328  41.9425750   6.6070728
  96.5090280  43.2382204   6.6273752  87.4719357  29.0984743   6.2936922
  86.7505943  29.7120711   6.1544396  88.2612613  29.6342508   6.2153568
  97.9146097  40.5445031   8.7439332  96.9676433  40.4250382   8.6717659
  98.2628870  39.6567529   8.8265594  90.2745671  26.4339170  12.5677574
  90.7980072  26.6801466  13.3303883  90.0558004  27.2659204  12.1480711
  94.9192531  40.3397747   4.9443684  94.7717493  39.4114454   5.1251254
  95.7446024  40.3617838   4.4600760  98.5226652  41.1626306   6.0308557
  99.4473200  40.9569167   5.8933008  98.3541956  40.9142707   6.9397899
  91.4798216  27.3752865  10.2527245  91.1395036  26.5760678  10.6547924
  90.7737222  27.6754576   9.6804078  92.1314687  24.4602177   8.7054568
  92.9540757  23.9862655   8.5833458  92.3752751  25.2392661   9.2053254
  89.6553266  31.1521298   6.5146546  89.5097847  31.4661601   7.4070828
  89.1778470  31.7706198   5.9617445  91.5149649  28.1423846   6.5627436
  91.5011218  27.2464939   6.2259734  92.2322077  28.1494510   7.1965722
  93.3675780  28.5761186   8.6080563  93.1093558  29.4978257   8.6064894
  92.8360820  28.1791621   9.2981027  98.3121969  41.6811973   1.3870649
  98.4858846  41.1158396   0.6344501  98.8050860  42.4812868   1.2050139
  84.1298928  33.6926642   9.4534207  83.5852396  34.4686450   9.5854482
  85.0078278  34.0397447   9.2953329  93.7877735  24.7093136   4.9681726
  93.8099432  24.7732470   4.0133705  94.2045794  23.8697645   5.1622232
  99.2997141  40.9978737  -1.5132453  99.9948046  41.6185430  -1.2945138
  99.6420291  40.1474089  -1.2380075  84.9164950  32.8196538  12.3464364
  84.1746686  32.9679174  12.9328995  84.5957695  33.0804804  11.4831114
 101.1988564  38.4478443   0.0154878 101.7239888  38.7865716  -0.7095802
 101.1110917  37.5125458  -0.1681988  92.8608613  42.3612517  12.1444754
  93.1695739  42.1161663  13.0167454  93.6584095  42.5659155  11.6563625
  92.8829225  44.5150426   4.3750131  92.4434215  44.0226805   5.0682988
  93.6337342  43.9723394   4.1342206  85.3621564  40.7061967   4.3774759
  86.1879584  40.4065739   3.9973402  85.0115616  39.9369590   4.8264548
  90.3303097  40.0588435   6.4472433  89.7083106  39.3959140   6.1474660
  91.0007964  40.0849567   5.7646080  83.5630169  38.6248294   5.3363693
  82.7262077  38.1970468   5.1547694  83.5353814  38.8180737   6.2734484
  90.4027625  28.5370223  16.0404939  90.4515780  29.4132346  15.6582708
  90.9450139  27.9947616  15.4676582 100.8882470  39.0811347  15.3206076
 100.0978014  39.0635486  14.7810575 100.6515825  39.6199640  16.0755112
 101.0080345  35.9303813  12.6338804 101.0578350  35.7653820  13.5754327
 100.8994269  35.0631072  12.2436685  89.8916604  38.6092359  -0.0769107
  90.0404724  39.2927823  -0.7302434  90.6983047  38.5897449   0.4380349
  98.2984108  31.9134741  13.9498111  99.1993970  31.7741206  13.6582109
  98.3732082  32.0789196  14.8896288  92.6326913  29.2901596  12.7951297
  91.7630222  29.5835162  12.5233886  92.8686393  29.8742041  13.5158561
 102.5098542  38.3500755  12.8780826 102.2183350  38.7130735  13.7144287
 101.8970673  37.6367763  12.6994158 103.7094224  35.9153634   5.3983396
 104.5441116  36.3543438   5.5620956 103.8453353  35.4392288   4.5791642
 100.7585730  33.4733369  11.3460884 101.2339852  33.6661015  10.5379735
  99.8351296  33.5292555  11.1004267  87.6469237  34.6357536   0.9291962
  87.4015279  33.7319866   1.1272172  87.8165152  34.6374687  -0.0128560
  95.3365947  25.5081213  10.3116718  95.8547891  26.2442240   9.9863206
  94.9821080  25.8145206  11.1463477  95.5878541  21.9281495   5.8317614
  95.8680295  21.2604684   6.4578041  96.3729148  22.1210591   5.3192278
  93.3912010  41.1040489  -2.6057360  92.8185977  41.7230676  -3.0586888
  93.9644803  41.6539851  -2.0717438  99.4587399  30.3499129   9.5789189
 100.4104822  30.4497227   9.6001413  99.2890850  29.5577398  10.0887274
  97.4801779  27.4354712   9.7648590  96.8851711  27.7159725   9.0695079
  97.1951476  27.9248613  10.5365331  96.6109269  41.3877639  -1.4748777
  97.5439942  41.3223201  -1.2715902  96.5232482  42.2233906  -1.9334245
 101.9375477  33.5705249   8.6931489 101.9051797  32.6321250   8.8791173
 102.5476101  33.6489286   7.9597314 102.0869966  30.3616292   8.7389772
 101.5709014  29.5774749   8.5519701 102.9709914  30.0335009   8.9036292
 107.7552027  34.6321256   7.8337526 108.4855415  34.3706544   8.3945229
 107.1458972  33.8949978   7.8739594 105.8367324  32.7729118   8.4311977
 105.1100488  32.6385083   7.8228469 105.4214611  33.0805947   9.2368695
  93.6597501  36.4919048  16.1959350  94.5800510  36.6697647  16.3899396
  93.6247084  35.5475093  16.0439049  82.8779666  31.6857642   5.1212625
  82.5582450  30.8322950   4.8286999  82.3313094  31.9006220   5.8770592
  86.6559573  34.4020083   8.8382131  86.8745583  35.3337191   8.8570165
  87.0685347  34.0428057   9.6236935  91.5287438  29.9753288  18.2284880
  91.4284165  30.9247645  18.1596971  91.3108980  29.6471527  17.3560950
  82.7467926  35.3060553   7.0905746  82.0531397  34.8914506   6.5775701
  83.4940917  35.3481090   6.4939165  91.3918708  33.4050427  17.0449942
  90.9085790  34.2050787  17.2513831  91.4779648  33.4158372  16.0917386
  84.6604668  35.2378807   4.9671761  84.6375356  35.3366494   4.0153644
  84.9705305  36.0843958   5.2888927  87.3192046  37.2954962   9.0818375
  88.2735300  37.2638904   9.0148307  87.1204570  36.8345586   9.8968601
  87.9091428  35.8656078  11.6489173  88.7284317  36.3600157  11.6724010
  88.1828236  34.9488046  11.6206741 101.0172560  28.2813351   4.7271468
 101.7932951  28.7709804   4.9996085 100.2920695  28.7071406   5.1843337
  85.6742275  42.8374582   6.0988573  85.5396743  42.0774982   5.5326571
  85.2574337  43.5615481   5.6317362  97.6399048  33.7721366   1.2267419
  97.5834249  34.2289918   0.3875051  98.1927390  33.0112051   1.0490262
  88.8311401  43.7343899   6.3107016  88.7143785  44.6789331   6.2085706
  88.0103847  43.4317460   6.6992815  83.1626342  30.1994212  12.3481370
  83.8085206  29.6893166  12.8368595  82.9543493  30.9362894  12.9224795
  95.6879735  37.2675059  17.8473511  96.5570894  37.4415712  17.4860146
  95.2086486  38.0869476  17.7249240  89.8565915  44.3872160   9.5262944
  90.7593161  44.4195771   9.8429439  89.6303285  43.4572611   9.5409280
  91.6119517  43.1403147   6.1873023  90.6615148  43.1405009   6.0737395
  91.9152003  42.3935882   5.6709058  87.5023833  27.3461829  16.4456384
  88.3655295  26.9898634  16.6559709  86.9289244  27.0075724  17.1331789
 107.3472210  48.9763685   7.2518785 107.9850620  48.8570433   6.5482126
 107.2293053  49.9244529   7.3106738 104.1561917  48.9291113   7.1880310
 103.8180428  48.8132178   6.3000845 105.0251685  48.5282279   7.1681316
 100.0148732  50.7826590   3.1777201  99.4513597  50.6916527   2.4093489
  99.9001127  49.9626494   3.6579694 104.6381700  50.0825965  13.1466516
 104.6270340  49.6878763  12.2747019 104.8002339  49.3492038  13.7400287
  97.5613164  52.2777781   6.0161422  98.3534456  51.9368606   5.6007721
  97.8009814  52.3872757   6.9363575 105.5948291  54.4497558  -1.5108334
 104.9436271  55.0351638  -1.8974320 106.3892654  54.9803752  -1.4513297
  99.5203918  51.5386695  -1.1121200 100.2934794  50.9915682  -1.2508324
  99.8729317  52.4030944  -0.9006738 101.3588961  52.8663077  12.0945700
 101.0678827  53.7708708  11.9792366 101.9945945  52.9079605  12.8089769
 102.2845168  50.2439926   8.6847059 102.8808740  50.0195948   7.9704022
 102.3420139  49.5024671   9.2872507 101.8570196  47.6979361  -3.4802750
 102.1095717  47.1760882  -4.2419287 100.9194755  47.5345506  -3.3776066
 106.9013479  46.7015139   4.3271993 107.6876568  46.2834562   3.9762410
 107.1652183  47.6061231   4.4953642 107.0723556  52.1387990  -0.9739350
 106.4369389  52.2122616  -0.2618445 106.7420963  52.7281588  -1.6520270
 112.3021906  46.6390372   5.2304972 113.0347078  46.0689589   5.4642801
 111.5461262  46.2511973   5.6711478 101.5766485  49.6007467  -1.2778375
 101.4602743  48.9252370  -0.6097290 101.6868745  49.1139841  -2.0946222
 103.9198026  49.0617614   2.4268314 103.5556233  48.5348235   3.1381236
 104.7765142  48.6716083   2.2534800 109.8247326  40.3511947   9.6899581
 109.4930651  41.2207357   9.4660796 109.2292940  40.0348231  10.3693611
 106.3178846  52.5524493   9.0895493 106.0179569  53.4549531   8.9811301
 105.9729905  52.2856676   9.9416646  99.7691327  49.0038289   5.1232198
  98.8441824  48.8714503   5.3309890 100.0175740  49.7832509   5.6202140
 109.7175990  45.0707033   6.7692931 108.8092867  45.0022441   6.4751692
 109.6663585  45.5478978   7.5974756 103.5392733  46.5465171  -1.5923670
 103.4192359  46.9922222  -0.7538190 102.8445322  46.8950489  -2.1510132
  97.1300138  48.6471563   5.9575987  97.2592519  48.9006042   6.8715399
  96.4497590  49.2399271   5.6380642 101.2999626  59.3168813   2.0566461
 101.2223655  60.2676638   2.1354942 100.6961269  58.9714685   2.7141387
 103.7916855  46.4896678  14.7127828 103.0150189  47.0490598  14.7030693
 104.4307418  46.9753461  15.2342698 111.5837636  43.2723471   8.5470805
 110.9412016  43.5656004   7.9010599 111.0792564  43.1576391   9.3524001
 102.0463228  49.2982132  14.2745795 102.7877912  49.8367176  13.9980619
 101.3400213  49.9248420  14.4317347 107.5218567  51.4411272  12.8717956
 107.9301923  50.9993683  12.1272589 106.7995829  50.8663900  13.1252149
 103.8749637  46.3783879  10.2451513 104.7210833  46.8023292  10.3886162
 103.8148275  45.7217503  10.9390076 107.8447382  52.0012463   6.6270245
 107.2156244  52.1658177   5.9246313 107.4573044  52.4154072   7.3981209
 111.7236614  52.9366901   3.9814609 111.0387652  53.3165802   3.4311642
 111.8080463  53.5462227   4.7146557 107.0249083  44.0388247  11.9032687
 106.7810015  44.7930308  11.3666963 107.3009013  44.4173595  12.7379934
 108.9787545  50.5826860  10.5809953 109.1904441  51.2258620   9.9044334
 108.9317294  49.7489176  10.1131883 106.5813774  43.1944680   7.4846525
 105.7198253  43.4925934   7.7763262 106.6076209  43.4115079   6.5527557
 103.3975344  51.7386871   3.8920330 103.8613689  52.0174574   3.1024953
 103.1332142  50.8370315   3.7093421 100.2899425  51.2858352   6.8300094
 100.8600782  51.7145621   6.1917578 100.8807537  51.0040937   7.5284279
 102.3344230  47.8610023   0.7009896 103.0368273  48.3131067   1.1683822
 102.0024858  47.2193842   1.3289789 100.7824591  46.4521780  15.0761105
 100.1523252  47.1338061  15.3096502 100.6760679  46.3404861  14.1314243
  96.0769564  46.1193576   6.0027029  95.2868618  46.3751104   5.5267140
  96.5680811  46.9341914   6.1079070 110.0933373  53.4598815   8.7532310
 110.9150817  53.0579002   8.4714992 110.0895776  53.3567049   9.7048426
  98.0284309  46.4838155   2.9610506  97.2315472  46.5956849   3.4794001
  97.8009901  46.8224807   2.0951396 103.8589977  53.0082858  10.9093020
 103.9234409  53.4703266  11.7451192 103.1500901  52.3780223  11.0375330
  94.3607267  46.3724066   8.4342020  94.6115305  47.2571076   8.6999596
  94.8966815  46.1928668   7.6617112 103.5737994  54.6750966   0.7772001
 103.4383669  55.5202502   1.2056849 104.1147807  54.8770243   0.0137935
 100.0605334  40.7542546  17.4386356  99.6672280  40.2008744  18.1134000
 100.8771474  41.0653124  17.8292873  97.0267392  52.1926404   1.3499926
  97.5391912  52.9869654   1.5005491  97.6790105  51.4952694   1.2833527
  98.8362277  55.3092160   3.4322679  99.0128905  56.2310125   3.2443663
  99.6319110  54.9950579   3.8617059 102.9773295  42.1700425  15.0306613
 103.7183008  42.7707578  14.9511075 103.2091218  41.4278063  14.4724655
  98.1214633  47.3556792  13.3084842  98.0068148  46.4542049  13.6091941
  97.2659151  47.6020489  12.9569659 105.2006471  55.2974532  14.9072343
 104.7570325  54.5110911  14.5893247 105.8623684  55.4853683  14.2416234
  99.9593592  56.8270334   9.4333021 100.5101017  56.6987397   8.6610015
  99.1205068  57.1265223   9.0827914 107.2987709  55.5777332  12.9353744
 107.2806184  56.3986213  12.4434013 108.2207629  55.4531407  13.1603885
 103.7560763  53.0921462  13.7777252 104.2889100  52.3309750  13.5476560
 103.2274844  52.7995114  14.5201407 106.9230458  38.1981528   9.3070894
 106.5794727  39.0883169   9.2310005 107.2909421  38.0083185   8.4440479
  94.9916309  50.5215058   2.1259496  95.8291531  50.9312067   1.9093204
  95.1694576  49.5814500   2.0959690 106.8880741  48.1890139  -2.1856671
 106.3727364  48.9594743  -1.9468283 106.6158049  47.5155275  -1.5623609
 104.4727852  43.0339840   2.8728568 103.6169448  42.6446690   2.6934206
 104.8854804  43.1131800   2.0128353 106.0026998  40.5686183   7.2720127
 105.4991794  40.5316318   6.4587933 106.2957605  41.4778926   7.3316784
 102.2469884  40.6524913   6.2786309 103.1122881  40.4567721   5.9192199
 102.3147393  40.4235264   7.2055666 106.6767044  46.0617231  -0.3596890
 106.3717179  46.3763380   0.4913254 107.6297486  46.1398651  -0.3169557
 105.1213476  52.2207454   1.2896064 104.5934837  51.4860214   0.9769302
 104.6200978  52.9982131   1.0436033 110.1006322  50.4156475   6.4063111
 109.4429996  51.1055736   6.4943239 110.9046721  50.8052907   6.7497097
  99.8532203  42.8827121   3.6502676 100.4275955  42.6602302   2.9175869
 100.4403186  42.9515815   4.4031277 108.9111781  48.7700847   4.4567053
 109.4243662  49.4030839   4.9588762 109.5613004  48.1702043   4.0910413
 100.1801790  44.9131582  -2.3301439  99.3439103  45.2506268  -2.0092164
 100.0406560  44.7780561  -3.2674302 102.1554871  39.7568369   2.3777745
 101.5019283  39.4417387   1.7534360 102.1135345  39.1344110   3.1037568
 106.1734155  58.7485172  -2.7872276 105.4995854  59.0516868  -2.1787319
 106.5599977  59.5514252  -3.1366819 105.3892611  46.2450303   6.7025393
 104.4715173  46.4665250   6.5447081 105.8052755  46.3196613   5.8437100
 106.1727659  47.6441719   1.8328073 106.9199478  48.1563116   1.5235195
 106.4419249  47.3225771   2.6932467 104.4454309  50.1400259  -1.1844972
 103.5365529  49.8559292  -1.0872503 104.4749393  50.5599338  -2.0441666
 109.6773577  53.7506849   2.5846195 109.2235904  52.9097759   2.6411386
 109.0467544  54.3868247   2.9220975 108.6206496  44.6798835   3.8146863
 107.8829253  44.1676221   4.1457105 108.8733270  44.2399216   3.0030139
 108.1206516  55.5883346   3.5196013 108.4129490  56.1488403   2.8008379
 108.6305137  55.8811907   4.2749172  95.0142480  47.8605773   2.7970230
  94.8166880  47.2675134   2.0721296  94.4589144  47.5557984   3.5146169
 102.9939203  47.7528880   4.9164823 103.0487813  46.8002716   4.8407300
 102.1830405  47.9088319   5.4006121 104.1430397  51.6809003  -3.8456894
 103.7049827  50.9644862  -4.3051256 104.8840838  51.9085118  -4.4071802
 100.9331563  46.3705940   2.6755202 100.1199429  46.6700110   3.0820394
 101.4290558  45.9761628   3.3929684 103.0840141  56.3663697   4.6089467
 103.0416320  56.5924543   3.6797999 104.0002840  56.1327071   4.7575268
 106.5305775  46.8347764  11.5070096 106.8855163  47.0619237  12.3664561
 107.1777906  47.1666141  10.8847351 112.2603512  49.9566200   2.2119425
 112.1221411  50.1467796   1.2840614 111.9039731  50.7185583   2.6687476
 100.4245638  43.9424295   8.2916437 101.0645017  43.8013054   7.5939400
  99.5923169  43.6558809   7.9155039 112.2872892  52.0242727   7.2230696
 112.7209398  51.9318016   8.0713750 113.0004472  52.0000228   6.5850712
 101.2005942  53.2426726   4.4051429 101.9946541  52.7477046   4.2034004
 100.4897634  52.7144589   4.0419135 106.0200786  55.6244821   8.7563797
 106.0737809  56.1935757   9.5241513 105.1515568  55.7946706   8.3917834
  97.5088705  47.3869807   0.4811182  96.5786294  47.3254263   0.6981144
  97.6046177  46.8645760  -0.3152177  97.4274255  43.9124620   3.0689424
  97.6881072  44.8269953   2.9598584  98.2491427  43.4449063   3.2186036
  98.8999180  45.3262377  10.2388248  99.5722233  45.1179740   9.5900897
  98.0728966  45.1284463   9.7993480 113.1488441  52.0666428   9.7563582
 113.3424331  52.9712238  10.0022857 113.0489059  51.6073847  10.5902167
 104.8024752  41.9524318  12.2553909 104.1552667  42.6514268  12.1618385
 105.5725767  42.3860462  12.6230157 108.2103550  52.2173170  15.3304462
 108.0589056  51.9883722  14.4134546 108.2008229  53.1743772  15.3435807
 104.9788886  49.7905083  10.3150729 105.9080946  49.9416243  10.1419696
 104.5579916  49.8789104   9.4599375 103.7777218  53.8155748   8.0849266
 103.6388304  53.4474532   8.9575204 102.9891814  54.3303387   7.9133224
 104.3725370  58.9164844  -0.5725197 104.5477126  58.4452887   0.2420426
 103.6858158  59.5430610  -0.3443936 105.3282433  53.1937350   5.4738104
 104.9932266  53.1538120   6.3695754 104.8286379  52.5282066   5.0008514
  99.3026677  48.6004980  10.9990685  99.1646475  47.8685219  11.6002224
 100.2131601  48.5113880  10.7174873 101.9308978  48.3124940  10.4874365
 102.6408596  47.6718132  10.4460983 101.8878286  48.5637835  11.4100546
 109.9195756  55.2492293  13.4080944 109.8608303  54.5651513  12.7411527
 110.3215275  55.9911283  12.9561570 100.6437912  45.2990158  12.3070004
 100.1075269  44.8480896  12.9591601 100.0554620  45.4336066  11.5640469
  98.9386455  62.0654207   6.2014663  99.1783053  62.6972731   6.8793682
  98.0955652  61.7142247   6.4880022 109.9213164  53.2131877  11.6394924
 109.0339942  52.8757799  11.7621323 110.4911715  52.4814908  11.8763689
  91.5742311  49.5455969   4.9637975  92.2613351  49.2317699   4.3758990
  91.4190440  50.4497333   4.6905227  96.3777033  44.4346165   9.3922999
  96.2935222  43.8271835   8.6573409  95.5559739  44.9255184   9.3932495
 103.4514317  57.8733329   8.6056167 103.3784489  58.6788301   9.1175472
 103.0091710  58.0725295   7.7804188 103.2404097  57.1105099   2.1158989
 102.4571619  57.6526780   2.2097213 103.9396842  57.6279079   2.5153230
 106.5500747  42.9199729   4.7593194 107.0469446  42.1669691   4.4394264
 105.7787728  42.9564045   4.1936403 114.4030504  48.6240094   6.4011485
 114.3920381  49.5064810   6.0305419 113.5347884  48.2711645   6.2066022
 105.9113001  57.7720163  10.7614326 106.6240973  58.4067628  10.6890227
 105.4203029  57.8684029   9.9454327 107.6330528  51.6771416   2.3331617
 106.6986806  51.7972878   2.1636322 107.8107196  50.7743883   2.0691627
 103.1335716  45.0617112   4.4864879 102.7633503  44.5088152   5.1745784
 103.6294808  44.4575245   3.9339879 111.0203079  47.5188735   2.8681651
 111.4863531  48.3516727   2.7941954 111.4710579  47.0533717   3.5726910
 100.9624914  55.5214607  11.5819896 101.6634374  56.1551090  11.7349291
 100.4920029  55.8629338  10.8215536 109.0879310  53.8632557  -0.1332196
 109.3639154  53.7489151   0.7761678 108.2183809  53.4650041  -0.1720023
 108.9919742  39.8869322   6.9072553 108.0782821  40.1173549   7.0754760
 109.4212843  39.9707766   7.7586585 108.7626200  48.0759214   9.4072447
 108.1097650  48.3235122   8.7524900 109.1406580  47.2623352   9.0734924
 105.7233374  58.1118907   3.5100617 105.9055769  57.2940563   3.9728369
 106.5466360  58.3286600   3.0725507 106.0575540  57.0387093   0.7715666
 106.5863306  56.5279547   0.1585828 106.3203759  56.7229623   1.6361199
 104.8113773  48.8179025  15.8938484 104.1354410  48.7173155  16.5640859
 105.6341407  48.6618239  16.3574481  96.5592632  55.0550962   8.5150999
  97.1446069  54.3094650   8.6478903  96.3617471  55.3654919   9.3987663
  99.4131287  58.0902209   3.5313442  98.7441663  58.5748337   3.0477482
  99.2744157  58.3371430   4.4456820  91.1510287  47.6256562   7.2355442
  91.1894386  47.0920153   8.0292560  90.6450580  47.0991768   6.6166419
 103.5536556  60.1245953  10.1296100 104.1054864  60.2877574  10.8945185
 103.8942750  60.7150391   9.4576125  98.5301049  42.4721103  10.7317985
  98.5942376  43.3335933  10.3195382  98.4668170  41.8595104   9.9990343
  98.0053322  44.5444235  14.3791019  98.6325361  44.1621312  14.9928543
  97.1481241  44.3258437  14.7446711 108.4047430  54.9507210  15.9844754
 108.9487334  55.5637169  15.4899709 107.8234275  55.5086789  16.5011767
  94.7818865  46.3520664   0.3109374  95.0772306  45.4431343   0.2576427
  93.8806900  46.3308404  -0.0109624 106.6904943  58.0727928   7.1159782
 106.5656083  57.2717668   6.6070728 107.3484034  58.5674122   6.6273752
  98.3113112  44.4276661   6.2936922  97.5899697  45.0412628   6.1544396
  99.1006367  44.9634426   6.2153568 108.7539852  55.8736948   8.7439332
 107.8070187  55.7542300   8.6717659 109.1022625  54.9859446   8.8265594
 101.1139425  41.7631087  12.5677574 101.6373827  42.0093384  13.3303883
 100.8951758  42.5951122  12.1480711  96.5106706  44.0334762   0.4348699
  96.1819412  43.1532141   0.2523805  96.8646077  43.9782431   1.3225088
 105.7586285  55.6689665   4.9443684 105.6111247  54.7406372   5.1251254
 106.5839779  55.6909755   4.4600760  99.6248529  44.3207732   0.8024177
  99.9644602  44.8493653   0.0802785 100.0720650  44.6588138   1.5782743
 109.3620407  56.4918223   6.0308557 110.2866954  56.2861085   5.8933008
 109.1935710  56.2434624   6.9397899 102.3191970  42.7044782  10.2527245
 101.9788790  41.9052595  10.6547924 101.6130976  43.0046493   9.6804078
 102.9708442  39.7894095   8.7054568 103.7934511  39.3154573   8.5833458
 103.2146505  40.5684579   9.2053254 101.6116676  42.8182353  -0.9982531
 102.3325039  43.1963606  -1.5018814 100.9881981  43.5371230  -0.8947553
 100.4947021  46.4813215   6.5146546 100.3491601  46.7953519   7.4070828
 100.0172224  47.0998116   5.9617445 102.3543404  43.4715763   6.5627436
 102.3404972  42.5756857   6.2259734 103.0715832  43.4786427   7.1965722
 104.2069534  43.9053104   8.6080563 103.9487312  44.8270174   8.6064894
 103.6754575  43.5083538   9.2981027 109.1515723  57.0103891   1.3870649
 109.3252601  56.4450313   0.6344501 109.6444614  57.8104786   1.2050139
  94.9692683  49.0218560   9.4534207  94.4246151  49.7978368   9.5854482
  95.8472033  49.3689364   9.2953329 101.7580300  42.3530144   1.8315006
 101.8796211  41.4246790   2.0305893 101.4682342  42.3668830   0.9193321
 104.6271490  40.0385054   4.9681726 104.6493187  40.1024387   4.0133705
 105.0439549  39.1989563   5.1622232 110.1390896  56.3270655  -1.5132453
 110.8341800  56.9477348  -1.2945138 110.4814046  55.4766006  -1.2380075
  95.7558705  48.1488456  12.3464364  95.0140441  48.2971091  12.9328995
  95.4351449  48.4096722  11.4831114 112.0382319  53.7770361   0.0154878
 112.5633643  54.1157633  -0.7095802 111.9504671  52.8417376  -0.1681988
 103.7002367  57.6904434  12.1444754 104.0089494  57.4453581  13.0167454
 104.4977849  57.8951073  11.6563625 103.7222979  59.8442344   4.3750131
 103.2827970  59.3518723   5.0682988 104.4731096  59.3015312   4.1342206
  96.2015318  56.0353885   4.3774759  97.0273338  55.7357657   3.9973402
  95.8509370  55.2661507   4.8264548 101.1696852  55.3880353   6.4472433
 100.5476861  54.7251058   6.1474660 101.8401718  55.4141485   5.7646080
  94.4023923  53.9540211   5.3363693  93.5655832  53.5262386   5.1547694
  94.3747569  54.1472655   6.2734484 101.2421379  43.8662141  16.0404939
 101.2909535  44.7424264  15.6582708 101.7843893  43.3239534  15.4676582
 111.7276225  54.4103264  15.3206076 110.9371768  54.3927403  14.7810575
 111.4909579  54.9491558  16.0755112 111.8474100  51.2595731  12.6338804
 111.8972105  51.0945738  13.5754327 111.7388023  50.3922990  12.2436685
 100.7310358  53.9384276  -0.0769107 100.8798479  54.6219741  -0.7302434
 101.5376802  53.9189366   0.4380349 109.1377862  47.2426659  13.9498111
 110.0387725  47.1033124  13.6582109 109.2125837  47.4081114  14.8896288
 103.4720668  44.6193513  12.7951297 102.6023977  44.9127080  12.5233886
 103.7080148  45.2033958  13.5158561 113.3492297  53.6792672  12.8780826
 113.0577105  54.0422653  13.7144287 112.7364428  52.9659681  12.6994158
 114.5487979  51.2445552   5.3983396 115.3834870  51.6835356   5.5620956
 114.6847108  50.7684205   4.5791642 111.5979485  48.8025287  11.3460884
 112.0733606  48.9952933  10.5379735 110.6745050  48.8584473  11.1004267
  98.4862991  49.9649454   0.9291962  98.2409033  49.0611784   1.1272172
  98.6558906  49.9666604  -0.0128560 106.1759701  40.8373130  10.3116718
 106.6941645  41.5734157   9.9863206 105.8214834  41.1437124  11.1463477
  97.7558639  45.6977812  -1.5721877  97.0627884  45.7722167  -2.2281841
  97.5110391  44.9338155  -1.0500360 106.4272296  37.2573413   5.8317614
 106.7074049  36.5896602   6.4578041 107.2122902  37.4502509   5.3192278
 104.2305764  56.4332407  -2.6057360 103.6579731  57.0522594  -3.0586888
 104.8038558  56.9831769  -2.0717438 110.2981154  45.6791047   9.5789189
 111.2498577  45.7789145   9.6001413 110.1284604  44.8869315  10.0887274
 108.3195533  42.7646630   9.7648590 107.7245465  43.0451643   9.0695079
 108.0345230  43.2540531  10.5365331 107.4503024  56.7169557  -1.4748777
 108.3833697  56.6515119  -1.2715902 107.3626237  57.5525824  -1.9334245
 112.7769232  48.8997167   8.6931489 112.7445552  47.9613167   8.8791173
 113.3869855  48.9781203   7.9597314 112.9263720  45.6908210   8.7389772
 112.4102769  44.9066667   8.5519701 113.8103669  45.3626927   8.9036292
 118.5945781  49.9613173   7.8337526 119.3249170  49.6998462   8.3945229
 117.9852727  49.2241895   7.8739594 116.6761079  48.1021036   8.4311977
 115.9494242  47.9677001   7.8228469 116.2608365  48.4097865   9.2368695
 104.4991255  51.8210966  16.1959350 105.4194265  51.9989565  16.3899396
 104.4640838  50.8767011  16.0439049  93.7173420  47.0149559   5.1212625
  93.3976204  46.1614868   4.8286999  93.1706848  47.2298138   5.8770592
  97.4953328  49.7312000   8.8382131  97.7139337  50.6629108   8.8570165
  97.9079101  49.3719975   9.6236935 104.4157545  40.2380086   0.8257819
 103.6058274  39.8927171   1.2013066 105.1041962  39.9287629   1.4145431
 102.3681193  45.3045206  18.2284880 102.2677920  46.2539563  18.1596971
 102.1502735  44.9763445  17.3560950  93.5861680  50.6352471   7.0905746
  92.8925151  50.2206424   6.5775701  94.3334671  50.6773007   6.4939165
 102.2312463  48.7342345  17.0449942 101.7479545  49.5342705  17.2513831
 102.3173402  48.7450290  16.0917386  95.4998423  50.5670725   4.9671761
  95.4769111  50.6658412   4.0153644  95.8099059  51.4135875   5.2888927
  98.1585800  52.6246880   9.0818375  99.1129054  52.5930822   9.0148307
  97.9598324  52.1637503   9.8968601  98.7485183  51.1947996  11.6489173
  99.5678072  51.6892074  11.6724010  99.0221990  50.2779964  11.6206741
 111.8566315  43.6105269   4.7271468 112.6326705  44.1001721   4.9996085
 111.1314449  44.0363323   5.1843337  96.5136029  58.1666499   6.0988573
  96.3790497  57.4066900   5.5326571  96.0968091  58.8907399   5.6317362
 108.4792803  49.1013284   1.2267419 108.4228004  49.5581835   0.3875051
 109.0321145  48.3403969   1.0490262  99.6705155  59.0635816   6.3107016
  99.5537539  60.0081249   6.2085706  98.8497601  58.7609378   6.6992815
  94.0020097  45.5286130  12.3481370  94.6478960  45.0185084  12.8368595
  93.7937248  46.2654811  12.9224795 106.5273489  52.5966977  17.8473511
 107.3964649  52.7707629  17.4860146 106.0480240  53.4161394  17.7249240
 100.6959669  59.7164078   9.5262944 101.5986916  59.7487688   9.8429439
 100.4697039  58.7864529   9.5409280 102.4513271  58.4695065   6.1873023
 101.5008902  58.4696926   6.0737395 102.7545757  57.7227799   5.6709058
  98.3417588  42.6753747  16.4456384  99.2049049  42.3190552  16.6559709
  97.7682998  42.3367642  17.1331789 118.1865965  64.3055603   7.2518785
 118.8244375  64.1862350   6.5482126 118.0686808  65.2536447   7.3106738
 114.9955671  64.2583031   7.1880310 114.6574183  64.1424096   6.3000845
 115.8645439  63.8574196   7.1681316 110.8542487  66.1118508   3.1777201
 110.2907352  66.0208444   2.4093489 110.7394882  65.2918412   3.6579694
 115.4775454  65.4117883  13.1466516 115.4664095  65.0170681  12.2747019
 115.6396093  64.6783955  13.7400287 108.4006919  67.6069699   6.0161422
 109.1928211  67.2660524   5.6007721 108.6403569  67.7164674   6.9363575
 110.3597673  66.8678612  -1.1121200 111.1328549  66.3207599  -1.2508324
 110.7123071  67.7322862  -0.9006738 112.1982715  68.1954995  12.0945700
 111.9072581  69.1000626  11.9792366 112.8339700  68.2371522  12.8089769
 113.1238922  65.5731843   8.6847059 113.7202494  65.3487866   7.9704022
 113.1813894  64.8316589   9.2872507 117.7407233  62.0307057   4.3271993
 118.5270322  61.6126480   3.9762410 118.0045938  62.9353149   4.4953642
 123.1415660  61.9682290   5.2304972 123.8740832  61.3981507   5.4642801
 122.3855016  61.5803891   5.6711478 112.4160239  64.9299384  -1.2778375
 112.2996497  64.2544288  -0.6097290 112.5262499  64.4431758  -2.0946222
 114.7591780  64.3909532   2.4268314 114.3949987  63.8640153   3.1381236
 115.6158896  64.0008001   2.2534800 120.6641081  55.6803864   9.6899581
 120.3324405  56.5499275   9.4660796 120.0686694  55.3640148  10.3693611
 117.1572600  67.8816410   9.0895493 116.8573323  68.7841449   8.9811301
 116.8123660  67.6148593   9.9416646 110.6085082  64.3330207   5.1232198
 109.6835578  64.2006421   5.3309890 110.8569495  65.1124426   5.6202140
 120.5569744  60.3998950   6.7692931 119.6486621  60.3314359   6.4751692
 120.5057340  60.8770895   7.5974756 114.3786488  61.8757089  -1.5923670
 114.2586113  62.3214140  -0.7538190 113.6839076  62.2242406  -2.1510132
 107.9693893  63.9763481   5.9575987 108.0986274  64.2297960   6.8715399
 107.2891344  64.5691189   5.6380642 114.6310610  61.8188596  14.7127828
 113.8543944  62.3782516  14.7030693 115.2701173  62.3045379  15.2342698
 122.4231390  58.6015389   8.5470805 121.7805771  58.8947922   7.9010599
 121.9186319  58.4868309   9.3524001 112.8856982  64.6274049  14.2745795
 113.6271666  65.1659093  13.9980619 112.1793968  65.2540338  14.4317347
 118.3612322  66.7703190  12.8717956 118.7695678  66.3285600  12.1272589
 117.6389583  66.1955817  13.1252149 114.7143392  61.7075797  10.2451513
 115.5604587  62.1315210  10.3886162 114.6542029  61.0509421  10.9390076
 118.6841136  67.3304380   6.6270245 118.0549999  67.4950095   5.9246313
 118.2966798  67.7445990   7.3981209 122.5630368  68.2658818   3.9814609
 121.8781406  68.6457720   3.4311642 122.6474218  68.8754145   4.7146557
 117.8642837  59.3680165  11.9032687 117.6203769  60.1222225  11.3666963
 118.1402768  59.7465513  12.7379934 119.8181300  65.9118777  10.5809953
 120.0298195  66.5550537   9.9044334 119.7711048  65.0781094  10.1131883
 117.4207529  58.5236598   7.4846525 116.5592008  58.8217852   7.7763262
 117.4469964  58.7406997   6.5527557 114.2369098  67.0678789   3.8920330
 114.7007444  67.3466491   3.1024953 113.9725896  66.1662233   3.7093421
 111.1293179  66.6150270   6.8300094 111.6994536  67.0437538   6.1917578
 111.7201291  66.3332855   7.5284279 113.1737984  63.1901941   0.7009896
 113.8762028  63.6422985   1.1683822 112.8418613  62.5485760   1.3289789
 111.6218346  61.7813698  15.0761105 110.9917006  62.4629978  15.3096502
 111.5154434  61.6696779  14.1314243 106.9163318  61.4485494   6.0027029
 106.1262372  61.7043022   5.5267140 107.4074566  62.2633831   6.1079070
 120.9327128  68.7890733   8.7532310 121.7544572  68.3870920   8.4714992
 120.9289531  68.6858967   9.7048426 108.8678064  61.8130073   2.9610506
 108.0709227  61.9248767   3.4794001 108.6403656  62.1516725   2.0951396
 114.6983731  68.3374776  10.9093020 114.7628164  68.7995183  11.7451192
 113.9894655  67.7072141  11.0375330 105.2001021  61.7015984   8.4342020
 105.4509060  62.5862994   8.6999596 105.7360570  61.5220586   7.6617112
 110.8999089  56.0834463  17.4386356 110.5066034  55.5300662  18.1134000
 111.7165229  56.3945042  17.8292873 107.8661146  67.5218322   1.3499926
 108.3785667  68.3161572   1.5005491 108.5183859  66.8244612   1.2833527
 109.6756031  70.6384078   3.4322679 109.8522659  71.5602043   3.2443663
 110.4712865  70.3242497   3.8617059 113.8167050  57.4992342  15.0306613
 114.5576763  58.0999496  14.9511075 114.0484972  56.7569980  14.4724655
 108.9608388  62.6848710  13.3084842 108.8461903  61.7833967  13.6091941
 108.1052905  62.9312406  12.9569659 116.0400225  70.6266450  14.9072343
 115.5964080  69.8402829  14.5893247 116.7017439  70.8145601  14.2416234
 110.7987347  72.1562252   9.4333021 111.3494772  72.0279315   8.6610015
 109.9598822  72.4557141   9.0827914 118.1381463  70.9069250  12.9353744
 118.1199939  71.7278131  12.4434013 119.0601383  70.7823325  13.1603885
 114.5954518  68.4213379  13.7777252 115.1282854  67.6601668  13.5476560
 114.0668599  68.1287031  14.5201407 117.7624213  53.5273445   9.3070894
 117.4188482  54.4175087   9.2310005 118.1303175  53.3375103   8.4440479
 105.8310063  65.8506976   2.1259496 106.6685285  66.2603984   1.9093204
 106.0088331  64.9106418   2.0959690 115.3121606  58.3631757   2.8728568
 114.4563203  57.9738608   2.6934206 115.7248558  58.4423718   2.0128353
 116.8420753  55.8978101   7.2720127 116.3385548  55.8608236   6.4587933
 117.1351360  56.8070843   7.3316784 113.0863639  55.9816830   6.2786309
 113.9516636  55.7859639   5.9192199 113.1541148  55.7527182   7.2055666
 117.5160798  61.3909149  -0.3596890 117.2110934  61.7055298   0.4913254
 118.4691241  61.4690568  -0.3169557 115.9607230  67.5499372   1.2896064
 115.4328592  66.8152131   0.9769302 115.4594733  68.3274048   1.0436033
 120.9400076  65.7448392   6.4063111 120.2823751  66.4347654   6.4943239
 121.7440475  66.1344824   6.7497097 110.6925958  58.2119038   3.6502676
 111.2669710  57.9894220   2.9175869 111.2796940  58.2807733   4.4031277
 119.7505535  64.0992765   4.4567053 120.2637417  64.7322757   4.9588762
 120.4006759  63.4993961   4.0910413 111.0195545  60.2423499  -2.3301439
 110.1832857  60.5798186  -2.0092164 110.8800315  60.1072479  -3.2674302
 112.9948626  55.0860287   2.3777745 112.3413038  54.7709304   1.7534360
 112.9529100  54.4636028   3.1037568 116.2286366  61.5742221   6.7025393
 115.3108927  61.7957168   6.5447081 116.6446510  61.6488531   5.8437100
 117.0121414  62.9733636   1.8328073 117.7593233  63.4855034   1.5235195
 117.2813003  62.6517689   2.6932467 119.4600251  60.0090753   3.8146863
 118.7223008  59.4968139   4.1457105 119.7127024  59.5691134   3.0030139
 105.8536234  63.1897691   2.7970230 105.6560634  62.5967052   2.0721296
 105.2982898  62.8849901   3.5146169 113.8332958  63.0820798   4.9164823
 113.8881568  62.1294634   4.8407300 113.0224160  63.2380237   5.4006121
 111.7725318  61.6997857   2.6755202 110.9593183  61.9992028   3.0820394
 112.2684312  61.3053546   3.3929684 113.9233896  71.6955614   4.6089467
 113.8810075  71.9216461   3.6797999 114.8396595  71.4618989   4.7575268
 117.3699530  62.1639682  11.5070096 117.7248917  62.3911155  12.3664561
 118.0171661  62.4958059  10.8847351 111.2639393  59.2716213   8.2916437
 111.9038772  59.1304972   7.5939400 110.4316923  58.9850726   7.9155039
 123.1266646  67.3534645   7.2230696 123.5603153  67.2609934   8.0713750
 123.8398227  67.3292145   6.5850712 112.0399697  68.5718643   4.4051429
 112.8340295  68.0768963   4.2034004 111.3291389  68.0436506   4.0419135
 116.8594541  70.9536739   8.7563797 116.9131563  71.5227675   9.5241513
 115.9909322  71.1238624   8.3917834 108.3482460  62.7161725   0.4811182
 107.4180048  62.6546181   0.6981144 108.4439932  62.1937678  -0.3152177
 108.2668009  59.2416538   3.0689424 108.5274826  60.1561871   2.9598584
 109.0885181  58.7740980   3.2186036 109.7392934  60.6554295  10.2388248
 110.4115988  60.4471657   9.5900897 108.9122721  60.4576381   9.7993480
 123.9882196  67.3958345   9.7563582 124.1818086  68.3004156  10.0022857
 123.8882814  66.9365764  10.5902167 115.6418506  57.2816236  12.2553909
 114.9946421  57.9806186  12.1618385 116.4119522  57.7152380  12.6230157
 119.0497304  67.5465088  15.3304462 118.8982811  67.3175640  14.4134546
 119.0401984  68.5035690  15.3435807 115.8182641  65.1197001  10.3150729
 116.7474701  65.2708160  10.1419696 115.3973671  65.2081022   9.4599375
 114.6170972  69.1447665   8.0849266 114.4782058  68.7766450   8.9575204
 113.8285569  69.6595305   7.9133224 116.1676188  68.5229268   5.4738104
 115.8326020  68.4830038   6.3695754 115.6680133  67.8573984   5.0008514
 110.1420432  63.9296898  10.9990685 110.0040230  63.1977137  11.6002224
 111.0525355  63.8405798  10.7174873 112.7702732  63.6416857  10.4874365
 113.4802351  63.0010050  10.4460983 112.7272040  63.8929752  11.4100546
 120.7589511  70.5784211  13.4080944 120.7002057  69.8943431  12.7411527
 121.1609029  71.3203201  12.9561570 111.4831666  60.6282075  12.3070004
 110.9469023  60.1772814  12.9591601 110.8948375  60.7627984  11.5640469
 109.7780210  77.3946125   6.2014663 110.0176808  78.0264649   6.8793682
 108.9349406  77.0434165   6.4880022 120.7606918  68.5423795  11.6394924
 119.8733697  68.2049716  11.7621323 121.3305469  67.8106826  11.8763689
 102.4136065  64.8747886   4.9637975 103.1007105  64.5609616   4.3758990
 102.2584194  65.7789251   4.6905227 107.2170787  59.7638083   9.3922999
 107.1328976  59.1563752   8.6573409 106.3953494  60.2547101   9.3932495
 114.2908072  73.2025247   8.6056167 114.2178243  74.0080218   9.1175472
 113.8485465  73.4017213   7.7804188 117.3894501  58.2491646   4.7593194
 117.8863201  57.4961609   4.4394264 116.6181483  58.2855963   4.1936403
 125.2424259  63.9532012   6.4011485 125.2314135  64.8356727   6.0305419
 124.3741638  63.6003563   6.2066022 116.7506755  73.1012081  10.7614326
 117.4634727  73.7359546  10.6890227 116.2596784  73.1975947   9.9454327
 118.4724282  67.0063334   2.3331617 117.5380561  67.1264796   2.1636322
 118.6500951  66.1035800   2.0691627 113.9729470  60.3909029   4.4864879
 113.6027258  59.8380070   5.1745784 114.4688563  59.7867163   3.9339879
 121.8596833  62.8480653   2.8681651 122.3257286  63.6808645   2.7941954
 122.3104334  62.3825635   3.5726910 111.8018669  70.8506524  11.5819896
 112.5028128  71.4843007  11.7349291 111.3313784  71.1921256  10.8215536
 119.8313496  55.2161240   6.9072553 118.9176576  55.4465467   7.0754760
 120.2606598  55.2999684   7.7586585 119.6019955  63.4051132   9.4072447
 118.9491405  63.6527039   8.7524900 119.9800335  62.5915270   9.0734924
 115.6507528  64.1470943  15.8938484 114.9748165  64.0465072  16.5640859
 116.4735162  63.9910157  16.3574481 107.3986387  70.3842880   8.5150999
 107.9839824  69.6386567   8.6478903 107.2011225  70.6946836   9.3987663
 110.2525042  73.4194127   3.5313442 109.5835417  73.9040255   3.0477482
 110.1137912  73.6663347   4.4456820 101.9904041  62.9548480   7.2355442
 102.0288141  62.4212070   8.0292560 101.4844334  62.4283685   6.6166419
 114.3930311  75.4537870  10.1296100 114.9448619  75.6169492  10.8945185
 114.7336504  76.0442308   9.4576125 109.3694804  57.8013020  10.7317985
 109.4336130  58.6627851  10.3195382 109.3061924  57.1887022   9.9990343
 108.8447076  59.8736153  14.3791019 109.4719115  59.4913230  14.9928543
 107.9874995  59.6550355  14.7446711 119.2441185  70.2799128  15.9844754
 119.7881089  70.8929086  15.4899709 118.6628030  70.8378706  16.5011767
 105.6212619  61.6812582   0.3109374 105.9166060  60.7723260   0.2576427
 104.7200655  61.6600321  -0.0109624 117.5298698  73.4019846   7.1159782
 117.4049837  72.6009586   6.6070728 118.1877789  73.8966039   6.6273752
 109.1506866  59.7568578   6.2936922 108.4293452  60.3704546   6.1544396
 109.9400122  60.2926343   6.2153568 119.5933606  71.2028866   8.7439332
 118.6463942  71.0834217   8.6717659 119.9416379  70.3151364   8.8265594
 111.9533180  57.0923005  12.5677574 112.4767581  57.3385302  13.3303883
 111.7345513  57.9243040  12.1480711 107.3500461  59.3626680   0.4348699
 107.0213167  58.4824058   0.2523805 107.7039831  59.3074348   1.3225088
 116.5980040  70.9981582   4.9443684 116.4505002  70.0698290   5.1251254
 117.4233533  71.0201673   4.4600760 110.4642284  59.6499649   0.8024177
 110.8038356  60.1785571   0.0802785 110.9114404  59.9880055   1.5782743
 120.2014161  71.8210141   6.0308557 121.1260709  71.6153002   5.8933008
 120.0329465  71.5726542   6.9397899 113.1585725  58.0336700  10.2527245
 112.8182545  57.2344513  10.6547924 112.4524731  58.3338411   9.6804078
 113.8102196  55.1186012   8.7054568 114.6328266  54.6446491   8.5833458
 114.0540260  55.8976496   9.2053254 112.4510431  58.1474271  -0.9982531
 113.1718793  58.5255524  -1.5018814 111.8275735  58.8663148  -0.8947553
 111.3340775  61.8105133   6.5146546 111.1885356  62.1245436   7.4070828
 110.8565979  62.4290033   5.9617445 113.1937158  58.8007681   6.5627436
 113.1798727  57.9048774   6.2259734 113.9109586  58.8078345   7.1965722
 115.0463289  59.2345021   8.6080563 114.7881067  60.1562092   8.6064894
 114.5148329  58.8375456   9.2981027 105.8086437  64.3510478   9.4534207
 105.2639905  65.1270285   9.5854482 106.6865787  64.6981282   9.2953329
 112.5974054  57.6822061   1.8315006 112.7189965  56.7538708   2.0305893
 112.3076096  57.6960747   0.9193321 115.4665244  55.3676972   4.9681726
 115.4886941  55.4316305   4.0133705 115.8833303  54.5281480   5.1622232
 106.5952459  63.4780374  12.3464364 105.8534195  63.6263009  12.9328995
 106.2745204  63.7388639  11.4831114 114.5396122  73.0196352  12.1444754
 114.8483248  72.7745499  13.0167454 115.3371604  73.2242990  11.6563625
 114.5616734  75.1734262   4.3750131 114.1221724  74.6810640   5.0682988
 115.3124851  74.6307229   4.1342206 107.0409073  71.3645803   4.3774759
 107.8667093  71.0649574   3.9973402 106.6903125  70.5953425   4.8264548
 112.0090606  70.7172271   6.4472433 111.3870615  70.0542976   6.1474660
 112.6795473  70.7433403   5.7646080 105.2417678  69.2832129   5.3363693
 104.4049586  68.8554303   5.1547694 105.2141323  69.4764572   6.2734484
 112.0815134  59.1954059  16.0404939 112.1303289  60.0716182  15.6582708
 112.6237648  58.6531452  15.4676582 122.5669979  69.7395182  15.3206076
 121.7765523  69.7219321  14.7810575 122.3303334  70.2783476  16.0755112
 122.6867854  66.5887648  12.6338804 122.7365859  66.4237656  13.5754327
 122.5781778  65.7214907  12.2436685 119.9771617  62.5718576  13.9498111
 120.8781479  62.4325041  13.6582109 120.0519591  62.7373031  14.8896288
 114.3114422  59.9485431  12.7951297 113.4417731  60.2418997  12.5233886
 114.5473902  60.5325876  13.5158561 124.1886051  69.0084590  12.8780826
 123.8970859  69.3714570  13.7144287 123.5758182  68.2951598  12.6994158
 125.3881733  66.5737470   5.3983396 126.2228625  67.0127274   5.5620956
 125.5240862  66.0976123   4.5791642 122.4373239  64.1317205  11.3460884
 122.9127361  64.3244851  10.5379735 121.5138805  64.1876390  11.1004267
 109.3256746  65.2941372   0.9291962 109.0802788  64.3903702   1.1272172
 109.4952660  65.2958522  -0.0128560 117.0153456  56.1665048  10.3116718
 117.5335400  56.9026075   9.9863206 116.6608589  56.4729041  11.1463477
 108.5952393  61.0269729  -1.5721877 107.9021638  61.1014084  -2.2281841
 108.3504145  60.2630073  -1.0500360 117.2666050  52.5865331   5.8317614
 117.5467804  51.9188520   6.4578041 118.0516657  52.7794426   5.3192278
 121.1374908  61.0082965   9.5789189 122.0892331  61.1081062   9.6001413
 120.9678359  60.2161233  10.0887274 119.1589288  58.0938548   9.7648590
 118.5639220  58.3743561   9.0695079 118.8738985  58.5832449  10.5365331
 123.6162986  64.2289084   8.6931489 123.5839306  63.2905085   8.8791173
 124.2263610  64.3073121   7.9597314 123.7657475  61.0200128   8.7389772
 123.2496523  60.2358584   8.5519701 124.6497423  60.6918844   8.9036292
 129.4339536  65.2905091   7.8337526 130.1642924  65.0290379   8.3945229
 128.8246481  64.5533813   7.8739594 127.5154833  63.4312954   8.4311977
 126.7887997  63.2968919   7.8228469 127.1002120  63.7389782   9.2368695
 115.3385010  67.1502883  16.1959350 116.2588019  67.3281482  16.3899396
 115.3034593  66.2058929  16.0439049 104.5567175  62.3441477   5.1212625
 104.2369959  61.4906785   4.8286999 104.0100603  62.5590055   5.8770592
 108.3347082  65.0603918   8.8382131 108.5533092  65.9921026   8.8570165
 108.7472856  64.7011892   9.6236935 115.2551300  55.5672003   0.8257819
 114.4452028  55.2219088   1.2013066 115.9435717  55.2579547   1.4145431
 113.2074947  60.6337124  18.2284880 113.1071674  61.5831481  18.1596971
 112.9896489  60.3055363  17.3560950 104.4255435  65.9644389   7.0905746
 103.7318906  65.5498341   6.5775701 105.1728426  66.0064925   6.4939165
 113.0706217  64.0634263  17.0449942 112.5873299  64.8634623  17.2513831
 113.1567156  64.0742208  16.0917386 106.3392177  65.8962642   4.9671761
 106.3162865  65.9950330   4.0153644 106.6492814  66.7427793   5.2888927
 108.9979555  67.9538797   9.0818375 109.9522808  67.9222740   9.0148307
 108.7992079  67.4929421   9.8968601 109.5878937  66.5239913  11.6489173
 110.4071826  67.0183992  11.6724010 109.8615745  65.6071882  11.6206741
 122.6960069  58.9397187   4.7271468 123.4720460  59.4293639   4.9996085
 121.9708204  59.3655241   5.1843337 107.3529784  73.4958417   6.0988573
 107.2184252  72.7358818   5.5326571 106.9361846  74.2199317   5.6317362
 119.3186557  64.4305202   1.2267419 119.2621758  64.8873753   0.3875051
 119.8714899  63.6695886   1.0490262 110.5098910  74.3927734   6.3107016
 110.3931294  75.3373166   6.2085706 109.6891356  74.0901295   6.6992815
 104.8413851  60.8578047  12.3481370 105.4872715  60.3477001  12.8368595
 104.6331002  61.5946729  12.9224795 117.3667244  67.9258895  17.8473511
 118.2358403  68.0999547  17.4860146 116.8873995  68.7453312  17.7249240
 111.5353424  75.0455996   9.5262944 112.4380670  75.0779606   9.8429439
 111.3090794  74.1156447   9.5409280 113.2907026  73.7986982   6.1873023
 112.3402657  73.7988844   6.0737395 113.5939512  73.0519717   5.6709058
 109.1811342  58.0045664  16.4456384 110.0442804  57.6482469  16.6559709
 108.6076753  57.6659559  17.1331789 126.3169209  80.7409801  13.1466516
 126.3057849  80.3462599  12.2747019 126.4789848  80.0075873  13.7400287
 131.5034835  71.0095782   9.6899581 131.1718160  71.8791193   9.4660796
 130.9080449  70.6932066  10.3693611 125.4704364  77.1480514  14.7127828
 124.6937698  77.7074434  14.7030693 126.1094927  77.6337297  15.2342698
 123.7250737  79.9565967  14.2745795 124.4665421  80.4951011  13.9980619
 123.0187722  80.5832256  14.4317347 125.5537146  77.0367714  10.2451513
 126.3998341  77.4607128  10.3886162 125.4935784  76.3801339  10.9390076
 128.7036592  74.6972083  11.9032687 128.4597524  75.4514143  11.3666963
 128.9796522  75.0757430  12.7379934 122.4612100  77.1105615  15.0761105
 121.8310761  77.7921896  15.3096502 122.3548188  76.9988697  14.1314243
 116.0394776  77.0307902   8.4342020 116.2902814  77.9154912   8.6999596
 116.5754324  76.8512503   7.6617112 121.7392843  71.4126381  17.4386356
 121.3459789  70.8592580  18.1134000 122.5558983  71.7236959  17.8292873
 124.6560804  72.8284260  15.0306613 125.3970517  73.4291413  14.9511075
 124.8878727  72.0861898  14.4724655 119.8002142  78.0140627  13.3084842
 119.6855657  77.1125885  13.6091941 118.9446660  78.2604324  12.9569659
 125.4348272  83.7505297  13.7777252 125.9676609  82.9893585  13.5476560
 124.9062353  83.4578949  14.5201407 128.6017967  68.8565363   9.3070894
 128.2582236  69.7467005   9.2310005 128.9696930  68.6667021   8.4440479
 123.9257393  71.3108748   6.2786309 124.7910390  71.1151557   5.9192199
 123.9934902  71.0819100   7.2055666 122.1033147  74.6008131   8.2916437
 122.7432526  74.4596890   7.5939400 121.2710678  74.3142644   7.9155039
 120.5786689  75.9846213  10.2388248 121.2509742  75.7763575   9.5900897
 119.7516475  75.7868299   9.7993480 126.4812261  72.6108154  12.2553909
 125.8340176  73.3098103  12.1618385 127.2513276  73.0444298  12.6230157
 129.8891059  82.8757006  15.3304462 129.7376565  82.6467558  14.4134546
 129.8795738  83.8327607  15.3435807 120.9814186  79.2588816  10.9990685
 120.8433984  78.5269055  11.6002224 121.8919110  79.1697716  10.7174873
 123.6096487  78.9708775  10.4874365 124.3196105  78.3301967  10.4460983
 123.5665795  79.2221670  11.4100546 122.3225421  75.9573993  12.3070004
 121.7862778  75.5064731  12.9591601 121.7342129  76.0919902  11.5640469
 118.0564542  75.0930001   9.3922999 117.9722731  74.4855670   8.6573409
 117.2347248  75.5839019   9.3932495 126.4901282  79.4762861  15.8938484
 125.8141919  79.3756990  16.5640859 127.3128916  79.3202074  16.3574481
 112.8297796  78.2840397   7.2355442 112.8681895  77.7503988   8.0292560
 112.3238089  77.7575603   6.6166419 120.2088558  73.1304938  10.7317985
 120.2729885  73.9919769  10.3195382 120.1455679  72.5178940   9.9990343
 119.6840831  75.2028070  14.3791019 120.3112870  74.8205148  14.9928543
 118.8268750  74.9842272  14.7446711 122.7926934  72.4214923  12.5677574
 123.3161336  72.6677219  13.3303883 122.5739267  73.2534957  12.1480711
 123.9979479  73.3628618  10.2527245 123.6576299  72.5636431  10.6547924
 123.2918485  73.6630329   9.6804078 124.6495951  70.4477930   8.7054568
 125.4722020  69.9738408   8.5833458 124.8934014  71.2268414   9.2053254
 125.8857043  74.5636939   8.6080563 125.6274821  75.4854010   8.6064894
 125.3542084  74.1667374   9.2981027 116.6480192  79.6802395   9.4534207
 116.1033660  80.4562203   9.5854482 117.5259542  80.0273200   9.2953329
 117.4346214  78.8072291  12.3464364 116.6927950  78.9554927  12.9328995
 117.1138958  79.0680557  11.4831114 122.9208888  74.5245976  16.0404939
 122.9697044  75.4008099  15.6582708 123.4631402  73.9823369  15.4676582
 130.8165371  77.9010494  13.9498111 131.7175234  77.7616959  13.6582109
 130.8913346  78.0664949  14.8896288 125.1508176  75.2777349  12.7951297
 124.2811486  75.5710915  12.5233886 125.3867657  75.8617794  13.5158561
 127.8547210  71.4956966  10.3116718 128.3729154  72.2317993   9.9863206
 127.5002343  71.8020959  11.1463477 129.9983042  73.4230466   9.7648590
 129.4032974  73.7035478   9.0695079 129.7132739  73.9124366  10.5365331
 126.1778764  82.4794801  16.1959350 127.0981773  82.6573400  16.3899396
 126.1428347  81.5350846  16.0439049 124.0468702  75.9629042  18.2284880
 123.9465429  76.9123398  18.1596971 123.8290244  75.6347280  17.3560950
 123.9099972  79.3926180  17.0449942 123.4267054  80.1926540  17.2513831
 123.9960911  79.4034125  16.0917386 120.4272692  81.8531831  11.6489173
 121.2465581  82.3475910  11.6724010 120.7009499  80.9363799  11.6206741
 115.6807606  76.1869965  12.3481370 116.3266469  75.6768919  12.8368595
 115.4724757  76.9238647  12.9224795 128.2060998  83.2550812  17.8473511
 129.0752158  83.4291465  17.4860146 127.7267749  84.0745229  17.7249240
 120.0205097  73.3337582  16.4456384 120.8836558  72.9774387  16.6559709
 119.4470507  72.9951477  17.1331789   3.9084352 100.2912091  98.1587822
   4.6409524  99.7211307  98.3925652   3.1523708  99.9033691  98.5994328
   1.4309773  94.0033665 102.6182431   1.0993097  94.8729076 102.3943646
   0.8355386  93.6869949 103.2976461   1.3238436  98.7228751  99.6975781
   0.4155313  98.6544159  99.4034542   1.2726032  99.2000696 100.5257607
   3.1900082  96.9245189 101.4753655   2.5474462  97.2177722 100.8293450
   2.6855011  96.8098110 102.2806852   0.8440246 100.6708362  92.1639514
   1.7558102 100.9035749  91.9887212   0.3349893 101.2545407  91.6014593
   3.3299060 106.5888619  96.9097460   2.6450098 106.9687520  96.3594493
   3.4142909 107.1983945  97.6429407   0.5849992 104.2348578 103.5092803
   0.7966887 104.8780338 102.8327184   0.5379740 103.4010894 103.0414733
   1.6995820 107.1120533 101.6815160   2.5213263 106.7100720 101.3997842
   1.6958223 107.0088767 102.6331276   9.7901813 103.4559282  98.0300132
   9.0365521 102.8866680  97.8744136   9.9249354 103.4221946  98.9770767
   3.4677461 104.5944212  92.6779353   2.6906904 104.2555371  92.2334515
   4.1468942 104.5996835  92.0034318   1.7068768 104.0678193  99.3345961
   1.0492443 104.7577454  99.4226090   2.5109167 104.4574625  99.6779948
   0.5174227 102.4222565  97.3849903   1.0306109 103.0552557  97.8871613
   1.1675451 101.8223761  97.0193263   1.2836023 107.4028567  95.5129046
   0.8298350 106.5619477  95.5694236   0.6529990 108.0389965  95.8503826
   0.3280570  91.1096805  97.3371482   0.6339447  90.2494168  97.0497397
   1.0533175  91.7014425  97.1370476   3.8665958 103.6087918  95.1402275
   3.7283857 103.7989514  94.2123464   3.5102177 104.3707301  95.5970326
   3.8935338 105.6764445 100.1513547   4.3271845 105.5839734 100.9996601
   4.6066919 105.6521946  99.5133563   4.7550887 105.7188146 102.6846432
   4.9486778 106.6233956 102.9305707   4.6551506 105.2595565 103.5185017
   1.5258203 108.9014011 106.3363795   1.4670749 108.2173231 105.6694378
   1.9277721 109.6433001 105.8844421   1.5275610 106.8653595 104.5677774
   0.6402389 106.5279517 104.6904173   2.0974161 106.1336626 104.8046540
   6.0092951 102.2761812  99.3294336   5.9982827 103.1586528  98.9588269
   5.1410330 101.9233363  99.1348873   2.6265525 101.1710453  95.7964502
   3.0925977 102.0038445  95.7224805   3.0773026 100.7055435  96.5009760
   0.9682853 110.1439941  98.9591408   1.8929401 109.9382803  98.8215859
   0.7998157 109.8956343  99.8680749   0.7578169 110.6625609  94.3153499
   0.9315047 110.0972031  93.5627352   1.2507061 111.4626504  94.1332989
   6.6117561 103.4262032  95.9343799   7.0548707 102.6769357  95.5362922
   5.7344071 103.4172168  95.5517531   1.7453342 109.9792373  91.4150397
   2.4404246 110.5999066  91.6337712   2.0876492 109.1287724  91.6902775
   3.6444765 107.4292079  92.9437728   4.1696089 107.7679352  92.2187048
   3.5567118 106.4939094  92.7600863   3.3338671 108.0624982 108.2488926
   2.5434215 108.0449121 107.7093425   3.0972026 108.6013276 109.0037963
   3.4536546 104.9117449 105.5621655   3.5034551 104.7467456 106.5037177
   3.3450469 104.0444708 105.1719535   0.7440308 100.8948377 106.8780961
   1.6450171 100.7554842 106.5864959   0.8188283 101.0602832 107.8179139
   4.9554743 107.3314390 105.8063676   4.6639551 107.6944371 106.6427137
   4.3426874 106.6181399 105.6277008   6.1550425 104.8967270  98.3266246
   6.9897317 105.3357074  98.4903807   6.2909554 104.4205923  97.5074492
   3.2041931 102.4547005 104.2743734   3.6796053 102.6474651 103.4662586
   2.2807497 102.5106191 104.0287118   1.9043600  99.3312765 102.5072040
   2.8561023  99.4310863 102.5284264   1.7347051  98.5391034 103.0170124
   1.6853487 109.6857145  88.4138021   1.6067118 109.3517009  89.3073779
   2.5063154 110.1778913  88.4129493   4.3831678 102.5518885 101.6214339
   4.3507998 101.6134885 101.8074023   4.9932302 102.6302921 100.8880164
   4.5326166  99.3429928 101.6672623   4.0165215  98.5588385 101.4802551
   5.4166115  99.0148645 101.8319142   2.1936893  93.0870944  97.6268435
   1.9961714  92.7786032  98.5111767   2.8036599  93.8132583  97.7566365
  10.2008228 103.6134892 100.7620376  10.9311616 103.3520180 101.3228080
   9.5915173 102.8763614 100.8022444   8.2823525 101.7542754 101.3594827
   7.5556688 101.6198719 100.7511319   7.8670812 102.0619583 102.1651545
   1.3289347  95.0780376  94.8843631   0.7488016  95.7365180  94.5021683
   1.0625280  94.2557720  94.4731048   3.4628761  97.2626987  97.6554318
   4.2389151  97.7523440  97.9278935   2.7376895  97.6885041  98.1126188
   5.9001320  97.9754606  98.7128259   6.4945811  97.7350342  98.0021567
   5.9727904  97.2561737  99.3401795   3.8960055  98.5424734  94.9800389
   3.6396989  98.1421370  95.8108596   3.2712923  99.2568528  94.8550528
   8.2072393 101.2820807  97.4871680   7.6471951 101.3513997  98.2603242
   7.6015896 101.1061792  96.7671176   1.1644136 107.4407670  90.0846459
   1.9989740 107.0088868  89.9023934   1.0028479 107.2689684  91.0123354
   9.7928411 117.9577321 100.1801636  10.4306821 117.8384068  99.4764976
   9.6749254 118.9058165 100.2389588   6.6018117 117.9104749 100.1163161
   6.2636629 117.7945814  99.2283695   7.4707886 117.5095914 100.0964167
   2.4604933 119.7640226  96.1060052   1.8969798 119.6730163  95.3376339
   2.3457328 118.9440130  96.5862544   7.0837900 119.0639601 106.0749366
   7.0726541 118.6692399 105.2029870   7.2458540 118.3305674 106.6683138
   8.0404492 123.4311193  91.4174516   7.3892471 124.0165274  91.0308530
   8.8348855 123.9617388  91.4769554   1.9660119 120.5200331  91.8161651
   2.7390995 119.9729318  91.6774527   2.3185518 121.3844580  92.0276112
   4.7301368 119.2253561 101.6129910   5.3264941 119.0009584 100.8986873
   4.7876340 118.4838307 102.2155358   4.3026397 116.6792997  89.4480101
   4.5551917 116.1574518  88.6863564   3.3650956 116.5159142  89.5506784
   9.3469680 115.6828775  97.2554844  10.1332769 115.2648198  96.9045261
   9.6108384 116.5874867  97.4236492   9.5179757 121.1201625  91.9543501
   8.8825590 121.1936252  92.6664405   9.1877163 121.7095224  91.2762580
  14.7478107 115.6204008  98.1587822  15.4803279 115.0503225  98.3925652
  13.9917462 115.2325609  98.5994328   4.0222685 118.5821103  91.6504476
   3.9058944 117.9066006  92.3185560   4.1324945 118.0953477  90.8336629
   6.3654226 118.0431250  95.3551165   6.0012434 117.5161871  96.0664086
   7.2221342 117.6529719  95.1817650  12.2703527 109.3325582 102.6182431
  11.9386852 110.2020993 102.3943646  11.6749140 109.0161866 103.2976461
   6.0059713 113.0721149  90.3512513   6.1734116 113.9401386  90.7182984
   5.8156882 113.2348431  89.4273803   8.7635047 121.5338128 102.0178344
   8.4635770 122.4363167 101.9094151   8.4186106 121.2670311 102.8699497
   2.2147528 117.9851925  98.0515048   1.2898024 117.8528139  98.2592740
   2.4631941 118.7646144  98.5484991  12.1632190 114.0520668  99.6975781
  11.2549068 113.9836077  99.4034542  12.1119786 114.5292613 100.5257607
   5.9848934 115.5278807  91.3359180   5.8648559 115.9735858  92.1744661
   5.2901523 115.8764125  90.7772718   6.2373056 115.4710314 107.6410678
   5.4606390 116.0304234 107.6313543   6.8763619 115.9567097 108.1625548
  14.0293837 112.2537107 101.4753655  13.3868217 112.5469640 100.8293450
  13.5248765 112.1390027 102.2806852  11.6834000 116.0000280  92.1639514
  12.5951856 116.2327667  91.9887212  11.1743647 116.5837324  91.6014593
   9.9674768 120.4224908 105.8000807  10.3758124 119.9807318 105.0555439
   9.2452030 119.8477535 106.0535000   6.3205838 115.3597515 103.1734364
   7.1667033 115.7836928 103.3169013   6.2604476 114.7031139 103.8672927
  10.2903583 120.9826099  99.5553096   9.6612445 121.1471813  98.8529164
   9.9029245 121.3967708 100.3264060  14.1692815 121.9180536  96.9097460
  13.4843853 122.2979438  96.3594493  14.2536664 122.5275863  97.6429407
   9.4705283 113.0201883 104.8315537   9.2266215 113.7743944 104.2949813
   9.7465214 113.3987231 105.6662785  11.4243746 119.5640495 103.5092803
  11.6360641 120.2072255 102.8327184  11.3773494 118.7302812 103.0414733
   9.0269975 112.1758316 100.4129375   8.1654454 112.4739570 100.7046113
   9.0532410 112.3928715  99.4810408   5.8431545 120.7200507  96.8203181
   6.3069890 120.9988210  96.0307803   5.5788343 119.8183951  96.6376272
   2.7355626 120.2671988  99.7582944   3.3056983 120.6959257  99.1200429
   3.3263737 119.9854573 100.4567130   4.7800431 116.8423659  93.6292746
   5.4824474 117.2944703  94.0966672   4.4481059 116.2007478  94.2572639
  12.5389574 122.4412451 101.6815160  13.3607018 122.0392638 101.3997842
  12.5351977 122.3380685 102.6331276   6.3046178 121.9896494 103.8375871
   6.3690610 122.4516901 104.6734043   5.5957101 121.3593859 103.9658181
  20.6295567 118.7851199  98.0300132  19.8759276 118.2158597  97.8744136
  20.7643108 118.7513864  98.9770767   6.0194195 123.6564602  93.7054851
   5.8839870 124.5016137  94.1339699   6.5604008 123.8583879  92.9420785
   5.4229496 111.1514061 107.9589463   6.1639209 111.7521214 107.8793925
   5.6547419 110.4091698 107.4007506   9.7443910 124.5590968 105.8636595
   9.7262385 125.3799849 105.3716864  10.6663830 124.4345043 106.0886736
   9.3686659 107.1795163 102.2353745   9.0250928 108.0696805 102.1592855
   9.7365621 106.9896821 101.3723330   9.3336942 117.1703775  90.7426180
   8.8183565 117.9408379  90.9814567   9.0614250 116.4968911  91.3659241
   6.9184053 112.0153475  95.8011418   6.0625649 111.6260326  95.6217057
   7.3311004 112.0945436  94.9411204   8.4483199 109.5499819 100.2002978
   7.9447995 109.5129954  99.3870783   8.7413806 110.4592561 100.2599635
   4.6926085 109.6338548  99.2069160   5.5579082 109.4381357  98.8475049
   4.7603594 109.4048900 100.1338516  14.3071216 119.9236129  92.6779353
  13.5300658 119.5847289  92.2334515  14.9862697 119.9288752  92.0034318
   9.1223245 115.0430867  92.5685961   8.8173380 115.3577016  93.4196104
  10.0753687 115.1212287  92.6113294   7.5669677 121.2021090  94.2178915
   7.0391038 120.4673850  93.9052152   7.0657179 121.9795766  93.9718883
  12.5462523 119.3970110  99.3345961  11.8886197 120.0869372  99.4226090
  13.3502922 119.7866542  99.6779948   2.2988404 111.8640756  96.5785526
   2.8732156 111.6415938  95.8458719   2.8859387 111.9329451  97.3314128
  11.3567981 117.7514483  97.3849903  11.8699863 118.3844475  97.8871613
  12.0069205 117.1515679  97.0193263   2.6257991 113.8945217  90.5981412
   1.7895304 114.2319904  90.9190686   2.4862761 113.7594197  89.6608549
   4.6011072 108.7382005  95.3060596   3.9475484 108.4231022  94.6817211
   4.5591546 108.1157746  96.0320419   5.7122277 119.0201300  87.2213888
   4.8049338 118.7890554  87.4205037   6.2093309 118.2238920  87.4087870
   7.8348812 115.2263939  99.6308244   6.9171374 115.4478886  99.4729932
   8.2508956 115.3010249  98.7719951   8.6183860 116.6255354  94.7610924
   9.3655679 117.1376752  94.4518046   8.8875450 116.3039407  95.6215317
   6.8910510 119.1213895  91.7437878   5.9821729 118.8372928  91.8410348
   6.9205594 119.5412974  90.8841185  12.1229778 122.7320485  95.5129046
  11.6692105 121.8911394  95.5694236  11.4923744 123.3681883  95.8503826
  11.0662697 113.6612471  96.7429713  10.3285454 113.1489857  97.0739956
  11.3189471 113.2212852  95.9312990  10.5662717 124.5696981  96.4478864
  10.8585691 125.1302038  95.7291229  11.0761337 124.8625542  97.2032023
  11.1674324 106.4388723  97.3371482  11.4733201 105.5786086  97.0497397
  11.8926929 107.0306343  97.1370476   5.4395404 116.7342516  97.8447673
   5.4944014 115.7816352  97.7690150   4.6286606 116.8901955  98.3288972
   6.5886598 120.6622639  89.0825957   6.1506028 119.9458498  88.6231594
   7.3297039 120.8898754  88.5211048   3.3787764 115.3519575  95.6038052
   2.5655630 115.6513746  96.0103244   3.8746758 114.9575264  96.3212535
   8.9761976 115.8161400 104.4352946   9.3311364 116.0432873 105.2947412
   9.6234107 116.1479777 103.8130201  14.7059713 118.9379836  95.1402275
  14.5677611 119.1281432  94.2123464  14.3495932 119.6999219  95.5970326
   2.8701839 112.9237931 101.2199287   3.5101218 112.7826690 100.5222251
   2.0379369 112.6372444 100.8437889  14.7329092 121.0056363 100.1513547
  15.1665599 120.9131652 100.9996601  15.4460673 120.9813863  99.5133563
   3.6462143 122.2240361  97.3334280   4.4402741 121.7290682  97.1316855
   2.9353835 121.6958225  96.9701985   8.4656987 124.6058457 101.6846647
   8.5194010 125.1749393 102.4524363   7.5971769 124.7760342 101.3200684
   1.3455381 114.3076013 103.1671099   2.0178434 114.0993375 102.5183747
   0.5185167 114.1098099 102.7276331  15.5944642 121.0480063 102.6846432
  15.7880532 121.9525874 102.9305707  15.4945260 120.5887483 103.5185017
   7.2480953 110.9337954 105.1836759   6.6008868 111.6327904 105.0901236
   8.0181968 111.3674098 105.5513008  10.6559751 121.1986806 108.2587313
  10.5045257 120.9697358 107.3417396  10.6464430 122.1557408 108.2718658
   7.4245087 118.7718719 103.2433579   8.3537147 118.9229879 103.0702546
   7.0036117 118.8602740 102.3882226   6.2233419 122.7969383 101.0132117
   6.0844504 122.4288168 101.8858055   5.4348015 123.3117023 100.8416075
   7.7738634 122.1750986  98.4020955   7.4388467 122.1351756  99.2978604
   7.2742580 121.5095702  97.9291365   1.7482878 117.5818616 103.9273536
   1.6102676 116.8498855 104.5285075   2.6587801 117.4927516 103.6457723
  10.7097826 119.5207020  88.6758014  10.0926996 118.7953849  88.5791067
  10.2414314 120.2816381  88.3325088   4.3765179 117.2938575 103.4157215
   5.0864797 116.6531768 103.3743834   4.3334487 117.5451470 104.3383396
  12.3651957 124.2305929 106.3363795  12.3064503 123.5465149 105.6694378
  12.7671476 124.9724919 105.8844421   3.0894113 114.2803793 105.2352855
   2.5531470 113.8294532 105.8874451   2.5010821 114.4149702 104.4923319
   2.4996372 113.7392445  87.7979318   1.6225838 113.6181246  87.4341565
   2.9754125 112.9478523  87.5458207  12.3669365 122.1945513 104.5677774
  11.4796143 121.8571435 104.6904173  12.9367916 121.4628544 104.8046540
   8.9956948 111.9013365  97.6876044   9.4925647 111.1483327  97.3677115
   8.2243929 111.9377681  97.1219254  16.8486705 117.6053730  99.3294336
  16.8376581 118.4878446  98.9588269  15.9804084 117.2525281  99.1348873
  10.0786728 120.6585052  95.2614468   9.1443007 120.7786514  95.0919172
  10.2563397 119.7557519  94.9974478   5.5791916 114.0430748  97.4147729
   5.2089704 113.4901788  98.1028635   6.0751009 113.4388881  96.8622729
  13.4659280 116.5002371  95.7964502  13.9319732 117.3330363  95.7224805
  13.9166780 116.0347353  96.5009760  11.5335511 122.8446192  92.7950654
  11.8095355 122.7302787  93.7044528  10.6640010 122.4463677  92.7562827
  11.4375942 108.8682958  99.8355403  10.5239022 109.0987185 100.0037610
  11.8669044 108.9521402 100.6869436  11.2082401 117.0572850 102.3355297
  10.5553851 117.3048757 101.6807750  11.5862781 116.2436988 102.0017775
   7.2569974 117.7992661 108.8221334   6.5810611 117.6986790 109.4923710
   8.0797608 117.6431875 109.2857332   0.9757250 111.4534738 103.6600835
   1.0398577 112.3149569 103.2478233   0.9124370 110.8408740 102.9273194
  11.1996052 124.8550584 101.6722183  10.2526388 124.7355935 101.6000509
  11.5478826 123.9673082 101.7548444   3.5595626 110.7444723 105.4960425
   4.0830028 110.9907020 106.2586734   3.3407959 111.5764758 105.0763562
   8.2042486 124.6503300  97.8726535   8.0567448 123.7220008  98.0534105
   9.0295979 124.6723391  97.3883610   2.0704730 113.3021367  93.7307027
   2.4100803 113.8307289  93.0085635   2.5176851 113.6401774  94.5065594
  11.8076608 125.4731859  98.9591408  12.7323155 125.2674720  98.8215859
  11.6391911 125.2248260  99.8680749   4.7648171 111.6858418 103.1810095
   4.4244991 110.8866231 103.5830775   4.0587177 111.9860129 102.6086928
   5.4164643 108.7707731 101.6337418   6.2390712 108.2968209 101.5116308
   5.6602706 109.5498214 102.1336104   4.0572877 111.7995989  91.9300320
   4.7781240 112.1777242  91.4264037   3.4338181 112.5184866  92.0335298
   8.2004000 112.5041138  92.8658652   8.4167614 113.3865776  92.5647480
   7.7198067 112.1127351  92.1364294   2.9403221 115.4626851  99.4429397
   2.7947802 115.7767154 100.3353678   2.4628425 116.0811752  98.8900295
   4.7999604 112.4529399  99.4910286   4.7861173 111.5570493  99.1542584
   5.5172032 112.4600063 100.1248572   6.6525735 112.8866739 101.5363414
   6.3943513 113.8083810 101.5347744   6.1210775 112.4897174 102.2263878
  11.5971924 125.9917527  94.3153499  11.7708801 125.4263949  93.5627352
  12.0900815 126.7918421  94.1332989   4.2036500 111.3343779  94.7597856
   4.3252412 110.4060426  94.9588744   3.9138543 111.3482465  93.8476172
   7.0727691 109.0198690  97.8964576   7.0949388 109.0838023  96.9416556
   7.4895750 108.1803199  98.0905082  17.4511315 118.7553949  95.9343799
  17.8942461 118.0061275  95.5362922  16.5737825 118.7464086  95.5517531
  12.5847096 125.3084291  91.4150397  13.2798001 125.9290984  91.6337712
  12.9270246 124.4579642  91.6902775  14.4838519 122.7583996  92.9437728
  15.0089844 123.0971269  92.2187048  14.3960872 121.8231012  92.7600863
   3.6877580 112.8475777 108.9687789   3.7365735 113.7237900 108.5865559
   4.2300094 112.3053170 108.3959432  14.1732426 123.3916900 108.2488926
  13.3827969 123.3741039 107.7093425  13.9365780 123.9305194 109.0037963
  14.2930301 120.2409366 105.5621655  14.3428306 120.0759374 106.5037177
  14.1844224 119.3736626 105.1719535   3.1766559 122.9197912  92.8513744
   3.3254680 123.6033377  92.1980416   3.9833003 122.9003002  93.3663199
  11.5834063 116.2240295 106.8780961  12.4843926 116.0846759 106.5864959
  11.6582037 116.3894749 107.8179139   5.9176868 113.6007149 105.7234148
   5.0480178 113.8940715 105.4516736   6.1536349 114.1847594 106.4441411
  15.7948497 122.6606308 105.8063676  15.5033306 123.0236289 106.6427137
  15.1820629 121.9473316 105.6277008  16.9944180 120.2259188  98.3266246
  17.8291071 120.6648992  98.4903807  17.1303309 119.7497841  97.5074492
  14.0435686 117.7838923 104.2743734  14.5189807 117.9766569 103.4662586
  13.1201251 117.8398108 104.0287118   0.9319192 118.9463090  93.8574812
   0.6865234 118.0425420  94.0555023   1.1015107 118.9480240  92.9154290
   8.6215902 109.8186766 103.2399568   9.1397846 110.5547793 102.9146057
   8.2671035 110.1250759 104.0746327   8.8728496 106.2387049  98.7600465
   9.1530250 105.5710238  99.3860891   9.6579103 106.4316144  98.2475128
  12.7437355 114.6604683 102.5072040  13.6954778 114.7602780 102.5284264
  12.5740805 113.8682951 103.0170124  10.7651734 111.7460266 102.6931441
  10.1701666 112.0265279 101.9977929  10.4801431 112.2354167 103.4648182
  12.5247241 125.0149063  88.4138021  12.4460873 124.6808927  89.3073779
  13.3456908 125.5070831  88.4129493  15.2225432 117.8810802 101.6214339
  15.1901753 116.9426803 101.8074023  15.8326056 117.9594839 100.8880164
   7.0608763 116.7506855  87.6641543   8.0067868 116.6213063  87.7329961
   6.6823008 116.0121517  88.1410972  15.3719921 114.6721846 101.6672623
  14.8558970 113.8880302 101.4802551  16.2559869 114.3440562 101.8319142
  13.0330648 108.4162861  97.6268435  12.8355469 108.1077950  98.5111767
  13.6430353 109.1424500  97.7566365  21.0401982 118.9426809 100.7620376
  21.7705371 118.6812097 101.3228080  20.4308928 118.2055531 100.8022444
  19.1217279 117.0834672 101.3594827  18.3950443 116.9490637 100.7511319
  18.7064566 117.3911500 102.1651545   5.2451680 114.6756832  87.5996429
   4.3383136 114.3789944  87.6759142   5.5227661 114.3786650  86.7330715
   6.8613746 109.2193721  93.7540670   6.0514474 108.8740806  94.1295916
   7.5498163 108.9101265  94.3428282   8.7904294 108.2971768  95.3764967
   9.3435333 108.7167222  96.0354990   9.0274381 107.3707516  95.4187923
   4.0150465 111.5343767  87.7408408   4.8769629 111.8598665  88.0004225
   4.2000809 110.7475263  87.2281474  12.1683102 110.4072293  94.8843631
  11.5881771 111.0657097  94.5021683  11.9019034 109.5849638  94.4731048
  10.6186668 109.8077351  97.0864951  11.1186446 109.9193886  96.2779270
  11.2622276 109.5038404  97.7265760  10.9507980 112.5672384  93.9399979
  10.0633835 112.8522034  93.7220174  11.3661969 112.4066147  93.0927256
  14.3022516 112.5918905  97.6554318  15.0782906 113.0815357  97.9278935
  13.5770650 113.0176959  98.1126188  16.7395074 113.3046524  98.7128259
  17.3339565 113.0642260  98.0021567  16.8121658 112.5853655  99.3401795
  10.0951193 122.3317058  88.0347999  10.7987043 122.5367061  88.6505655
   9.3713842 122.8993820  88.2997083  10.9249003 118.0826920  94.1550269
  10.8684205 118.5395471  93.3157902  11.4777346 117.3217604  93.9773112
  14.7353809 113.8716652  94.9800389  14.4790743 113.4713287  95.8108596
  14.1106677 114.5860446  94.8550528  19.0466147 116.6112725  97.4871680
  18.4865705 116.6805914  98.2603242  18.4409650 116.4353709  96.7671176
  12.0037890 122.7699588  90.0846459  12.8383494 122.3380786  89.9023934
  11.8422233 122.5981601  91.0123354  11.6583783 119.2731701  91.4502798
  11.6032586 119.1075972  90.5091243  11.0329838 119.9807734  91.6064988
   4.9679908 108.7739810  91.0288117   4.9558578 109.7181650  91.1856388
   5.8603330 108.5909955  90.7347578   8.7832028 105.3682587  95.2834054
   8.0164423 104.8141073  95.4290736   9.1942733 105.4404455  96.1448205
  25.5871861 130.9495926  98.1587822  26.3197033 130.3795143  98.3925652
  24.8311217 130.5617526  98.5994328  23.1097281 124.6617500 102.6182431
  22.7780606 125.5312911 102.3943646  22.5142895 124.3453784 103.2976461
  23.0025945 129.3812586  99.6975781  22.0942822 129.3127995  99.4034542
  22.9513541 129.8584531 100.5257607  24.8687591 127.5829025 101.4753655
  24.2261971 127.8761558 100.8293450  24.3642520 127.4681945 102.2806852
  20.3099038 128.3493801 104.8315537  20.0659970 129.1035861 104.2949813
  20.5858968 128.7279148 105.6662785  19.8663730 127.5050234 100.4129375
  19.0048209 127.8031487 100.7046113  19.8926164 127.7220633  99.4810408
  16.2623250 126.4805978 107.9589463  17.0032964 127.0813131 107.8793925
  16.4941173 125.7383616 107.4007506  20.2080413 122.5087081 102.2353745
  19.8644683 123.3988723 102.1592855  20.5759376 122.3188739 101.3723330
  17.7577807 127.3445393  95.8011418  16.9019403 126.9552243  95.6217057
  18.1704759 127.4237354  94.9411204  19.2876954 124.8791736 100.2002978
  18.7841749 124.8421871  99.3870783  19.5807561 125.7884479 100.2599635
  15.5319840 124.9630466  99.2069160  16.3972836 124.7673275  98.8475049
  15.5997348 124.7340818 100.1338516  13.1382159 127.1932674  96.5785526
  13.7125911 126.9707855  95.8458719  13.7253141 127.2621368  97.3314128
  15.4404826 124.0673923  95.3060596  14.7869239 123.7522940  94.6817211
  15.3985301 123.4449663  96.0320419  21.9056452 128.9904388  96.7429713
  21.1679208 128.4781775  97.0739956  22.1583225 128.5504770  95.9312990
  22.0068079 121.7680640  97.3371482  22.3126956 120.9078004  97.0497397
  22.7320684 122.3598261  97.1370476  18.0874707 126.2629872 105.1836759
  17.4402622 126.9619821 105.0901236  18.8575723 126.6966016 105.5513008
  19.8350702 127.2305282  97.6876044  20.3319402 126.4775245  97.3677115
  19.0637684 127.2669599  97.1219254  22.2769697 124.1974876  99.8355403
  21.3632777 124.4279103 100.0037610  22.7062798 124.2813320 100.6869436
  14.3989380 126.0736641 105.4960425  14.9223782 126.3198937 106.2586734
  14.1801714 126.9056676 105.0763562  15.6041925 127.0150336 103.1810095
  15.2638746 126.2158149 103.5830775  14.8980932 127.3152047 102.6086928
  16.2558397 124.0999648 101.6337418  17.0784467 123.6260126 101.5116308
  16.4996461 124.8790132 102.1336104  19.0397755 127.8333056  92.8658652
  19.2561369 128.7157694  92.5647480  18.5591822 127.4419269  92.1364294
  15.6393359 127.7821317  99.4910286  15.6254928 126.8862410  99.1542584
  16.3565787 127.7891981 100.1248572  15.0430255 126.6635697  94.7597856
  15.1646166 125.7352343  94.9588744  14.7532297 126.6774383  93.8476172
  17.9121445 124.3490608  97.8964576  17.9343142 124.4129941  96.9416556
  18.3289504 123.5095116  98.0905082  19.4609657 125.1478684 103.2399568
  19.9791600 125.8839711 102.9146057  19.1064789 125.4542677 104.0746327
  19.7122251 121.5678966  98.7600465  19.9924005 120.9002155  99.3860891
  20.4972858 121.7608062  98.2475128  23.5831109 129.9896600 102.5072040
  24.5348532 130.0894698 102.5284264  23.4134560 129.1974869 103.0170124
  21.6045489 127.0752184 102.6931441  21.0095421 127.3557196 101.9977929
  21.3195185 127.5646085 103.4648182  26.2113675 130.0013764 101.6672623
  25.6952724 129.2172220 101.4802551  27.0953624 129.6732480 101.8319142
  23.8724402 123.7454779  97.6268435  23.6749223 123.4369867  98.5111767
  24.4824108 124.4716418  97.7566365  29.9611034 132.4126590 101.3594827
  29.2344197 132.2782554 100.7511319  29.5458321 132.7203418 102.1651545
  17.7007501 124.5485639  93.7540670  16.8908229 124.2032724  94.1295916
  18.3891918 124.2393183  94.3428282  19.6298049 123.6263686  95.3764967
  20.1829088 124.0459139  96.0354990  19.8668135 122.6999434  95.4187923
  14.8544220 126.8635685  87.7408408  15.7163384 127.1890583  88.0004225
  15.0394564 126.0767181  87.2281474  23.0076856 125.7364211  94.8843631
  22.4275525 126.3949015  94.5021683  22.7412789 124.9141556  94.4731048
  21.4580422 125.1369269  97.0864951  21.9580201 125.2485803  96.2779270
  22.1016030 124.8330322  97.7265760  21.7901734 127.8964302  93.9399979
  20.9027589 128.1813952  93.7220174  22.2055723 127.7358065  93.0927256
  25.1416270 127.9210822  97.6554318  25.9176660 128.4107275  97.9278935
  24.4164404 128.3468877  98.1126188  27.5788829 128.6338442  98.7128259
  28.1733320 128.3934178  98.0021567  27.6515413 127.9145572  99.3401795
  25.5747564 129.2008569  94.9800389  25.3184498 128.8005205  95.8108596
  24.9500432 129.9152363  94.8550528  29.8859902 131.9404643  97.4871680
  29.3259460 132.0097832  98.2603242  29.2803405 131.7645627  96.7671176
  15.8073663 124.1031728  91.0288117  15.7952332 125.0473568  91.1856388
  16.6997084 123.9201873  90.7347578  19.6225782 120.6974504  95.2834054
  18.8558178 120.1432991  95.4290736  20.0336487 120.7696373  96.1448205
   3.9084353  77.2974213  84.8833129   4.6409525  76.7273430  85.1170959
   3.1523709  76.9095814  85.3239635   1.4309774  71.0095787  89.3427738
   1.0993099  71.8791198  89.1188953   0.8355387  70.6932071  90.0221768
   1.3238437  75.7290873  86.4221088   0.4155314  75.6606282  86.1279849
   1.2726033  76.2062818  87.2502913   3.1900083  73.9307312  88.1998962
   2.5474464  74.2239845  87.5538756   2.6855012  73.8160232  89.0052158
   0.8440247  77.6770485  78.8884821   1.7558103  77.9097872  78.7132518
   0.3349894  78.2607529  78.3259900   3.3299061  83.5950741  83.6342766
   2.6450100  83.9749643  83.0839799   3.4142911  84.2046068  84.3674714
   0.5849993  81.2410700  90.2338110   0.7966888  81.8842460  89.5572491
   0.5379741  80.4073017  89.7660040   1.6995821  84.1182656  88.4060467
   2.5213265  83.7162843  88.1243149   1.6958224  84.0150890  89.3576583
   9.7901814  80.4621404  84.7545438   9.0365522  79.8928802  84.5989443
   9.9249355  80.4284069  85.7016073   3.4677462  81.6006334  79.4024660
   2.6906905  81.2617494  78.9579822   4.1468943  81.6058957  78.7279625
   1.7068769  81.0740315  86.0591268   1.0492444  81.7639577  86.1471397
   2.5109169  81.4636747  86.4025254   0.5174228  79.4284688  84.1095210
   1.0306110  80.0614680  84.6116919   1.1675452  78.8285884  83.7438570
   1.2836024  84.4090690  82.2374352   0.8298351  83.5681599  82.2939543
   0.6529991  85.0452088  82.5749132   0.3280571  68.1158928  84.0616789
   0.6339448  67.2556291  83.7742704   1.0533176  68.7076548  83.8615783
   3.8665960  80.6150041  81.8647582   3.7283858  80.8051637  80.9368771
   3.5102178  81.3769424  82.3215633   3.8935339  82.6826568  86.8758853
   4.3271846  82.5901857  87.7241907   4.6066920  82.6584068  86.2378869
   4.7550889  82.7250268  89.4091739   4.9486779  83.6296079  89.6551014
   4.6551507  82.2657687  90.2430324   1.5258204  85.9076134  93.0609101
   1.4670750  85.2235354  92.3939684   1.9277722  86.6495124  92.6089727
   1.5275611  83.8715718  91.2923081   0.6402390  83.5341639  91.4149480
   2.0974162  83.1398749  91.5291846   6.0092952  79.2823935  86.0539643
   5.9982828  80.1648650  85.6833576   5.1410331  78.9295486  85.8594180
   2.6265526  78.1772576  82.5209809   3.0925979  79.0100568  82.4470111
   3.0773027  77.7117558  83.2255067   0.9682854  87.1502064  85.6836714
   1.8929402  86.9444925  85.5461165   0.7998158  86.9018465  86.5926056
   0.7578171  87.6687731  81.0398806   0.9315048  87.1034154  80.2872658
   1.2507062  88.4688626  80.8578296   6.6117562  80.4324154  82.6589105
   7.0548708  79.6831480  82.2608229   5.7344072  80.4234291  82.2762837
   1.7453343  86.9854496  78.1395704   2.4404248  87.6061189  78.3583019
   2.0876493  86.1349847  78.4148082   3.6444766  84.4354201  79.6683035
   4.1696090  84.7741474  78.9432355   3.5567119  83.5001217  79.4846169
   3.3338672  85.0687105  94.9734233   2.5434216  85.0511244  94.4338732
   3.0972027  85.6075399  95.7283269   3.4536547  81.9179571  92.2866961
   3.5034552  81.7529579  93.2282484   3.3450471  81.0506830  91.8964842
   0.7440310  77.9010499  93.6026268   1.6450172  77.7616964  93.3110266
   0.8188284  78.0664954  94.5424445   4.9554744  84.3376513  92.5308983
   4.6639552  84.7006493  93.3672444   4.3426875  83.6243521  92.3522315
   6.1550426  81.9029393  85.0511553   6.9897318  82.3419197  85.2149113
   6.2909555  81.4268046  84.2319799   3.2041932  79.4609128  90.9989041
   3.6796054  79.6536774  90.1907892   2.2807498  79.5168313  90.7532424
   1.9043601  76.3374888  89.2317346   2.8561024  76.4372985  89.2529570
   1.7347052  75.5453156  89.7415431   1.6853488  86.6919268  75.1383327
   1.6067120  86.3579132  76.0319085   2.5063155  87.1841036  75.1374800
   4.3831679  79.5581007  88.3459646   4.3507999  78.6197008  88.5319330
   4.9932303  79.6365044  87.6125471   4.5326168  76.3492051  88.3917929
   4.0165216  75.5650507  88.2047858   5.4166116  76.0210767  88.5564449
   2.1936895  70.0933066  84.3513742   1.9961716  69.7848155  85.2357074
   2.8036600  70.8194705  84.4811672  10.2008229  80.6197014  87.4865683
  10.9311618  80.3582302  88.0473386   9.5915175  79.8825736  87.5267751
   8.2823526  78.7604877  88.0840134   7.5556690  78.6260842  87.4756626
   7.8670813  79.0681705  88.8896852   1.3289348  72.0842498  81.6088937
   0.7488017  72.7427302  81.2266990   1.0625281  71.2619843  81.1976355
   3.4628762  74.2689110  84.3799625   4.2389153  74.7585562  84.6524242
   2.7376897  74.6947164  84.8371494   5.9001321  74.9816729  85.4373566
   6.4945812  74.7412465  84.7266874   5.9727905  74.2623860  86.0647102
   3.8960056  75.5486857  81.7045695   3.6396990  75.1483492  82.5353903
   3.2712924  76.2630650  81.5795835   8.2072394  78.2882930  84.2116987
   7.6471952  78.3576119  84.9848549   7.6015897  78.1123914  83.4916483
   1.1644137  84.4469793  76.8091766   1.9989741  84.0150991  76.6269241
   1.0028480  84.2751806  77.7368660   9.7928412  94.9639444  86.9046943
  10.4306822  94.8446191  86.2010283   9.6749255  95.9120288  86.9634895
   6.6018119  94.9166872  86.8408467   6.2636630  94.8007937  85.9529002
   7.4707887  94.5158037  86.8209473   2.4604934  96.7702348  82.8305358
   1.8969799  96.6792285  82.0621646   2.3457329  95.9502253  83.3107851
   7.0837902  96.0701724  92.7994673   7.0726542  95.6754522  91.9275176
   7.2458541  95.3367796  93.3928444   8.0404493 100.4373316  78.1419823
   7.3892473 101.0227396  77.7553837   8.8348856 100.9679511  78.2014861
   1.9660120  97.5262453  78.5406957   2.7390996  96.9791440  78.4019833
   2.3185519  98.3906702  78.7521419   3.8045163  98.8538835  91.7473857
   3.5135029  99.7584466  91.6320523   4.4402147  98.8955363  92.4617926
   4.7301370  96.2315684  88.3375216   5.3264942  96.0071706  87.6232179
   4.7876341  95.4900429  88.9400664   4.3026398  93.6855119  76.1725407
   4.5551919  93.1636640  75.4108870   3.3650957  93.5221265  76.2752091
   9.3469681  92.6890898  83.9800151  10.1332770  92.2710321  83.6290568
   9.6108385  93.5936990  84.1481799   9.5179758  98.1263748  78.6788807
   8.8825591  98.1998374  79.3909712   9.1877165  98.7157347  78.0007887
  14.7478108  92.6266131  84.8833129  15.4803280  92.0565348  85.1170959
  13.9917464  92.2387731  85.3239635   4.0222687  95.5883225  78.3749782
   3.9058945  94.9128129  79.0430867   4.1324947  95.1015599  77.5581935
   6.3654228  95.0493372  82.0796472   6.0012435  94.5223993  82.7909393
   7.2221344  94.6591841  81.9062957  12.2703528  86.3387705  89.3427738
  11.9386853  87.2083116  89.1188953  11.6749142  86.0223989  90.0221768
   6.0059715  90.0783272  77.0757820   6.1734117  90.9463508  77.4428291
   5.8156884  90.2410554  76.1519109   8.7635048  98.5400251  88.7423650
   8.4635771  99.4425290  88.6339458   8.4186107  98.2732434  89.5944803
   2.2147529  94.9914048  84.7760355   1.2898026  94.8590262  84.9838047
   2.4631942  95.7708267  85.2730297  12.1632192  91.0582791  86.4221088
  11.2549069  90.9898199  86.1279849  12.1119787  91.5354736  87.2502913
   5.9848935  92.5340929  78.0604487   5.8648561  92.9797980  78.8989967
   5.2901524  92.8826247  77.5018025   3.7455828 105.3044571  81.7094618
   3.6679857 106.2552396  81.7883099   3.1417471 104.9590444  82.3669544
   6.2373057  92.4772437  94.3655985   5.4606391  93.0366357  94.3558850
   6.8763620  92.9629220  94.8870855  14.0293838  89.2599229  88.1998962
  13.3868218  89.5531763  87.5538756  13.5248767  89.1452150  89.0052158
  11.6834002  93.0062403  78.8884821  12.5951858  93.2389789  78.7132518
  11.1743649  93.5899447  78.3259900   4.4919430  95.2857890  93.9273952
   5.2334114  95.8242934  93.6508776   3.7856415  95.9124179  94.0845504
   9.9674769  97.4287030  92.5246113  10.3758125  96.9869441  91.7800746
   9.2452031  96.8539658  92.7780306   6.3205839  92.3659637  89.8979670
   7.1667035  92.7899051  90.0414319   6.2604477  91.7093262  90.5918234
  10.2903584  97.9888221  86.2798402   9.6612446  98.1533935  85.5774470
   9.9029246  98.4029831  87.0509366  14.1692816  98.9242659  83.6342766
  13.4843854  99.3041560  83.0839799  14.2536665  99.5337986  84.3674714
   9.4705285  90.0264006  91.5560844   9.2266217  90.7806066  91.0195120
   9.7465215  90.4049353  92.3908091  11.4243747  96.5702618  90.2338110
  11.6360643  97.2134378  89.5572491  11.3773496  95.7364935  89.7660040
   9.0269976  89.1820439  87.1374682   8.1654455  89.4801692  87.4291419
   9.0532411  89.3990838  86.2055714   5.8431546  97.7262629  83.5448487
   6.3069891  98.0050332  82.7553110   5.5788344  96.8246074  83.3621578
   2.7355627  97.2734111  86.4828251   3.3056984  97.7021379  85.8445735
   3.3263739  96.9916695  87.1812436   4.7800432  93.8485782  80.3538053
   5.4824475  94.3006825  80.8211979   4.4481060  93.2069600  80.9817946
   3.2280793  92.4397538  94.7289262   2.5979454  93.1213819  94.9624659
   3.1216881  92.3280620  93.7842400  12.5389575  99.4474573  88.4060467
  13.3607019  99.0454761  88.1243149  12.5351978  99.3442808  89.3576583
   6.3046179  98.9958617  90.5621178   6.3690611  99.4579024  91.3979349
   5.5957103  98.3655982  90.6903487  20.6295568  95.7913322  84.7545438
  19.8759277  95.2220720  84.5989443  20.7643110  95.7575986  85.7016073
   6.0194196 100.6626724  80.4300158   5.8839871 101.5078260  80.8585006
   6.5604009 100.8646002  79.6666092   2.5061536  86.7418304  97.0914513
   2.1128482  86.1884503  97.7662157   3.3227676  87.0528883  97.4821031
   1.2818479 101.2967919  83.0850836   1.4585107 102.2185883  82.8971820
   2.0775312 100.9826338  83.5145216   5.4229497  88.1576183  94.6834770
   6.1639211  88.7583336  94.6039232   5.6547420  87.4153821  94.1252812
   7.6462673 101.2850291  94.5600500   7.2026527 100.4986669  94.2421404
   8.3079886 101.4729441  93.8944391   2.4049794 102.8146092  89.0861178
   2.9557219 102.6863156  88.3138172   1.5661270 103.1140981  88.7356071
   9.7443911 101.5653091  92.5881901   9.7262386 102.3861972  92.0962170
  10.6663831 101.4407166  92.8132042   6.2016965  99.0797220  93.4305410
   6.7345302  98.3185508  93.2004718   5.6731046  98.7870872  94.1729564
   9.3686660  84.1857286  88.9599051   9.0250929  85.0758928  88.8838162
   9.7365623  83.9958944  88.0968636   9.3336943  94.1765897  77.4671486
   8.8183566  94.9470502  77.7059874   9.0614251  93.5031033  78.0904548
   6.9184054  89.0215598  82.5256725   6.0625650  88.6322448  82.3462363
   7.3311006  89.1007559  81.6656510   8.4483200  86.5561941  86.9248285
   7.9447996  86.5192076  86.1116090   8.7413807  87.4654684  86.9844941
   4.6926086  86.6400671  85.9314466   5.5579083  86.4443480  85.5720356
   4.7603595  86.4111023  86.8583823  14.3071217  96.9298252  79.4024660
  13.5300660  96.5909411  78.9579822  14.9862698  96.9350875  78.7279625
   9.1223246  92.0492989  79.2931268   8.8173382  92.3639138  80.1441411
  10.0753688  92.1274409  79.3358601   7.5669678  98.2083213  80.9424222
   7.0391039  97.4735972  80.6297459   7.0657181  98.9857889  80.6964190
  12.5462524  96.4032233  86.0591268  11.8886198  97.0931494  86.1471397
  13.3502923  96.7928665  86.4025254   2.2988405  88.8702879  83.3030833
   2.8732157  88.6478060  82.5704026   2.8859388  88.9391573  84.0559434
  11.3567983  94.7576606  84.1095210  11.8699864  95.3906598  84.6116919
  12.0069207  94.1577801  83.7438570   2.6257993  90.9007340  77.3226718
   1.7895305  91.2382026  77.6435993   2.4862762  90.7656320  76.3853855
   4.6011073  85.7444128  82.0305903   3.9475485  85.4293145  81.4062517
   4.5591547  85.1219868  82.7565725   5.7122278  96.0263423  73.9459195
   4.8049340  95.7952676  74.1450344   6.2093310  95.2301042  74.1333176
   8.6190357 104.7360930  76.8655881   7.9452056 105.0392627  77.4740839
   9.0056179 105.5390010  76.5161338   7.8348813  92.2326061  86.3553550
   6.9171375  92.4541008  86.1975238   8.2508957  92.3072372  85.4965257
   8.6183861  93.6317477  81.4856230   9.3655680  94.1438874  81.1763352
   8.8875451  93.3101530  82.3460624   6.8910511  96.1276018  78.4683185
   5.9821731  95.8435051  78.5655654   6.9205595  96.5475096  77.6086492
  12.1229779  99.7382607  82.2374352  11.6692106  98.8973517  82.2939543
  11.4923746 100.3744006  82.5749132  11.0662698  90.6674593  83.4675020
  10.3285455  90.1551979  83.7985262  11.3189472  90.2274975  82.6558297
  10.5662718 101.5759104  83.1724170  10.8585692 102.1364161  82.4536536
  11.0761339 101.8687665  83.9277330  11.1674326  83.4450845  84.0616789
  11.4733203  82.5848209  83.7742704  11.8926931  84.0368465  83.8615783
   5.4395405  93.7404638  84.5692980   5.4944015  92.7878475  84.4935457
   4.6286607  93.8964077  85.0534278   6.5886599  97.6684761  75.8071263
   6.1506029  96.9520620  75.3476901   7.3297040  97.8960876  75.2456355
   3.3787765  92.3581698  82.3283359   2.5655631  92.6575869  82.7348551
   3.8746760  91.9637387  83.0457841   5.5296343 102.3539455  84.2617624
   5.4872522 102.5800301  83.3326156   6.4459042 102.1202830  84.4103425
   8.9761977  92.8223523  91.1598253   9.3311365  93.0494996  92.0192719
   9.6234108  93.1541899  90.5375508  14.7059714  95.9441958  81.8647582
  14.5677613  96.1343554  80.9368771  14.3495933  96.7061341  82.3215633
   2.8701840  89.9300054  87.9444594   3.5101219  89.7888813  87.2467557
   2.0379371  89.6434567  87.5683196  14.7329094  98.0118485  86.8758853
  15.1665600  97.9193775  87.7241907  15.4460674  97.9875986  86.2378869
   3.6462144  99.2302484  84.0579586   4.4402743  98.7352804  83.8562161
   2.9353836  98.7020347  83.6947292   8.4656989 101.6120580  88.4091954
   8.5194011 102.1811516  89.1769670   7.5971770 101.7822465  88.0445991
   1.3455382  91.3138136  89.8916405   2.0178435  91.1055498  89.2429054
   0.5185168  91.1160222  89.4521637  15.5944643  98.0542186  89.4091739
  15.7880533  98.9587997  89.6551014  15.4945261  97.5949605  90.2430324
   7.2480954  87.9400077  91.9082066   6.6008869  88.6390026  91.8146542
   8.0181969  88.3736221  92.2758314  10.6559752  98.2048929  94.9832619
  10.5045258  97.9759481  94.0662703  10.6464431  99.1619530  94.9963964
   7.4245088  95.7780842  89.9678886   8.3537148  95.9292001  89.7947853
   7.0036118  95.8664862  89.1127532   6.2233420  99.8031506  87.7377423
   6.0844506  99.4350290  88.6103362   5.4348016 100.3179145  87.5661381
   6.8181572 104.9040602  79.0802960   6.9933328 104.4328646  79.8948583
   6.1314360 105.5306369  79.3084221   7.7738635  99.1813109  85.1266261
   7.4388468  99.1413879  86.0223911   7.2742581  98.5157825  84.6536671
   1.7482879  94.5880739  90.6518842   1.6102677  93.8560978  91.2530381
   2.6587803  94.4989639  90.3703030  10.7097827  96.5269143  75.4003321
  10.0926997  95.8015971  75.3036374  10.2414315  97.2878503  75.0570395
   4.3765180  94.3000698  90.1402522   5.0864798  93.6593890  90.0989140
   4.3334488  94.5513593  91.0628703  12.3651959 101.2368051  93.0609101
  12.3064505 100.5527272  92.3939684  12.7671477 101.9787041  92.6089727
   3.0894114  91.2865916  91.9598161   2.5531471  90.8356654  92.6119758
   2.5010822  91.4211825  91.2168626   1.3842657 108.0529965  85.8542820
   1.6239256 108.6848489  86.5321839   0.5411854 107.7018005  86.1408179
   2.4996373  90.7454567  74.5224625   1.6225839  90.6243368  74.1586872
   2.9754126  89.9540646  74.2703514  12.3669366  99.2007635  91.2923081
  11.4796145  98.8633557  91.4149480  12.9367917  98.4690667  91.5291846
   5.8970519 103.8609088  88.2584324   5.8240691 104.6664059  88.7703629
   5.4547912 104.0601053  87.4332345   5.6860299 103.0980858  81.7687146
   4.9027821 103.6402538  81.8625370   6.3853044 103.6154837  82.1681387
   8.9956949  88.9075487  84.4121351   9.4925648  88.1545449  84.0922421
   8.2243930  88.9439804  83.8464560  16.8486706  94.6115853  86.0539643
  16.8376583  95.4940568  85.6833576  15.9804086  94.2587404  85.8594180
   8.3569203 103.7595922  90.4142483   9.0697175 104.3943387  90.3418384
   7.8659231 103.8559788  89.5982485  10.0786730  97.6647174  81.9859774
   9.1443008  97.7848637  81.8164479  10.2563398  96.7619641  81.7219784
   5.5791918  91.0492870  84.1393036   5.2089705  90.4963911  84.8273941
   6.0751010  90.4451004  83.5868036  13.4659281  93.5064494  82.5209809
  13.9319733  94.3392485  82.4470111  13.9166781  93.0409475  83.2255067
   3.4081116 101.5090365  91.2348054   4.1090576 102.1426848  91.3877448
   2.9376231 101.8505097  90.4743693  11.5335512  99.8508315  79.5195961
  11.8095356  99.7364910  80.4289835  10.6640011  99.4525800  79.4808134
  11.4375944  85.8745081  86.5600710  10.5239023  86.1049307  86.7282917
  11.8669045  85.9583525  87.4114742  11.2082402  94.0634973  89.0600604
  10.5553852  94.3110880  88.4053057  11.5862782  93.2499111  88.7263081
   8.1689576 104.0994666  83.1628774   8.3511971 103.2816322  83.6256527
   8.9922562 104.3162358  82.7253664   8.5031742 103.0262851  80.4243823
   9.0319508 102.5155306  79.8113985   8.7659961 102.7105381  81.2889356
   7.2569975  94.8054784  95.5466641   6.5810612  94.7048913  96.2169016
   8.0797609  94.6493997  96.0102638   1.8587490 104.0777968  83.1841599
   1.1897865 104.5624095  82.7005639   1.7200359 104.3247188  84.0984977
   5.9992758 106.1121711  89.7824257   6.5511066 106.2753333  90.5473342
   6.3398952 106.7026149  89.1104282   0.9757251  88.4596861  90.3846142
   1.0398578  89.3211692  89.9723539   0.9124372  87.8470863  89.6518500
  10.8503632 100.9382969  95.6372911  11.3943536 101.5512927  95.1427866
  10.2690477 101.4962547  96.1539924   9.1361145 104.0603687  86.7687939
   9.0112285 103.2593426  86.2598885   9.7940236 104.5549880  86.2801909
  11.1996054 101.8612707  88.3967489  10.2526389 101.7418058  88.3245816
  11.5478827 100.9735205  88.4793751   3.5595627  87.7506846  92.2205731
   4.0830029  87.9969142  92.9832040   3.3407960  88.5826880  91.8008868
   8.2042487 101.6565423  84.5971841   8.0567449 100.7282130  84.7779412
   9.0295981 101.6785514  84.1128917   2.0704731  90.3083490  80.4552334
   2.4100804  90.8369411  79.7330942   2.5176852  90.6463896  81.2310900
  11.8076609 102.4793982  85.6836714  12.7323156 102.2736843  85.5461165
  11.6391912 102.2310383  86.5926056   4.7648172  88.6920541  89.9055402
   4.4244993  87.8928354  90.3076082   4.0587178  88.9922252  89.3332235
   5.4164644  85.7769853  88.3582725   6.2390713  85.3030331  88.2361615
   5.6602708  86.5560337  88.8581411   4.0572878  88.8058112  78.6545626
   4.7781241  89.1839364  78.1509343   3.4338183  89.5246988  78.7580604
   8.2004001  89.5103261  79.5903959   8.4167616  90.3927898  79.2892787
   7.7198069  89.1189474  78.8609601   2.9403223  92.4688974  86.1674703
   2.7947803  92.7829277  87.0598985   2.4628426  93.0873874  85.6145602
   4.7999606  89.4591522  86.2155593   4.7861174  88.5632615  85.8787891
   5.5172034  89.4662186  86.8493879   6.6525736  89.8928862  88.2608720
   6.3943514  90.8145933  88.2593051   6.1210777  89.4959297  88.9509184
  11.5971925 102.9979649  81.0398806  11.7708803 102.4326072  80.2872658
  12.0900816 103.7980544  80.8578296   4.2036502  88.3405902  81.4843163
   4.3252413  87.4122548  81.6834051   3.9138544  88.3544588  80.5721478
   7.0727692  86.0260813  84.6209883   7.0949389  86.0900146  83.6661862
   7.4895751  85.1865321  84.8150389  17.4511316  95.7616072  82.6589105
  17.8942462  95.0123397  82.2608229  16.5737827  95.7526208  82.2762837
  12.5847098 102.3146414  78.1395704  13.2798002 102.9353106  78.3583019
  12.9270248 101.4641765  78.4148082  14.4838521  99.7646119  79.6683035
  15.0089845 100.1033392  78.9432355  14.3960873  98.8293134  79.4846169
   6.1458569 103.6780193  91.7972911   6.4545696 103.4329339  92.6695611
   6.9434051 103.8826831  91.3091782   6.1679181 105.8318102  84.0278288
   5.7284172 105.3394481  84.7211145   6.9187298 105.2891070  83.7870363
   3.6153054 101.3756111  86.1000590   2.9933063 100.7126816  85.8002817
   4.2857921 101.4017243  85.4174237   3.6877581  89.8537899  95.6933096
   3.7365737  90.7300022  95.3110865   4.2300095  89.3115293  95.1204739
  14.1732427 100.3979023  94.9734233  13.3827970 100.3803162  94.4338732
  13.9365781 100.9367316  95.7283269  14.2930302  97.2471489  92.2866961
  14.3428307  97.0821497  93.2282484  14.1844225  96.3798748  91.8964842
   3.1766561  99.9260035  79.5759050   3.3254681 100.6095499  78.9225723
   3.9833004  99.9065125  80.0908506  11.5834064  93.2302417  93.6026268
  12.4843927  93.0908882  93.3110266  11.6582039  93.3956872  94.5424445
   5.9176870  90.6069272  92.4479454   5.0480179  90.9002838  92.1762043
   6.1536350  91.1909717  93.1686718  15.7948499  99.6668431  92.5308983
  15.5033307 100.0298411  93.3672444  15.1820630  98.9535439  92.3522315
  16.9944181  97.2321310  85.0511553  17.8291072  97.6711114  85.2149113
  17.1303310  96.7559964  84.2319799  14.0435687  94.7901045  90.9989041
  14.5189808  94.9828692  90.1907892  13.1201252  94.8460231  90.7532424
   0.9319194  95.9525212  80.5820119   0.6865235  95.0487542  80.7800329
   1.1015108  95.9542363  79.6399597   8.6215903  86.8248889  89.9644875
   9.1397847  87.5609916  89.6391363   8.2671036  87.1312882  90.7991634
   8.8728498  83.2449171  85.4845771   9.1530251  82.5772360  86.1106198
   9.6579104  83.4378267  84.9720435   6.6761966 102.4208165  77.0470798
   6.1035933 103.0398352  76.5941269   7.2494760 102.9707527  77.5810720
  12.7437356  91.6666805  89.2317346  13.6954779  91.7664903  89.2529570
  12.5740806  90.8745074  89.7415431  10.7651735  88.7522389  89.4176747
  10.1701667  89.0327401  88.7223236  10.4801432  89.2416289  90.1893488
   9.8959226 102.7045315  78.1779380  10.8289899 102.6390877  78.3812255
   9.8082439 103.5401582  77.7193912  12.5247243 102.0211186  75.1383327
  12.4460874 101.6871049  76.0319085  13.3456909 102.5132954  75.1374800
  15.2225434  94.8872925  88.3459646  15.1901754  93.9488926  88.5319330
  15.8326057  94.9656962  87.6125471   7.0608765  93.7568978  74.3886850
   8.0067869  93.6275186  74.4575268   6.6823010  93.0183640  74.8656278
  15.3719922  91.6783968  88.3917929  14.8558971  90.8942425  88.2047858
  16.2559871  91.3502685  88.5564449  13.0330649  85.4224984  84.3513742
  12.8355470  85.1140072  85.2357074  13.6430355  86.1486623  84.4811672
  21.0401984  95.9488932  87.4865683  21.7705372  95.6874220  88.0473386
  20.4308929  95.2117654  87.5267751  19.1217281  94.0896794  88.0840134
  18.3950444  93.9552759  87.4756626  18.7064568  94.3973623  88.8896852
   6.9447457  97.8086724  95.8487507   7.8650467  97.9865323  96.0427554
   6.9097040  96.8642769  95.6967206   5.2451682  91.6818954  74.3241735
   4.3383137  91.3852067  74.4004449   5.5227663  91.3848772  73.4576022
   6.8613747  86.2255844  80.4785977   6.0514476  85.8802929  80.8541223
   7.5498164  85.9163388  81.0673588   8.7904296  85.3033891  82.1010273
   9.3435334  85.7229344  82.7600296   9.0274382  84.3769639  82.1433229
   4.8137395  91.2920965  97.8813037   4.7134122  92.2415321  97.8125128
   4.5958937  90.9639203  97.0089107   4.0150466  88.5405890  74.4653714
   4.8769630  88.8660788  74.7249532   4.2000810  87.7537385  73.9526780
  12.1683103  87.4134416  81.6088937  11.5881772  88.0719220  81.2266990
  11.9019035  86.5911761  81.1976355  10.6186669  86.8139474  83.8110258
  11.1186448  86.9256008  83.0024577  11.2622277  86.5100527  84.4511066
   4.6768665  94.7218103  96.6978099   4.1935747  95.5218463  96.9041988
   4.7629604  94.7326048  95.7445543   0.6042002  98.6122638  88.7346533
   1.5585256  98.5806580  88.6676464   0.4054526  98.1513262  89.5496758
   1.1941385  97.1823754  91.3017330   2.0134274  97.6767833  91.3252168
   1.4678192  96.2655722  91.2734898  10.9507981  89.5734506  80.6645286
  10.0633836  89.8584157  80.4465480  11.3661970  89.4128270  79.8172563
  14.3022517  89.5981027  84.3799625  15.0782907  90.0877480  84.6524242
  13.5770651  90.0239082  84.8371494  16.7395076  90.3108647  85.4373566
  17.3339566  90.0704383  84.7266874  16.8121659  89.5915777  86.0647102
  10.0951194  99.3379181  74.7593306  10.7987044  99.5429184  75.3750961
   9.3713843  99.9055943  75.0242389  10.9249005  95.0889042  80.8795576
  10.8684206  95.5457594  80.0403208  11.4777347  94.3279727  80.7018419
  14.7353810  90.8778774  81.7045695  14.4790745  90.4775410  82.5353903
  14.1106679  91.5922568  81.5795835  19.0466148  93.6174847  84.2116987
  18.4865706  93.6868037  84.9848549  18.4409652  93.4415832  83.4916483
   2.1161357 105.0511575  85.9635173   1.9993741 105.9957007  85.8613863
   1.2953803 104.7485136  86.3520972  12.0037892  99.7761710  76.8091766
  12.8383496  99.3442909  76.6269241  11.8422235  99.6043724  77.7368660
  11.6583784  96.2793824  78.1748105  11.6032588  96.1138095  77.2336549
  11.0329839  96.9869857  78.3310295   8.9729691  98.5842735  97.5001668
   9.8420851  98.7583388  97.1388303   8.4936443  99.4037152  97.3777397
   4.9679909  85.7801933  77.7533423   4.9558579  86.7243773  77.9101694
   5.8603331  85.5972078  77.4592885   3.1415871 105.7039836  89.1791102
   4.0443118 105.7363447  89.4957596   2.9153241 104.7740287  89.1937437
   4.8969473 104.4570823  85.8401180   3.9465104 104.4572685  85.7265552
   5.2001959 103.7103558  85.3237215   8.7832029  82.3744709  82.0079360
   8.0164425  81.8203196  82.1536043   9.1942734  82.4466578  82.8693512
  20.6322167 110.2931361  86.9046943  21.2700577 110.1738109  86.2010283
  20.5143010 111.2412205  86.9634895  17.4411873 110.2458790  86.8408467
  17.1030385 110.1299854  85.9529002  18.3101641 109.8449955  86.8209473
  13.2998689 112.0994266  82.8305358  12.7363554 112.0084203  82.0621646
  13.1851084 111.2794170  83.3107851  17.9231656 111.3993641  92.7994673
  17.9120297 111.0046440  91.9275176  18.0852296 110.6659714  93.3928444
  10.8463121 113.5945458  85.6689579  11.6384413 113.2536282  85.2535878
  11.0859771 113.7040433  86.5891732  18.8798247 115.7665234  78.1419823
  18.2286227 116.3519314  77.7553837  19.6742610 116.2971429  78.2014861
  12.8053875 112.8554371  78.5406957  13.5784751 112.3083358  78.4019833
  13.1579274 113.7198620  78.7521419  14.6438917 114.1830753  91.7473857
  14.3528783 115.0876384  91.6320523  15.2795902 114.2247281  92.4617926
  15.5695124 111.5607602  88.3375216  16.1658696 111.3363624  87.6232179
  15.6270096 110.8192347  88.9400664  15.1420152 109.0147037  76.1725407
  15.3945673 108.4928558  75.4108870  14.2044712 108.8513182  76.2752091
  20.1863435 108.0182815  83.9800151  20.9726525 107.6002238  83.6290568
  20.4502140 108.9228907  84.1481799  20.3573513 113.4555666  78.6788807
  19.7219346 113.5290292  79.3909712  20.0270919 114.0449264  78.0007887
  25.5871862 107.9558048  84.8833129  26.3197034 107.3857265  85.1170959
  24.8311218 107.5679649  85.3239635  14.8616441 110.9175143  78.3749782
  14.7452699 110.2420046  79.0430867  14.9718701 110.4307517  77.5581935
  17.2047982 110.3785290  82.0796472  16.8406189 109.8515911  82.7909393
  18.0615098 109.9883759  81.9062957  23.1097283 101.6679623  89.3427738
  22.7780608 102.5375034  89.1188953  22.5142896 101.3515907  90.0221768
  16.8453469 105.4075190  77.0757820  17.0127871 106.2755426  77.4428291
  16.6550638 105.5702471  76.1519109  19.6028802 113.8692169  88.7423650
  19.3029525 114.7717207  88.6339458  19.2579862 113.6024352  89.5944803
  13.0541284 110.3205965  84.7760355  12.1291780 110.1882180  84.9838047
  13.3025697 111.1000185  85.2730297  23.0025946 106.3874709  86.4221088
  22.0942823 106.3190117  86.1279849  22.9513542 106.8646654  87.2502913
  16.8242690 107.8632847  78.0604487  16.7042315 108.3089898  78.8989967
  16.1295278 108.2118165  77.5018025  10.4150095 109.9639239  85.6104144
  10.5442476 110.2173718  86.5243556   9.7347546 110.5566947  85.2908799
  14.5849582 120.6336489  81.7094618  14.5073612 121.5844314  81.7883099
  13.9811226 120.2882361  82.3669544  17.0766812 107.8064354  94.3655985
  16.3000146 108.3658274  94.3558850  17.7157375 108.2921137  94.8870855
  24.8687592 104.5891147  88.1998962  24.2261973 104.8823680  87.5538756
  24.3642521 104.4744067  89.0052158  22.5227756 108.3354320  78.8884821
  23.4345612 108.5681707  78.7132518  22.0137403 108.9191365  78.3259900
  15.3313184 110.6149808  93.9273952  16.0727869 111.1534852  93.6508776
  14.6250170 111.2416096  94.0845504  20.8068524 112.7578948  92.5246113
  21.2151880 112.3161359  91.7800746  20.0845785 112.1831576  92.7780306
  17.1599594 107.6951555  89.8979670  18.0060789 108.1190968  90.0414319
  17.0998232 107.0385179  90.5918234  21.1297338 113.3180139  86.2798402
  20.5006201 113.4825853  85.5774470  20.7423001 113.7321748  87.0509366
  25.0086570 114.2534577  83.6342766  24.3237608 114.6333478  83.0839799
  25.0930420 114.8629903  84.3674714  20.3099039 105.3555923  91.5560844
  20.0659971 106.1097984  91.0195120  20.5858970 105.7341271  92.3908091
  22.2637502 111.8994536  90.2338110  22.4754397 112.5426296  89.5572491
  22.2167250 111.0656852  89.7660040  19.8663731 104.5112356  87.1374682
  19.0048210 104.8093610  87.4291419  19.8926166 104.7282755  86.2055714
  16.6825300 113.0554547  83.5448487  17.1463646 113.3342250  82.7553110
  16.4182098 112.1537991  83.3621578  13.5749381 112.6026028  86.4828251
  14.1450738 113.0313297  85.8445735  14.1657493 112.3208613  87.1812436
  15.6194186 109.1777699  80.3538053  16.3218230 109.6298743  80.8211979
  15.2874815 108.5361518  80.9817946  14.0674548 107.7689456  94.7289262
  13.4373208 108.4505737  94.9624659  13.9610636 107.6572537  93.7842400
   9.3619520 107.4361252  85.6555186   8.5718574 107.6918780  85.1795297
   9.8530768 108.2509590  85.7607227  23.3783330 114.7766491  88.4060467
  24.2000774 114.3746678  88.1243149  23.3745733 114.6734725  89.3576583
  11.3134266 107.8005831  82.6138663  10.5165429 107.9124525  83.1322159
  11.0859858 108.1392483  81.7479553  17.1439933 114.3250534  90.5621178
  17.2084366 114.7870942  91.3979349  16.4350857 113.6947899  90.6903487
   7.6457223 107.6891742  88.0870177   7.8965262 108.5738752  88.3527753
   8.1816772 107.5096344  87.3145269  31.4689323 111.1205240  84.7545438
  30.7153031 110.5512638  84.5989443  31.6036864 111.0867904  85.7016073
  16.8587951 115.9918642  80.4300158  16.7233626 116.8370178  80.8585006
  17.3997763 116.1937920  79.6666092  13.3455291 102.0710222  97.0914513
  12.9522236 101.5176420  97.7662157  14.1621431 102.3820800  97.4821031
  10.3117348 113.5094080  81.0028083  10.8241869 114.3037330  81.1533648
  10.9640061 112.8120370  80.9361684  12.1212233 116.6259836  83.0850836
  12.2978861 117.5477801  82.8971820  12.9169067 116.3118255  83.5145216
  16.2623252 103.4868101  94.6834770  17.0032965 104.0875254  94.6039232
  16.4941174 102.7445739  94.1252812  11.4064590 108.6724468  92.9612999
  11.2918105 107.7709725  93.2620098  10.5509107 108.9188165  92.6097816
  18.4856427 116.6142208  94.5600500  18.0420282 115.8278587  94.2421404
  19.1473641 116.8021359  93.8944391  13.2443549 118.1438010  89.0861178
  13.7950974 118.0155073  88.3138172  12.4055024 118.4432899  88.7356071
  20.5837665 116.8945008  92.5881901  20.5656141 117.7153889  92.0962170
  21.5057585 116.7699084  92.8132042  17.0410720 114.4089138  93.4305410
  17.5739056 113.6477426  93.2004718  16.5124801 114.1162790  94.1729564
  20.2080415  99.5149204  88.9599051  19.8644684 100.4050845  88.8838162
  20.5759377  99.3250861  88.0968636   8.2766265 111.8382734  81.7787653
   9.1141487 112.2479743  81.5621361   8.4544533 110.8982176  81.7487847
  20.1730697 109.5057815  77.4671486  19.6577321 110.2762419  77.7059874
  19.9008006 108.8322951  78.0904548  17.7577808 104.3507516  82.5256725
  16.9019405 103.9614366  82.3462363  18.1704760 104.4299476  81.6656510
  19.2876955 101.8853859  86.9248285  18.7841751 101.8483994  86.1116090
  19.5807562 102.7946602  86.9844941  15.5319841 101.9692589  85.9314466
  16.3972838 101.7735397  85.5720356  15.5997350 101.7402940  86.8583823
  25.1464971 112.2590169  79.4024660  24.3694414 111.9201329  78.9579822
  25.8256452 112.2642793  78.7279625  19.9617000 107.3784907  79.2931268
  19.6567136 107.6931056  80.1441411  20.9147443 107.4566327  79.3358601
  18.4063432 113.5375130  80.9424222  17.8784794 112.8027890  80.6297459
  17.9050935 114.3149807  80.6964190  23.3856278 111.7324151  86.0591268
  22.7279953 112.4223412  86.1471397  24.1896678 112.1220583  86.4025254
  13.1382160 104.1994797  83.3030833  13.7125912 103.9769978  82.5704026
  13.7253142 104.2683491  84.0559434  22.1961737 110.0868523  84.1095210
  22.7093619 110.7198515  84.6116919  22.8462961 109.4869719  83.7438570
  13.4651747 106.2299258  77.3226718  12.6289059 106.5673944  77.6435993
  13.3256517 106.0948237  76.3853855  15.4404828 101.0736045  82.0305903
  14.7869240 100.7585063  81.4062517  15.3985302 100.4511786  82.7565725
  16.5516032 111.3555341  73.9459195  15.6443094 111.1244594  74.1450344
  17.0487064 110.5592960  74.1333176  19.4584111 120.0652848  76.8655881
  18.7845810 120.3684544  77.4740839  19.8449933 120.8681928  76.5161338
  18.6742568 107.5617979  86.3553550  17.7565129 107.7832926  86.1975238
  19.0902712 107.6364289  85.4965257  19.4577616 108.9609395  81.4856230
  20.2049435 109.4730792  81.1763352  19.7269205 108.6393447  82.3460624
  17.7304266 111.4567935  78.4683185  16.8215485 111.1726968  78.5655654
  17.7599350 111.8767014  77.6086492  22.9623533 115.0674525  82.2374352
  22.5085860 114.2265435  82.2939543  22.3317500 115.7035923  82.5749132
  21.9056453 105.9966511  83.4675020  21.1679210 105.4843897  83.7985262
  22.1583226 105.5566893  82.6558297  21.4056473 116.9051022  83.1724170
  21.6979447 117.4656079  82.4536536  21.9155093 117.1979583  83.9277330
  22.0068080  98.7742763  84.0616789  22.3126957  97.9140126  83.7742704
  22.7320685  99.3660383  83.8615783   8.2992436 109.1773450  82.4498387
   8.1016836 108.5842810  81.7249453   7.7439100 108.8725660  83.1674326
  16.2789160 109.0696556  84.5692980  16.3337770 108.1170392  84.4935457
  15.4680362 109.2255995  85.0534278  17.4280354 112.9976679  75.8071263
  16.9899784 112.2812538  75.3476901  18.1690795 113.2252794  75.2456355
  14.2181520 107.6873616  82.3283359  13.4049385 107.9867786  82.7348551
  14.7140514 107.2929305  83.0457841  16.3690098 117.6831373  84.2617624
  16.3266277 117.9092219  83.3326156  17.2852797 117.4494747  84.4103425
  19.8155732 108.1515440  91.1598253  20.1705119 108.3786913  92.0192719
  20.4627863 108.4833817  90.5375508  25.5453469 111.2733876  81.8647582
  25.4071367 111.4635472  80.9368771  25.1889687 112.0353259  82.3215633
  13.7095595 105.2591971  87.9444594  14.3494974 105.1180730  87.2467557
  12.8773125 104.9726485  87.5683196  25.5722848 113.3410403  86.8758853
  26.0059355 113.2485692  87.7241907  26.2854429 113.3167904  86.2378869
  14.4855899 114.5594402  84.0579586  15.2796497 114.0644722  83.8562161
  13.7747591 114.0312265  83.6947292  19.3050743 116.9412497  88.4091954
  19.3587765 117.5103434  89.1769670  18.4365524 117.1114382  88.0445991
  10.7938662 108.7037483  80.1339339   9.8636250 108.6421939  80.3509301
  10.8896134 108.1813436  79.3375980  10.7124211 105.2292296  82.7217581
  10.9731028 106.1437629  82.6126741  11.5341383 104.7616739  82.8714193
  12.1849136 106.6430053  89.8916405  12.8572190 106.4347416  89.2429054
  11.3578923 106.4452139  89.4521637  26.4338398 113.3834104  89.4091739
  26.6274288 114.2879914  89.6551014  26.3339016 112.9241523  90.2430324
  18.0874708 103.2691994  91.9082066  17.4402623 103.9681944  91.8146542
  18.8575724 103.7028138  92.2758314  21.4953506 113.5340847  94.9832619
  21.3439013 113.3051398  94.0662703  21.4858186 114.4911448  94.9963964
  18.2638843 111.1072759  89.9678886  19.1930903 111.2583919  89.7947853
  17.8429873 111.1956780  89.1127532  17.0627175 115.1323424  87.7377423
  16.9238260 114.7642208  88.6103362  16.2741771 115.6471063  87.5661381
  17.6575327 120.2332520  79.0802960  17.8327082 119.7620563  79.8948583
  16.9708115 120.8598286  79.3084221  18.6132390 114.5105026  85.1266261
  18.2782222 114.4705796  86.0223911  18.1136335 113.8449742  84.6536671
  12.5876634 109.9172656  90.6518842  12.4496432 109.1852895  91.2530381
  13.4981557 109.8281556  90.3703030  21.5491581 111.8561061  75.4003321
  20.9320752 111.1307889  75.3036374  21.0808070 112.6170421  75.0570395
  15.2158934 109.6292616  90.1402522  15.9258553 108.9885808  90.0989140
  15.1728242 109.8805511  91.0628703  23.2045713 116.5659969  93.0609101
  23.1458259 115.8819189  92.3939684  23.6065231 117.3078959  92.6089727
  13.9287868 106.6157834  91.9598161  13.3925225 106.1648572  92.6119758
  13.3404577 106.7503742  91.2168626  12.2236412 123.3821883  85.8542820
  12.4633010 124.0140407  86.5321839  11.3805608 123.0309923  86.1408179
  13.3390127 106.0746485  74.5224625  12.4619594 105.9535286  74.1586872
  13.8147880 105.2832563  74.2703514  23.2063120 114.5299553  91.2923081
  22.3189899 114.1925475  91.4149480  23.7761671 113.7982584  91.5291846
   4.8592267 110.8623645  84.6166132   5.5463307 110.5485375  84.0287148
   4.7040396 111.7665009  84.3433384   9.6626990 105.7513841  89.0451156
   9.5785178 105.1439511  88.3101566   8.8409696 106.2422860  89.0460652
  16.7364274 119.1901005  88.2584324  16.6634445 119.9955977  88.7703629
  16.2941667 119.3892971  87.4332345  16.5254053 118.4272775  81.7687146
  15.7421575 118.9694456  81.8625370  17.2246798 118.9446755  82.1681387
  19.8350703 104.2367405  84.4121351  20.3319403 103.4837367  84.0922421
  19.0637685 104.2731721  83.8464560  27.6880461 109.9407770  86.0539643
  27.6770337 110.8232486  85.6833576  26.8197840 109.5879321  85.8594180
  19.1962957 119.0887839  90.4142483  19.9090929 119.7235304  90.3418384
  18.7052986 119.1851705  89.5982485  20.9180484 112.9939092  81.9859774
  19.9836763 113.1140555  81.8164479  21.0957153 112.0911559  81.7219784
  16.4185672 106.3784788  84.1393036  16.0483460 105.8255828  84.8273941
  16.9144765 105.7742921  83.5868036  24.3053035 108.8356411  82.5209809
  24.7713488 109.6684403  82.4470111  24.7560536 108.3701393  83.2255067
  14.2474871 116.8382283  91.2348054  14.9484330 117.4718766  91.3877448
  13.7769986 117.1797014  90.4743693  22.3729267 115.1800233  79.5195961
  22.6489110 115.0656827  80.4289835  21.5033765 114.7817717  79.4808134
  22.2769698 101.2036998  86.5600710  21.3632778 101.4341225  86.7282917
  22.7062800 101.2875442  87.4114742  22.0476157 109.3926890  89.0600604
  21.3947607 109.6402798  88.4053057  22.4256537 108.5791028  88.7263081
  19.0083331 119.4286583  83.1628774  19.1905725 118.6108239  83.6256527
  19.8316317 119.6454276  82.7253664  19.3425496 118.3554769  80.4243823
  19.8713262 117.8447223  79.8113985  19.6053716 118.0397299  81.2889356
  18.0963730 110.1346701  95.5466641  17.4204367 110.0340831  96.2169016
  18.9191364 109.9785915  96.0102638   9.8442589 116.3718638  88.1679156
  10.4296026 115.6262326  88.3007060   9.6467427 116.6822595  89.0515820
  12.6981244 119.4069885  83.1841599  12.0291619 119.8916013  82.7005639
  12.5594114 119.6539106  84.0984977   4.4360244 108.9424238  86.8883599
   4.4744343 108.4087829  87.6820718   3.9300536 108.4159444  86.2694577
  16.8386513 121.4413629  89.7824257  17.3904821 121.6045250  90.5473342
  17.1792706 122.0318067  89.1104282  11.8151006 103.7888779  90.3846142
  11.8792332 104.6503610  89.9723539  11.7518126 103.1762780  89.6518500
  11.2903278 105.8611911  94.0319176  11.9175317 105.4788988  94.6456700
  10.4331197 105.6426113  94.3974868  21.6897387 116.2674886  95.6372911
  22.2337291 116.8804845  95.1427866  21.1084232 116.8254465  96.1539924
   8.0668821 107.6688340  79.9637531   8.3622262 106.7599019  79.9104584
   7.1656857 107.6476080  79.6418533  19.9754900 119.3895604  86.7687939
  19.8506039 118.5885344  86.2598885  20.6333991 119.8841798  86.2801909
  11.5963068 105.7444337  85.9465079  10.8749654 106.3580305  85.8072553
  12.3856324 106.2802102  85.8681725  22.0389808 117.1904624  88.3967489
  21.0920144 117.0709976  88.3245816  22.3872581 116.3027122  88.4793751
  14.3989382 103.0798763  92.2205731  14.9223783 103.3261060  92.9832040
  14.1801715 103.9118798  91.8008868   9.7956663 105.3502438  80.0876856
   9.4669369 104.4699817  79.9051962  10.1496033 105.2950107  80.9753245
  19.0436242 116.9857341  84.5971841  18.8961204 116.0574048  84.7779412
  19.8689735 117.0077431  84.1128917  12.9098486 105.6375408  80.4552334
  13.2494558 106.1661329  79.7330942  13.3570606 105.9755814  81.2310900
  22.6470363 117.8085899  85.6836714  23.5716911 117.6028761  85.5461165
  22.4785667 117.5602301  86.5926056  15.6041927 104.0212458  89.9055402
  15.2638747 103.2220271  90.3076082  14.8980933 104.3214169  89.3332235
  16.2558398 101.1061771  88.3582725  17.0784468 100.6322249  88.2361615
  16.4996462 101.8852255  88.8581411  14.8966633 104.1350029  78.6545626
  15.6174995 104.5131282  78.1509343  14.2731937 104.8538906  78.7580604
  19.0397756 104.8395178  79.5903959  19.2561370 105.7219816  79.2892787
  18.5591823 104.4481392  78.8609601  13.7796977 107.7980891  86.1674703
  13.6341558 108.1121195  87.0598985  13.3022181 108.4165792  85.6145602
  15.6393360 104.7883439  86.2155593  15.6254929 103.8924533  85.8787891
  16.3565788 104.7954103  86.8493879  17.4919491 105.2220780  88.2608720
  17.2337269 106.1437850  88.2593051  16.9604531 104.8251214  88.9509184
  22.4365680 118.3271567  81.0398806  22.6102557 117.7617989  80.2872658
  22.9294571 119.1272462  80.8578296   8.2542639 110.3386236  89.1062364
   7.7096107 111.1146044  89.2382639   9.1321989 110.6857040  88.9481486
  15.0430256 103.6697820  81.4843163  15.1646167 102.7414466  81.6834051
  14.7532298 103.6836506  80.5721478  17.9121446 101.3552730  84.6209883
  17.9343143 101.4192063  83.6661862  18.3289505 100.5157239  84.8150389
  28.2905071 111.0907990  82.6589105  28.7336217 110.3415315  82.2608229
  27.4131581 111.0818126  82.2762837  23.4240852 117.6438331  78.1395704
  24.1191757 118.2645024  78.3583019  23.7664002 116.7933682  78.4148082
   9.0408661 109.4656132  91.9992521   8.2990397 109.6138768  92.5857152
   8.7201406 109.7264398  91.1359271  25.3232275 115.0938037  79.6683035
  25.8483599 115.4325310  78.9432355  25.2354628 114.1585052  79.4846169
  16.9852324 119.0072110  91.7972911  17.2939450 118.7621257  92.6695611
  17.7827806 119.2118749  91.3091782  17.0072936 121.1610020  84.0278288
  16.5677926 120.6686399  84.7211145  17.7581053 120.6182988  83.7870363
   9.4865275 117.3521561  84.0302916  10.3123295 117.0525333  83.6501560
   9.1359327 116.5829183  84.4792705  14.4546808 116.7048029  86.1000590
  13.8326817 116.0418734  85.8002817  15.1251675 116.7309161  85.4174237
   7.6873880 115.2707887  84.9891850   6.8505788 114.8430062  84.8075851
   7.6597525 115.4640331  85.9262641  14.5271336 105.1829817  95.6933096
  14.5759491 106.0591940  95.3110865  15.0693850 104.6407210  95.1204739
  25.0126181 115.7270940  94.9734233  24.2221725 115.7095079  94.4338732
  24.7759536 116.2659234  95.7283269  25.1324056 112.5763407  92.2866961
  25.1822061 112.4113414  93.2282484  25.0237980 111.7090666  91.8964842
  14.0160315 115.2551952  79.5759050  14.1648435 115.9387417  78.9225723
  14.8226758 115.2357043  80.0908506  22.4227819 108.5594335  93.6026268
  23.3237681 108.4200800  93.3110266  22.4975793 108.7248790  94.5424445
  16.7570624 105.9361190  92.4479454  15.8873933 106.2294756  92.1762043
  16.9930104 106.5201635  93.1686718  26.6342253 114.9960348  92.5308983
  26.3427061 115.3590329  93.3672444  26.0214384 114.2827357  92.3522315
  27.8337935 112.5613228  85.0511553  28.6684827 113.0003032  85.2149113
  27.9697064 112.0851881  84.2319799  24.8829441 110.1192963  90.9989041
  25.3583563 110.3120609  90.1907892  23.9595007 110.1752149  90.7532424
  11.7712948 111.2817130  80.5820119  11.5258990 110.3779460  80.7800329
  11.9408863 111.2834281  79.6399597  19.4609658 102.1540806  89.9644875
  19.9791602 102.8901833  89.6391363  19.1064791 102.4604800  90.7991634
  11.0408596 107.0145488  78.0806281  10.3477840 107.0889843  77.4246316
  10.7960347 106.2505831  78.6027797  19.7122252  98.5741089  85.4845771
  19.9924006  97.9064278  86.1106198  20.4972859  98.7670185  84.9720435
  17.5155721 117.7500083  77.0470798  16.9429688 118.3690270  76.5941269
  18.0888514 118.2999445  77.5810720  23.5831110 106.9958723  89.2317346
  24.5348533 107.0956821  89.2529570  23.4134561 106.2036992  89.7415431
  21.6045490 104.0814306  89.4176747  21.0095422 104.3619319  88.7223236
  21.3195187 104.5708207  90.1893488  20.7352980 118.0337233  78.1779380
  21.6683653 117.9682795  78.3812255  20.6476193 118.8693500  77.7193912
  23.3640997 117.3503103  75.1383327  23.2854629 117.0162967  76.0319085
  24.1850664 117.8424871  75.1374800  26.0619188 110.2164843  88.3459646
  26.0295508 109.2780843  88.5319330  26.6719812 110.2948879  87.6125471
  17.9002519 109.0860896  74.3886850  18.8461624 108.9567104  74.4575268
  17.5216764 108.3475558  74.8656278  26.2113677 107.0075886  88.3917929
  25.6952725 106.2234343  88.2047858  27.0953625 106.6794603  88.5564449
  23.8724404 100.7516902  84.3513742  23.6749225 100.4431990  85.2357074
  24.4824109 101.4778541  84.4811672  31.8795738 111.2780850  87.4865683
  32.6099127 111.0166138  88.0473386  31.2702684 110.5409571  87.5267751
  29.9611035 109.4188712  88.0840134  29.2344199 109.2844677  87.4756626
  29.5458322 109.7265541  88.8896852  17.7841212 113.1378642  95.8487507
  18.7044221 113.3157241  96.0427554  17.7490795 112.1934687  95.6967206
  16.0845436 107.0110872  74.3241735  15.1776892 106.7143985  74.4004449
  16.3621417 106.7140690  73.4576022   7.0023377 108.3317235  84.7740782
   6.6826161 107.4782544  84.4815156   6.4556805 108.5465814  85.5298749
  10.7803284 111.0479676  88.4910288  10.9989294 111.9796784  88.5098322
  11.1929058 110.6887651  89.2765092  17.7007502 101.5547762  80.4785977
  16.8908230 101.2094847  80.8541223  18.3891919 101.2455305  81.0673588
  19.6298050 100.6325809  82.1010273  20.1829089 101.0521262  82.7600296
  19.8668137  99.7061557  82.1433229  15.6531149 106.6212882  97.8813037
  15.5527876 107.5707239  97.8125128  15.4352691 106.2931121  97.0089107
  14.8544221 103.8697807  74.4653714  15.7163385 104.1952706  74.7249532
  15.0394565 103.0829303  73.9526780   6.8711637 111.9520147  86.7433903
   6.1775108 111.5374100  86.2303858   7.6184628 111.9940683  86.1467322
  23.0076857 102.7426334  81.6088937  22.4275526 103.4011138  81.2266990
  22.7412790 101.9203678  81.1976355  21.4580424 102.1431391  83.8110258
  21.9580202 102.2547926  83.0024577  22.1016032 101.8392444  84.4511066
  15.5162419 110.0510021  96.6978099  15.0329501 110.8510381  96.9041988
  15.6023359 110.0617966  95.7445543   8.7848379 111.8838401  84.6199918
   8.7619067 111.9826088  83.6681801   9.0949016 112.7303552  84.9417084
  11.4435757 113.9414556  88.7346533  12.3979011 113.9098498  88.6676464
  11.2448281 113.4805179  89.5496758  12.0335139 112.5115672  91.3017330
  12.8528028 113.0059750  91.3252168  12.3071947 111.5947640  91.2734898
  21.7901735 104.9026424  80.6645286  20.9027590 105.1876075  80.4465480
  22.2055724 104.7420187  79.8172563  25.1416271 104.9272945  84.3799625
  25.9176662 105.4169398  84.6524242  24.4164406 105.3530999  84.8371494
  27.5788830 105.6400564  85.4373566  28.1733321 105.3996300  84.7266874
  27.6515414 104.9207695  86.0647102   9.7985986 119.4834175  85.7516730
   9.6640454 118.7234576  85.1854728   9.3818048 120.2075075  85.2845519
  20.9344949 114.6671099  74.7593306  21.6380799 114.8721101  75.3750961
  20.2107598 115.2347861  75.0242389  21.7642759 110.4180960  80.8795576
  21.7077960 110.8749511  80.0403208  22.3171102 109.6571645  80.7018419
  25.5747565 106.2070692  81.7045695  25.3184499 105.8067328  82.5353903
  24.9500433 106.9214486  81.5795835  29.8859903 108.9466765  84.2116987
  29.3259461 109.0159954  84.9848549  29.2803406 108.7707750  83.4916483
  12.9555112 120.3803492  85.9635173  12.8387496 121.3248925  85.8613863
  12.1347558 120.0777054  86.3520972  22.8431646 115.1053628  76.8091766
  23.6777250 114.6734826  76.6269241  22.6815989 114.9335642  77.7368660
  22.4977538 111.6085741  78.1748105  22.4426342 111.4430013  77.2336549
  21.8723594 112.3161774  78.3310295   7.2870053 106.8453806  92.0009527
   7.9328917 106.3352760  92.4896752   7.0787204 107.5822487  92.5752953
  19.8123446 113.9134653  97.5001668  20.6814605 114.0875305  97.1388303
  19.3330197 114.7329070  97.3777397  15.8073664 101.1093850  77.7533423
  15.7952334 102.0535690  77.9101694  16.6997086 100.9263996  77.4592885
  13.9809626 121.0331754  89.1791102  14.8836872 121.0655364  89.4957596
  13.7546996 120.1032205  89.1937437  15.7363228 119.7862741  85.8401180
  14.7858859 119.7864602  85.7265552  16.0395714 119.0395475  85.3237215
  19.6225783  97.7036627  82.0079360  18.8558179  97.1495114  82.1536043
  20.0336488  97.7758496  82.8693512  11.6267544 103.9921423  96.0984542
  12.4899006 103.6358228  96.3087866  11.0532955 103.6535318  96.7859946
  31.4715921 125.6223279  86.9046943  32.1094331 125.5030026  86.2010283
  31.3536764 126.5704123  86.9634895  28.2805628 125.5750707  86.8408467
  27.9424139 125.4591772  85.9529002  29.1495396 125.1741872  86.8209473
  24.1392443 127.4286184  82.8305358  23.5757308 127.3376121  82.0621646
  24.0244838 126.6086088  83.3107851  28.7625411 126.7285559  92.7994673
  28.7514051 126.3338357  91.9275176  28.9246050 125.9951632  93.3928444
  21.6856875 128.9237375  85.6689579  22.4778167 128.5828200  85.2535878
  21.9253525 129.0332350  86.5891732  29.7192002 131.0957151  78.1419823
  29.0679982 131.6811232  77.7553837  30.5136365 131.6263346  78.2014861
  23.6447629 128.1846288  78.5406957  24.4178505 127.6375276  78.4019833
  23.9973028 129.0490538  78.7521419  25.4832672 129.5122671  91.7473857
  25.1922538 130.4168302  91.6320523  26.1189656 129.5539198  92.4617926
  26.4088879 126.8899519  88.3375216  27.0052451 126.6655542  87.6232179
  26.4663850 126.1484265  88.9400664  25.9813907 124.3438955  76.1725407
  26.2339428 123.8220476  75.4108870  25.0438466 124.1805100  76.2752091
  31.0257190 123.3474733  83.9800151  31.8120279 122.9294156  83.6290568
  31.2895894 124.2520825  84.1481799  31.1967267 128.7847583  78.6788807
  30.5613100 128.8582210  79.3909712  30.8664674 129.3741182  78.0007887
  36.4265617 123.2849966  84.8833129  37.1590789 122.7149183  85.1170959
  35.6704973 122.8971567  85.3239635  25.7010196 126.2467061  78.3749782
  25.5846454 125.5711964  79.0430867  25.8112456 125.7599434  77.5581935
  28.0441737 125.7077208  82.0796472  27.6799944 125.1807829  82.7909393
  28.9008853 125.3175677  81.9062957  33.9491037 116.9971540  89.3427738
  33.6174362 117.8666951  89.1188953  33.3536651 116.6807824  90.0221768
  27.6847224 120.7367107  77.0757820  27.8521626 121.6047344  77.4428291
  27.4944393 120.8994389  76.1519109  30.4422557 129.1984086  88.7423650
  30.1423280 130.1009125  88.6339458  30.0973616 128.9316269  89.5944803
  23.8935038 125.6497883  84.7760355  22.9685535 125.5174097  84.9838047
  24.1419451 126.4292102  85.2730297  33.8419701 121.7166626  86.4221088
  32.9336578 121.6482035  86.1279849  33.7907296 122.1938571  87.2502913
  27.6636444 123.1924765  78.0604487  27.5436070 123.6381816  78.8989967
  26.9689033 123.5410083  77.5018025  21.2543849 125.2931157  85.6104144
  21.3836230 125.5465636  86.5243556  20.5741301 125.8858865  85.2908799
  27.9160566 123.1356272  94.3655985  27.1393900 123.6950192  94.3558850
  28.5551129 123.6213055  94.8870855  35.7081347 119.9183065  88.1998962
  35.0655727 120.2115598  87.5538756  35.2036275 119.8035985  89.0052158
  33.3621511 123.6646238  78.8884821  34.2739367 123.8973625  78.7132518
  32.8531158 124.2483282  78.3259900  26.1706939 125.9441725  93.9273952
  26.9121623 126.4826769  93.6508776  25.4643924 126.5708014  94.0845504
  31.6462278 128.0870866  92.5246113  32.0545634 127.6453276  91.7800746
  30.9239540 127.5123493  92.7780306  27.9993348 123.0243473  89.8979670
  28.8454544 123.4482886  90.0414319  27.9391986 122.3677097  90.5918234
  31.9691093 128.6472056  86.2798402  31.3399955 128.8117771  85.5774470
  31.5816755 129.0613666  87.0509366  35.8480325 129.5826494  83.6342766
  35.1631363 129.9625396  83.0839799  35.9324174 130.1921821  84.3674714
  31.1492794 120.6847841  91.5560844  30.9053726 121.4389901  91.0195120
  31.4252724 121.0633189  92.3908091  33.1031256 127.2286453  90.2338110
  33.3148152 127.8718213  89.5572491  33.0561005 126.3948770  89.7660040
  30.7057485 119.8404274  87.1374682  29.8441964 120.1385528  87.4291419
  30.7319920 120.0574673  86.2055714  27.5219055 128.3846465  83.5448487
  27.9857400 128.6634168  82.7553110  27.2575853 127.4829909  83.3621578
  24.4143136 127.9317946  86.4828251  24.9844493 128.3605214  85.8445735
  25.0051248 127.6500531  87.1812436  26.4587941 124.5069617  80.3538053
  27.1611984 124.9590661  80.8211979  26.1268569 123.8653436  80.9817946
  24.9068302 123.0981374  94.7289262  24.2766963 123.7797654  94.9624659
  24.8004390 122.9864455  93.7842400  20.2013275 122.7653170  85.6555186
  19.4112329 123.0210698  85.1795297  20.6924522 123.5801507  85.7607227
  34.2177084 130.1058409  88.4060467  35.0394528 129.7038596  88.1243149
  34.2139487 130.0026643  89.3576583  22.1528020 123.1297749  82.6138663
  21.3559183 123.2416443  83.1322159  21.9253612 123.4684401  81.7479553
  27.9833688 129.6542452  90.5621178  28.0478120 130.1162859  91.3979349
  27.2744612 129.0239817  90.6903487  18.4850978 123.0183660  88.0870177
  18.7359016 123.9030670  88.3527753  19.0210526 122.8388262  87.3145269
  42.3083077 126.4497157  84.7545438  41.5546786 125.8804555  84.5989443
  42.4430619 126.4159822  85.7016073  27.6981705 131.3210560  80.4300158
  27.5627380 132.1662095  80.8585006  28.2391518 131.5229837  79.6666092
  24.1849045 117.4002139  97.0914513  23.7915991 116.8468338  97.7662157
  25.0015185 117.7112718  97.4821031  21.1511103 128.8385998  81.0028083
  21.6635623 129.6329248  81.1533648  21.8033816 128.1412288  80.9361684
  27.1017006 118.8160018  94.6834770  27.8426719 119.4167172  94.6039232
  27.3334929 118.0737656  94.1252812  22.2458344 124.0016386  92.9612999
  22.1311859 123.1001643  93.2620098  21.3902862 124.2480083  92.6097816
  29.3250182 131.9434126  94.5600500  28.8814036 131.1570505  94.2421404
  29.9867395 132.1313277  93.8944391  31.4231420 132.2236926  92.5881901
  31.4049895 133.0445807  92.0962170  32.3451340 132.0991001  92.8132042
  27.8804474 129.7381055  93.4305410  28.4132811 128.9769344  93.2004718
  27.3518555 129.4454707  94.1729564  31.0474169 114.8441121  88.9599051
  30.7038438 115.7342763  88.8838162  31.4153132 114.6542779  88.0968636
  19.1160020 127.1674652  81.7787653  19.9535242 127.5771660  81.5621361
  19.2938287 126.2274094  81.7487847  31.0124452 124.8349733  77.4671486
  30.4971075 125.6054337  77.7059874  30.7401760 124.1614869  78.0904548
  28.5971563 119.6799433  82.5256725  27.7413159 119.2906284  82.3462363
  29.0098515 119.7591394  81.6656510  30.1270709 117.2145777  86.9248285
  29.6235505 117.1775912  86.1116090  30.4201316 118.1238519  86.9844941
  26.3713595 117.2984506  85.9314466  27.2366592 117.1027315  85.5720356
  26.4391104 117.0694858  86.8583823  35.9858726 127.5882087  79.4024660
  35.2088169 127.2493247  78.9579822  36.6650207 127.5934710  78.7279625
  30.8010755 122.7076825  79.2931268  30.4960891 123.0222974  80.1441411
  31.7541197 122.7858245  79.3358601  29.2457187 128.8667048  80.9424222
  28.7178548 128.1319808  80.6297459  28.7444690 129.6441724  80.6964190
  34.2250033 127.0616068  86.0591268  33.5673707 127.7515330  86.1471397
  35.0290432 127.4512500  86.4025254  23.9775914 119.5286714  83.3030833
  24.5519666 119.3061896  82.5704026  24.5646897 119.5975409  84.0559434
  33.0355492 125.4160441  84.1095210  33.5487373 126.0490433  84.6116919
  33.6856715 124.8161637  83.7438570  24.3045502 121.5591175  77.3226718
  23.4682814 121.8965862  77.6435993  24.1650271 121.4240155  76.3853855
  26.2798582 116.4027963  82.0305903  25.6262994 116.0876980  81.4062517
  26.2379056 115.7803704  82.7565725  27.3909787 126.6847258  73.9459195
  26.4836849 126.4536512  74.1450344  27.8880819 125.8884877  74.1333176
  29.5136322 122.8909897  86.3553550  28.5958884 123.1124844  86.1975238
  29.9296466 122.9656207  85.4965257  30.2971370 124.2901312  81.4856230
  31.0443189 124.8022710  81.1763352  30.5662960 123.9685365  82.3460624
  28.5698020 126.7859853  78.4683185  27.6609240 126.5018886  78.5655654
  28.5993104 127.2058932  77.6086492  33.8017288 130.3966443  82.2374352
  33.3479615 129.5557352  82.2939543  33.1711255 131.0327841  82.5749132
  32.7450207 121.3258429  83.4675020  32.0072964 120.8135815  83.7985262
  32.9976981 120.8858810  82.6558297  32.2450227 132.2342939  83.1724170
  32.5373201 132.7947996  82.4536536  32.7548848 132.5271500  83.9277330
  32.8461835 114.1034681  84.0616789  33.1520712 113.2432044  83.7742704
  33.5714440 114.6952301  83.8615783  19.1386191 124.5065367  82.4498387
  18.9410591 123.9134728  81.7249453  18.5832855 124.2017577  83.1674326
  27.1182914 124.3988474  84.5692980  27.1731524 123.4462310  84.4935457
  26.3074116 124.5547913  85.0534278  28.2674108 128.3268597  75.8071263
  27.8293538 127.6104456  75.3476901  29.0084549 128.5544712  75.2456355
  25.0575274 123.0165533  82.3283359  24.2443140 123.3159704  82.7348551
  25.5534269 122.6221222  83.0457841  30.6549486 123.4807358  91.1598253
  31.0098874 123.7078831  92.0192719  31.3021617 123.8125735  90.5375508
  36.3847223 126.6025794  81.8647582  36.2465122 126.7927390  80.9368771
  36.0283442 127.3645177  82.3215633  24.5489349 120.5883889  87.9444594
  25.1888728 120.4472648  87.2467557  23.7166880 120.3018402  87.5683196
  36.4116603 128.6702321  86.8758853  36.8453109 128.5777610  87.7241907
  37.1248183 128.6459821  86.2378869  25.3249653 129.8886319  84.0579586
  26.1190252 129.3936639  83.8562161  24.6141345 129.3604182  83.6947292
  30.1444498 132.2704415  88.4091954  30.1981520 132.8395351  89.1769670
  29.2759279 132.4406300  88.0445991  21.6332417 124.0329401  80.1339339
  20.7030005 123.9713857  80.3509301  21.7289888 123.5105354  79.3375980
  21.5517966 120.5584214  82.7217581  21.8124783 121.4729547  82.6126741
  22.3735138 120.0908656  82.8714193  23.0242891 121.9721971  89.8916405
  23.6965944 121.7639333  89.2429054  22.1972677 121.7744057  89.4521637
  37.2732152 128.7126021  89.4091739  37.4668042 129.6171832  89.6551014
  37.1732770 128.2533441  90.2430324  28.9268463 118.5983912  91.9082066
  28.2796378 119.2973862  91.8146542  29.6969478 119.0320056  92.2758314
  32.3347261 128.8632764  94.9832619  32.1832767 128.6343316  94.0662703
  32.3251940 129.8203366  94.9963964  29.1032597 126.4364677  89.9678886
  30.0324657 126.5875837  89.7947853  28.6823627 126.5248698  89.1127532
  27.9020929 130.4615341  87.7377423  27.7632015 130.0934126  88.6103362
  27.1135525 130.9762981  87.5661381  29.4526144 129.8396944  85.1266261
  29.1175977 129.7997714  86.0223911  28.9530090 129.1741660  84.6536671
  23.4270388 125.2464574  90.6518842  23.2890186 124.5144813  91.2530381
  24.3375312 125.1573474  90.3703030  32.3885336 127.1852978  75.4003321
  31.7714506 126.4599807  75.3036374  31.9201824 127.9462339  75.0570395
  26.0552689 124.9584533  90.1402522  26.7652307 124.3177726  90.0989140
  26.0121997 125.2097428  91.0628703  34.0439467 131.8951887  93.0609101
  33.9852014 131.2111107  92.3939684  34.4458986 132.6370877  92.6089727
  24.7681623 121.9449751  91.9598161  24.2318980 121.4940490  92.6119758
  24.1798331 122.0795660  91.2168626  24.1783882 121.4038403  74.5224625
  23.3013348 121.2827203  74.1586872  24.6541635 120.6124481  74.2703514
  34.0456875 129.8591471  91.2923081  33.1583654 129.5217392  91.4149480
  34.6155426 129.1274502  91.5291846  15.6986022 126.1915562  84.6166132
  16.3857062 125.8777292  84.0287148  15.5434151 127.0956927  84.3433384
  20.5020744 121.0805759  89.0451156  20.4178933 120.4731429  88.3101566
  19.6803450 121.5714777  89.0460652  30.6744458 119.5659323  84.4121351
  31.1713157 118.8129285  84.0922421  29.9031439 119.6023639  83.8464560
  38.5274215 125.2699688  86.0539643  38.5164092 126.1524403  85.6833576
  37.6591595 124.9171239  85.8594180  31.7574239 128.3231010  81.9859774
  30.8230517 128.4432472  81.8164479  31.9350907 127.4203477  81.7219784
  27.2579427 121.7076706  84.1393036  26.8877214 121.1547746  84.8273941
  27.7538519 121.1034839  83.5868036  35.1446790 124.1648329  82.5209809
  35.6107242 124.9976321  82.4470111  35.5954290 123.6993311  83.2255067
  33.2123021 130.5092150  79.5195961  33.4882865 130.3948745  80.4289835
  32.3427520 130.1109635  79.4808134  33.1163453 116.5328916  86.5600710
  32.2026532 116.7633143  86.7282917  33.5456554 116.6167360  87.4114742
  32.8869911 124.7218808  89.0600604  32.2341361 124.9694715  88.4053057
  33.2650291 123.9082946  88.7263081  28.9357484 125.4638619  95.5466641
  28.2598121 125.3632748  96.2169016  29.7585118 125.3077833  96.0102638
  15.2753998 124.2716156  86.8883599  15.3138098 123.7379746  87.6820718
  14.7694291 123.7451361  86.2694577  22.6544760 119.1180696  90.3846142
  22.7186087 119.9795527  89.9723539  22.5911881 118.5054698  89.6518500
  22.1297033 121.1903829  94.0319176  22.7569072 120.8080906  94.6456700
  21.2724952 120.9718031  94.3974868  32.5291141 131.5966804  95.6372911
  33.0731045 132.2096762  95.1427866  31.9477986 132.1546382  96.1539924
  18.9062576 122.9980258  79.9637531  19.2016017 122.0890936  79.9104584
  18.0050611 122.9767997  79.6418533  22.4356823 121.0736254  85.9465079
  21.7143408 121.6872222  85.8072553  23.2250078 121.6094019  85.8681725
  32.8783563 132.5196542  88.3967489  31.9313898 132.4001893  88.3245816
  33.2266336 131.6319040  88.4793751  25.2383136 118.4090681  92.2205731
  25.7617538 118.6552978  92.9832040  25.0195469 119.2410716  91.8008868
  20.6350417 120.6794356  80.0876856  20.3063123 119.7991735  79.9051962
  20.9889788 120.6242024  80.9753245  29.8829996 132.3149258  84.5971841
  29.7354958 131.3865966  84.7779412  30.7083490 132.3369349  84.1128917
  23.7492240 120.9667325  80.4552334  24.0888313 121.4953247  79.7330942
  24.1964361 121.3047732  81.2310900  33.4864118 133.1377817  85.6836714
  34.4110665 132.9320678  85.5461165  33.3179421 132.8894218  86.5926056
  26.4435681 119.3504376  89.9055402  26.1032502 118.5512189  90.3076082
  25.7374687 119.6506087  89.3332235  27.0952153 116.4353689  88.3582725
  27.9178222 115.9614167  88.2361615  27.3390217 117.2144172  88.8581411
  25.7360387 119.4641947  78.6545626  26.4568750 119.8423200  78.1509343
  25.1125692 120.1830824  78.7580604  29.8791510 120.1687096  79.5903959
  30.0955125 121.0511734  79.2892787  29.3985577 119.7773309  78.8609601
  24.6190732 123.1272809  86.1674703  24.4735312 123.4413112  87.0598985
  24.1415935 123.7457710  85.6145602  26.4787115 120.1175357  86.2155593
  26.4648683 119.2216450  85.8787891  27.1959543 120.1246021  86.8493879
  28.3313245 120.5512697  88.2608720  28.0731023 121.4729768  88.2593051
  27.7998286 120.1543132  88.9509184  33.2759434 133.6563484  81.0398806
  33.4496312 133.0909907  80.2872658  33.7688325 134.4564379  80.8578296
  19.0936394 125.6678154  89.1062364  18.5489862 126.4437962  89.2382639
  19.9715744 126.0148958  88.9481486  25.8824011 118.9989737  81.4843163
  26.0039922 118.0706384  81.6834051  25.5926053 119.0128423  80.5721478
  28.7515201 116.6844648  84.6209883  28.7736898 116.7483981  83.6661862
  29.1683260 115.8449157  84.8150389  39.1298825 126.4199907  82.6589105
  39.5729971 125.6707233  82.2608229  38.2525336 126.4110044  82.2762837
  34.2634607 132.9730249  78.1395704  34.9585511 133.5936942  78.3583019
  34.6057757 132.1225600  78.4148082  19.8802416 124.7948050  91.9992521
  19.1384152 124.9430685  92.5857152  19.5595160 125.0556315  91.1359271
  36.1626030 130.4229954  79.6683035  36.6877354 130.7617227  78.9432355
  36.0748382 129.4876970  79.4846169  25.3665090 120.5121735  95.6933096
  25.4153246 121.3883858  95.3110865  25.9087604 119.9699128  95.1204739
  35.8519936 131.0562858  94.9734233  35.0615479 131.0386997  94.4338732
  35.6153290 131.5951152  95.7283269  35.9717811 127.9055324  92.2866961
  36.0215816 127.7405332  93.2282484  35.8631734 127.0382583  91.8964842
  24.8554069 130.5843870  79.5759050  25.0042190 131.2679335  78.9225723
  25.6620513 130.5648960  80.0908506  33.2621573 123.8886252  93.6026268
  34.1631436 123.7492717  93.3110266  33.3369548 124.0540707  94.5424445
  27.5964379 121.2653107  92.4479454  26.7267688 121.5586673  92.1762043
  27.8323859 121.8493552  93.1686718  37.4736008 130.3252266  92.5308983
  37.1820816 130.6882246  93.3672444  36.8608139 129.6119274  92.3522315
  38.6731690 127.8905146  85.0511553  39.5078581 128.3294950  85.2149113
  38.8090819 127.4143799  84.2319799  35.7223196 125.4484881  90.9989041
  36.1977317 125.6412527  90.1907892  34.7988761 125.5044066  90.7532424
  22.6106702 126.6109048  80.5820119  22.3652744 125.7071378  80.7800329
  22.7802617 126.6126198  79.6399597  30.3003412 117.4832724  89.9644875
  30.8185356 118.2193751  89.6391363  29.9458545 117.7896717  90.7991634
  21.8802350 122.3437405  78.0806281  21.1871595 122.4181760  77.4246316
  21.6354102 121.5797749  78.6027797  30.5516007 113.9033007  85.4845771
  30.8317760 113.2356196  86.1106198  31.3366613 114.0962102  84.9720435
  34.4224865 122.3250641  89.2317346  35.3742288 122.4248738  89.2529570
  34.2528315 121.5328909  89.7415431  32.4439244 119.4106224  89.4176747
  31.8489176 119.6911237  88.7223236  32.1588941 119.9000125  90.1893488
  34.2034751 132.6795021  75.1383327  34.1248383 132.3454885  76.0319085
  35.0244418 133.1716789  75.1374800  36.9012943 125.5456760  88.3459646
  36.8689263 124.6072761  88.5319330  37.5113566 125.6240797  87.6125471
  28.7396274 124.4152813  74.3886850  29.6855378 124.2859021  74.4575268
  28.3610518 123.6767475  74.8656278  37.0507431 122.3367804  88.3917929
  36.5346480 121.5526260  88.2047858  37.9347380 122.0086520  88.5564449
  34.7118158 116.0808819  84.3513742  34.5142979 115.7723908  85.2357074
  35.3217864 116.8070458  84.4811672  42.7189493 126.6072767  87.4865683
  43.4492881 126.3458055  88.0473386  42.1096438 125.8701489  87.5267751
  40.8004790 124.7480630  88.0840134  40.0737953 124.6136595  87.4756626
  40.3852077 125.0557458  88.8896852  28.6234966 128.4670559  95.8487507
  29.5437976 128.6449158  96.0427554  28.5884549 127.5226605  95.6967206
  26.9239191 122.3402790  74.3241735  26.0170646 122.0435902  74.4004449
  27.2015172 122.0432608  73.4576022  17.8417131 123.6609153  84.7740782
  17.5219915 122.8074461  84.4815156  17.2950559 123.8757731  85.5298749
  21.6197039 126.3771594  88.4910288  21.8383048 127.3088702  88.5098322
  22.0322812 126.0179569  89.2765092  28.5401256 116.8839679  80.4785977
  27.7301985 116.5386764  80.8541223  29.2285673 116.5747223  81.0673588
  30.4691805 115.9617726  82.1010273  31.0222843 116.3813180  82.7600296
  30.7061891 115.0353474  82.1433229  26.4924904 121.9504800  97.8813037
  26.3921631 122.8999157  97.8125128  26.2746446 121.6223039  97.0089107
  25.6937975 119.1989725  74.4653714  26.5557139 119.5244623  74.7249532
  25.8788319 118.4121221  73.9526780  17.7105391 127.2812065  86.7433903
  17.0168862 126.8666017  86.2303858  18.4578382 127.3232601  86.1467322
  33.8470612 118.0718251  81.6088937  33.2669281 118.7303055  81.2266990
  33.5806544 117.2495596  81.1976355  32.2974178 117.4723309  83.8110258
  32.7973957 117.5839844  83.0024577  32.9409786 117.1684362  84.4511066
  26.3556174 125.3801939  96.6978099  25.8723256 126.1802299  96.9041988
  26.4417113 125.3909884  95.7445543  19.6242134 127.2130318  84.6199918
  19.6012822 127.3118006  83.6681801  19.9342770 128.0595469  84.9417084
  22.2829511 129.2706473  88.7346533  23.2372765 129.2390416  88.6676464
  22.0842035 128.8097097  89.5496758  22.8728894 127.8407589  91.3017330
  23.6921783 128.3351668  91.3252168  23.1465701 126.9239558  91.2734898
  32.6295490 120.2318342  80.6645286  31.7421345 120.5167992  80.4465480
  33.0449479 120.0712105  79.8172563  35.9810026 120.2564863  84.3799625
  36.7570416 120.7461315  84.6524242  35.2558160 120.6822917  84.8371494
  38.4182585 120.9692482  85.4373566  39.0127075 120.7288218  84.7266874
  38.4909168 120.2499613  86.0647102  31.7738703 129.9963016  74.7593306
  32.4774553 130.2013019  75.3750961  31.0501352 130.5639778  75.0242389
  32.6036514 125.7472878  80.8795576  32.5471715 126.2041429  80.0403208
  33.1564856 124.9863562  80.7018419  36.4141319 121.5362610  81.7045695
  36.1578254 121.1359245  82.5353903  35.7894187 122.2506404  81.5795835
  40.7253657 124.2758683  84.2116987  40.1653215 124.3451872  84.9848549
  40.1197161 124.0999667  83.4916483  33.6825401 130.4345546  76.8091766
  34.5171005 130.0026744  76.6269241  33.5209744 130.2627559  77.7368660
  33.3371293 126.9377659  78.1748105  33.2820097 126.7721930  77.2336549
  32.7117348 127.6453692  78.3310295  18.1263808 122.1745723  92.0009527
  18.7722671 121.6644677  92.4896752  17.9180959 122.9114405  92.5752953
  30.6517200 129.2426571  97.5001668  31.5208360 129.4167223  97.1388303
  30.1723952 130.0620988  97.3777397  26.6467418 116.4385768  77.7533423
  26.6346088 117.3827608  77.9101694  27.5390840 116.2555913  77.4592885
  30.4619538 113.0328545  82.0079360  29.6951934 112.4787031  82.1536043
  30.8730243 113.1050413  82.8693512  22.4661299 119.3213340  96.0984542
  23.3292760 118.9650145  96.3087866  21.8926709 118.9827235  96.7859946
  47.2659371 138.6141884  84.8833129  47.9984543 138.0441101  85.1170959
  46.5098727 138.2263484  85.3239635  44.7884792 132.3263458  89.3427738
  44.4568117 133.1958869  89.1188953  44.1930405 132.0099742  90.0221768
  44.6813455 137.0458544  86.4221088  43.7730332 136.9773953  86.1279849
  44.6301051 137.5230489  87.2502913  46.5475101 135.2474982  88.1998962
  45.9049482 135.5407516  87.5538756  46.0430030 135.1327903  89.0052158
  41.9886548 136.0139759  91.5560844  41.7447480 136.7681819  91.0195120
  42.2646479 136.3925106  92.3908091  41.5451240 135.1696192  87.1374682
  40.6835719 135.4677445  87.4291419  41.5713675 135.3866591  86.2055714
  35.0242800 132.7294057  97.0914513  34.6309745 132.1760256  97.7662157
  35.8408940 133.0404636  97.4821031  37.9410761 134.1451936  94.6834770
  38.6820474 134.7459089  94.6039232  38.1728683 133.4029574  94.1252812
  41.8867924 130.1733039  88.9599051  41.5432193 131.0634681  88.8838162
  42.2546886 129.9834697  88.0968636  39.4365317 135.0091351  82.5256725
  38.5806914 134.6198201  82.3462363  39.8492269 135.0883312  81.6656510
  40.9664464 132.5437694  86.9248285  40.4629260 132.5067829  86.1116090
  41.2595071 133.4530437  86.9844941  37.2107350 132.6276424  85.9314466
  38.0760347 132.4319233  85.5720356  37.2784859 132.3986776  86.8583823
  34.8169669 134.8578632  83.3030833  35.3913421 134.6353813  82.5704026
  35.4040651 134.9267326  84.0559434  37.1192337 131.7319881  82.0305903
  36.4656749 131.4168898  81.4062517  37.0772811 131.1095621  82.7565725
  43.5843962 136.6550346  83.4675020  42.8466719 136.1427732  83.7985262
  43.8370735 136.2150728  82.6558297  43.6855589 129.4326598  84.0616789
  43.9914466 128.5723962  83.7742704  44.4108194 130.0244218  83.8615783
  39.7662217 133.9275830  91.9082066  39.1190132 134.6265779  91.8146542
  40.5363233 134.3611974  92.2758314  41.5138212 134.8951240  84.4121351
  42.0106912 134.1421203  84.0922421  40.7425194 134.9315557  83.8464560
  43.9557207 131.8620834  86.5600710  43.0420287 132.0925061  86.7282917
  44.3850309 131.9459278  87.4114742  36.0776891 133.7382599  92.2205731
  36.6011292 133.9844895  92.9832040  35.8589224 134.5702633  91.8008868
  37.2829436 134.6796294  89.9055402  36.9426256 133.8804107  90.3076082
  36.5768442 134.9798005  89.3332235  37.9345907 131.7645606  88.3582725
  38.7571977 131.2906084  88.2361615  38.1783971 132.5436090  88.8581411
  40.7185265 135.4979014  79.5903959  40.9348879 136.3803651  79.2892787
  40.2379332 135.1065227  78.8609601  37.3180869 135.4467275  86.2155593
  37.3042438 134.5508368  85.8787891  38.0353297 135.4537939  86.8493879
  36.7217765 134.3281655  81.4843163  36.8433676 133.3998301  81.6834051
  36.4319807 134.3420341  80.5721478  39.5908955 132.0136566  84.6209883
  39.6130652 132.0775899  83.6661862  40.0077014 131.1741074  84.8150389
  41.1397167 132.8124642  89.9644875  41.6579111 133.5485669  89.6391363
  40.7852300 133.1188635  90.7991634  41.3909761 129.2324924  85.4845771
  41.6711515 128.5648113  86.1106198  42.1760368 129.4254020  84.9720435
  45.2618619 137.6542558  89.2317346  46.2136042 137.7540656  89.2529570
  45.0922070 136.8620827  89.7415431  43.2832999 134.7398142  89.4176747
  42.6882931 135.0203154  88.7223236  42.9982696 135.2292042  90.1893488
  47.8901186 137.6659721  88.3917929  47.3740234 136.8818178  88.2047858
  48.7741134 137.3378438  88.5564449  45.5511913 131.4100737  84.3513742
  45.3536734 131.1015825  85.2357074  46.1611618 132.1362376  84.4811672
  51.6398544 140.0772547  88.0840134  50.9131708 139.9428512  87.4756626
  51.2245831 140.3849376  88.8896852  39.3795011 132.2131597  80.4785977
  38.5695739 131.8678682  80.8541223  40.0679428 131.9039141  81.0673588
  41.3085559 131.2909644  82.1010273  41.8616598 131.7105097  82.7600296
  41.5455646 130.3645392  82.1433229  36.5331730 134.5281643  74.4653714
  37.3950894 134.8536541  74.7249532  36.7182074 133.7413139  73.9526780
  44.6864366 133.4010169  81.6088937  44.1063035 134.0594973  81.2266990
  44.4200299 132.5787514  81.1976355  43.1367933 132.8015227  83.8110258
  43.6367711 132.9131761  83.0024577  43.7803541 132.4976280  84.4511066
  43.4689244 135.5610259  80.6645286  42.5815099 135.8459910  80.4465480
  43.8843233 135.4004023  79.8172563  46.8203780 135.5856780  84.3799625
  47.5964171 136.0753233  84.6524242  46.0951915 136.0114835  84.8371494
  49.2576339 136.2984400  85.4373566  49.8520830 136.0580136  84.7266874
  49.3302923 135.5791530  86.0647102  47.2535074 136.8654527  81.7045695
  46.9972008 136.4651163  82.5353903  46.6287942 137.5798321  81.5795835
  51.5647412 139.6050600  84.2116987  51.0046970 139.6743790  84.9848549
  50.9590915 139.4291585  83.4916483  37.4861173 131.7677686  77.7533423
  37.4739843 132.7119526  77.9101694  38.3784595 131.5847831  77.4592885
  41.3013292 128.3620462  82.0079360  40.5345688 127.8078949  82.1536043
  41.7123997 128.4342331  82.8693512   3.9084355  54.3036336  71.6078436
   4.6409527  53.7335553  71.8416265   3.1523710  53.9157936  72.0484941
   1.4309775  48.0157910  76.0673044   1.0993100  48.8853321  75.8434259
   0.8355388  47.6994194  76.7467075   1.3238438  52.7352996  73.1466394
   0.4155316  52.6668404  72.8525155   1.2726034  53.2124941  73.9748220
   3.1900085  50.9369434  74.9244268   2.5474465  51.2301968  74.2784063
   2.6855013  50.8222355  75.7297465   0.8440248  54.6832608  65.6130128
   1.7558105  54.9159994  65.4377825   0.3349895  55.2669652  65.0505206
   3.3299063  60.6012864  70.3588073   2.6450101  60.9811765  69.8085106
   3.4142912  61.2108191  71.0920021   0.5849994  58.2472823  76.9583416
   0.7966889  58.8904583  76.2817797   0.5379742  57.4135139  76.4905346
   1.6995822  61.1244778  75.1305774   2.5213266  60.7224966  74.8488455
   1.6958225  61.0213012  76.0821889   9.7901815  57.4683527  71.4790745
   9.0365524  56.8990925  71.3234750   9.9249356  57.4346191  72.4261380
   3.4677464  58.6068457  66.1269967   2.6906906  58.2679616  65.6825129
   4.1468945  58.6121080  65.4524932   1.7068771  58.0802438  72.7836575
   1.0492445  58.7701699  72.8716703   2.5109170  58.4698870  73.1270561
   0.5174229  56.4346811  70.8340516   1.0306111  57.0676803  71.3362226
   1.1675453  55.8348006  70.4683876   1.2836026  61.4152812  68.9619659
   0.8298353  60.5743722  69.0184849   0.6529992  62.0514211  69.2994439
   0.3280572  45.1221050  70.7862096   0.6339449  44.2618414  70.4988011
   1.0533177  45.7138670  70.5861090   3.8665961  57.6212163  68.5892888
   3.7283859  57.8113759  67.6614078   3.5102180  58.3831546  69.0460940
   3.8935340  59.6888690  73.6004160   4.3271847  59.5963979  74.4487214
   4.6066921  59.6646191  72.9624176   4.7550890  59.7312391  76.1337045
   4.9486780  60.6358202  76.3796320   4.6551508  59.2719810  76.9675630
   1.5258205  62.9138256  79.7854408   1.4670751  62.2297476  79.1184991
   1.9277724  63.6557246  79.3335034   1.5275613  60.8777840  78.0168388
   0.6402391  60.5403762  78.1394786   2.0974164  60.1460871  78.2537153
   6.0092953  56.2886058  72.7784949   5.9982829  57.1710773  72.4078882
   5.1410333  55.9357608  72.5839486   2.6265528  55.1834699  69.2455115
   3.0925980  56.0162690  69.1715418   3.0773028  54.7179680  69.9500374
   0.9682856  64.1564187  72.4082021   1.8929403  63.9507048  72.2706472
   0.7998159  63.9080588  73.3171362   0.7578172  64.6749854  67.7644112
   0.9315049  64.1096277  67.0117965   1.2507063  65.4750749  67.5823602
   6.6117563  57.4386277  69.3834412   7.0548709  56.6893602  68.9853535
   5.7344073  57.4296413  69.0008144   1.7453344  63.9916618  64.8641011
   2.4404249  64.6123311  65.0828325   2.0876495  63.1411970  65.1393388
   3.6444767  61.4416324  66.3928341   4.1696092  61.7803597  65.6677661
   3.5567120  60.5063339  66.2091476   3.3338674  62.0749228  81.6979539
   2.5434217  62.0573366  81.1584039   3.0972028  62.6137521  82.4528576
   3.4536549  58.9241694  79.0112268   3.5034554  58.7591701  79.9527791
   3.3450472  58.0568953  78.6210149   0.7440311  54.9072622  80.3271575
   1.6450174  54.7679087  80.0355572   0.8188286  55.0727077  81.2669752
   4.9554745  61.3438636  79.2554289   4.6639554  61.7068616  80.0917750
   4.3426877  60.6305644  79.0767621   6.1550428  58.9091515  71.7756860
   6.9897319  59.3481319  71.9394420   6.2909557  58.4330169  70.9565105
   3.2041934  56.4671250  77.7234347   3.6796055  56.6598896  76.9153199
   2.2807499  56.5230436  77.4777731   1.9043603  53.3437010  75.9562653
   2.8561026  53.4435108  75.9774877   1.7347053  52.5515279  76.4660737
   1.6853489  63.6981391  61.8628634   1.6067121  63.3641254  62.7564392
   2.5063156  64.1903159  61.8620106   4.3831680  56.5643130  75.0704953
   4.3508001  55.6259131  75.2564636   4.9932304  56.6427167  74.3370778
   4.5326169  53.3554173  75.1163236   4.0165218  52.5712630  74.9293165
   5.4166117  53.0272890  75.2809755   2.1936896  47.0995189  71.0759049
   1.9961717  46.7910277  71.9602380   2.8036601  47.8256828  71.2056978
  10.2008230  57.6259137  74.2110989  10.9311619  57.3644425  74.7718693
   9.5915176  56.8887859  74.2513057   8.2823527  55.7666999  74.8085441
   7.5556691  55.6322964  74.2001932   7.8670814  56.0743828  75.6142159
   1.3289350  49.0904621  68.3334244   0.7488019  49.7489425  67.9512297
   1.0625282  48.2681966  67.9221662   3.4628764  51.2751232  71.1044932
   4.2389154  51.7647685  71.3769548   2.7376898  51.7009287  71.5616801
   5.9001322  51.9878852  72.1618872   6.4945813  51.7474587  71.4512180
   5.9727906  51.2685982  72.7892409   3.8960057  52.5548979  68.4291002
   3.6396991  52.1545615  69.2599210   3.2712925  53.2692773  68.3041141
   8.2072395  55.2945052  70.9362293   7.6471953  55.3638242  71.7093855
   7.6015898  55.1186037  70.2161790   1.1644138  61.4531915  63.5337072
   1.9989742  61.0213114  63.3514547   1.0028481  61.2813929  64.4613967
   9.7928414  71.9701566  73.6292249  10.4306824  71.8508314  72.9255589
   9.6749256  72.9182410  73.6880201   6.6018120  71.9228994  73.5653774
   6.2636631  71.8070059  72.6774309   7.4707888  71.5220160  73.5454780
   2.4604936  73.7764471  69.5550665   1.8969801  73.6854408  68.7866953
   2.3457331  72.9564375  70.0353157   7.0837903  73.0763846  79.5239979
   7.0726544  72.6816644  78.6520483   7.2458542  72.3429919  80.1173751
   8.0404494  77.4435439  64.8665130   7.3892474  78.0289519  64.4799143
   8.8348857  77.9741633  64.9260167   1.9660121  74.5324576  65.2652264
   2.7390997  73.9853563  65.1265140   2.3185520  75.3968825  65.4766725
   3.8045164  75.8600958  78.4719163   3.5135030  76.7646589  78.3565830
   4.4402148  75.9017486  79.1863233   4.7301371  73.2377806  75.0620523
   5.3264943  73.0133829  74.3477486   4.7876342  72.4962552  75.6645971
   4.3026399  70.6917242  62.8970714   4.5551920  70.1698763  62.1354177
   3.3650958  70.5283387  62.9997398   9.3469682  69.6953020  70.7045457
  10.1332771  69.2772443  70.3535874   9.6108386  70.5999112  70.8727106
   9.5179759  75.1325870  65.4034114   8.8825592  75.2060497  66.1155019
   9.1877166  75.7219469  64.7253193  14.7478109  69.6328253  71.6078436
  15.4803281  69.0627470  71.8416265  13.9917465  69.2449854  72.0484941
   4.0222688  72.5945348  65.0995089   3.9058946  71.9190251  65.7676173
   4.1324948  72.1077722  64.2827242   6.3654229  72.0555495  68.8041778
   6.0012436  71.5286116  69.5154700   7.2221345  71.6653964  68.6308264
  12.2703530  63.3449827  76.0673044  11.9386854  64.2145238  75.8434259
  11.6749143  63.0286111  76.7467075   6.0059716  67.0845395  63.8003127
   6.1734118  67.9525631  64.1673598   5.8156885  67.2472676  62.8764416
   8.7635049  75.5462373  75.4668957   8.4635772  76.4487412  75.3584764
   8.4186109  75.2794557  76.3190110   2.2147531  71.9976170  71.5005661
   1.2898027  71.8652384  71.7083353   2.4631944  72.7770390  71.9975604
  12.1632193  68.0644914  73.1466394  11.2549070  67.9960322  72.8525155
  12.1119789  68.5416859  73.9748220   5.9848937  69.5403052  64.7849794
   5.8648562  69.9860103  65.6235274   5.2901525  69.8888370  64.2263332
   3.7455829  82.3106694  68.4339925   3.6679859  83.2614519  68.5128405
   3.1417472  81.9652566  69.0914851   6.2373059  69.4834559  81.0901292
   5.4606393  70.0428479  81.0804156   6.8763622  69.9691342  81.6116162
  14.0293839  66.2661352  74.9244268  13.3868219  66.5593885  74.2784063
  13.5248768  66.1514272  75.7297465  11.6834003  70.0124525  65.6130128
  12.5951859  70.2451912  65.4377825  11.1743650  70.5961569  65.0505206
   4.4919431  72.2920013  80.6519259   5.2334115  72.8305057  80.3754082
   3.7856416  72.9186301  80.8090810   9.9674771  74.4349153  79.2491420
  10.3758127  73.9931564  78.5046052   9.2452032  73.8601781  79.5025613
   6.3205841  69.3721760  76.6224977   7.1667036  69.7961173  76.7659626
   6.2604478  68.7155384  77.3163540  10.2903585  74.9950344  73.0043709
   9.6612448  75.1596058  72.3019777   9.9029247  75.4091953  73.7754673
  14.1692817  75.9304782  70.3588073  13.4843855  76.3103683  69.8085106
  14.2536666  76.5400108  71.0920021   9.4705286  67.0326128  78.2806151
   9.2266218  67.7868189  77.7440426   9.7465216  67.4111476  79.1153398
  11.4243749  73.5764741  76.9583416  11.6360644  74.2196500  76.2817797
  11.3773497  72.7427057  76.4905346   9.0269978  66.1882561  73.8619988
   8.1654457  66.4863815  74.1536726   9.0532412  66.4052960  72.9301021
   5.8431547  74.7324752  70.2693794   6.3069893  75.0112455  69.4798417
   5.5788345  73.8308196  70.0866885   2.7355628  74.2796233  73.2073557
   3.3056985  74.7083502  72.5691042   3.3263740  73.9978818  73.9057743
   4.7800433  70.8547904  67.0783359   5.4824476  71.3068948  67.5457286
   4.4481062  70.2131723  67.7063252   3.2280795  69.4459661  81.4534569
   2.5979455  70.1275942  81.6869965   3.1216883  69.3342742  80.5087707
  12.5389577  76.4536696  75.1305774  13.3607020  76.0516883  74.8488455
  12.5351980  76.3504930  76.0821889   6.3046180  76.0020739  77.2866484
   6.3690613  76.4641147  78.1224656   5.5957104  75.3718104  77.4148794
  20.6295570  72.7975444  71.4790745  19.8759278  72.2282843  71.3234750
  20.7643111  72.7638109  72.4261380   6.0194198  77.6688847  67.1545464
   5.8839873  78.5140383  67.5830312   6.5604010  77.8708124  66.3911398
   2.5061537  63.7480427  83.8159820   2.1128483  63.1946625  84.4907464
   3.3227678  64.0591005  84.2066337   1.2818480  78.3030041  69.8096143
   1.4585108  79.2248006  69.6217127   2.0775313  77.9888460  70.2390523
   5.4229498  65.1638306  81.4080076   6.1639212  65.7645459  81.3284539
   5.6547421  64.4215944  80.8498119   7.6462674  78.2912413  81.2845807
   7.2026528  77.5048792  80.9666711   8.3079888  78.4791564  80.6189697
   2.4049795  79.8208215  75.8106485   2.9557220  79.6925278  75.0383479
   1.5661271  80.1203104  75.4601378   9.7443912  78.5715213  79.3127208
   9.7262388  79.3924094  78.8207477  10.6663832  78.4469288  79.5377349
   6.2016966  76.0859343  80.1550716   6.7345303  75.3247631  79.9250024
   5.6731047  75.7932995  80.8974871   9.3686661  61.1919409  75.6844358
   9.0250931  62.0821050  75.6083469   9.7365624  61.0021066  74.8213943
   9.3336944  71.1828020  64.1916793   8.8183567  71.9532624  64.4305180
   9.0614252  70.5093156  64.8149854   6.9184055  66.0277721  69.2502031
   6.0625651  65.6384571  69.0707670   7.3311007  66.1069681  68.3901817
   8.4483202  63.5624064  73.6493591   7.9447997  63.5254199  72.8361396
   8.7413809  64.4716807  73.7090248   4.6926088  63.6462794  72.6559773
   5.5579084  63.4505602  72.2965662   4.7603597  63.4173145  73.5829130
  14.3071218  73.9360374  66.1269967  13.5300661  73.5971534  65.6825129
  14.9862699  73.9412998  65.4524932   9.1223247  69.0555112  66.0176574
   8.8173383  69.3701261  66.8686717  10.0753689  69.1336532  66.0603907
   7.5669679  75.2145335  67.6669528   7.0391041  74.4798095  67.3542766
   7.0657182  75.9920012  67.4209497  12.5462525  73.4094356  72.7836575
  11.8886200  74.0993617  72.8716703  13.3502924  73.7990788  73.1270561
   2.2988407  65.8765001  70.0276140   2.8732159  65.6540183  69.2949333
   2.8859389  65.9453696  70.7804741  11.3567984  71.7638728  70.8340516
  11.8699866  72.3968720  71.3362226  12.0069208  71.1639924  70.4683876
   2.6257994  67.9069462  64.0472025   1.7895306  68.2444149  64.3681300
   2.4862763  67.7718442  63.1099162   4.6011074  62.7506250  68.7551209
   3.9475487  62.4355268  68.1307824   4.5591549  62.1281991  69.4811032
   5.7122279  73.0325545  60.6704501   4.8049341  72.8014799  60.8695650
   6.2093311  72.2363165  60.8578483   8.6190358  81.7423053  63.5901187
   7.9452057  82.0454749  64.1986145   9.0056180  82.5452133  63.2406644
   7.8348815  69.2388184  73.0798857   6.9171376  69.4603131  72.9220545
   8.2508958  69.3134494  72.2210564   8.6183863  70.6379600  68.2101537
   9.3655681  71.1500997  67.9008659   8.8875452  70.3163652  69.0705931
   6.8910513  73.1338140  65.1928491   5.9821732  72.8497173  65.2900961
   6.9205596  73.5537219  64.3331798  12.1229780  76.7444730  68.9619659
  11.6692107  75.9035640  69.0184849  11.4923747  77.3806128  69.2994439
  11.0662700  67.6736716  70.1920326  10.3285456  67.1614102  70.5230569
  11.3189473  67.2337097  69.3803603  10.5662719  78.5821227  69.8969477
  10.8585694  79.1426284  69.1781843  11.0761340  78.8749787  70.6522636
  11.1674327  60.4512968  70.7862096  11.4733204  59.5910331  70.4988011
  11.8926932  61.0430588  70.5861090   5.4395407  70.7466761  71.2938287
   5.4944017  69.7940597  71.2180763   4.6286609  70.9026200  71.7779585
   6.5886600  74.6746884  62.5316570   6.1506030  73.9582743  62.0722207
   7.3297041  74.9022999  61.9701661   3.3787767  69.3643821  69.0528666
   2.5655632  69.6637991  69.4593858   3.8746761  68.9699509  69.7703148
   5.5296345  79.3601578  70.9862930   5.4872523  79.5862424  70.0571462
   6.4459043  79.1264952  71.1348731   8.9761978  69.8285645  77.8843559
   9.3311366  70.0557118  78.7438025   9.6234110  70.1604022  77.2620815
  14.7059715  72.9504081  68.5892888  14.5677614  73.1405677  67.6614078
  14.3495934  73.7123464  69.0460940   2.8701841  66.9362176  74.6689901
   3.5101221  66.7950935  73.9712864   2.0379372  66.6496690  74.2928502
  14.7329095  75.0180608  73.6004160  15.1665602  74.9255897  74.4487214
  15.4460676  74.9938108  72.9624176   3.6462145  76.2364607  70.7824893
   4.4402744  75.7414927  70.5807468   2.9353838  75.7082470  70.4192599
   8.4656990  78.6182702  75.1337261   8.5194012  79.1873638  75.9014976
   7.5971771  78.7884587  74.7691298   1.3455383  68.3200258  76.6161712
   2.0178437  68.1117620  75.9674361   0.5185170  68.1222344  76.1766944
  15.5944644  75.0604309  76.1337045  15.7880535  75.9650119  76.3796320
  15.4945263  74.6011728  76.9675630   7.2480955  64.9462199  78.6327373
   6.6008870  65.6452149  78.5391849   8.0181971  65.3798343  79.0003621
  10.6559753  75.2111051  81.7077926  10.5045260  74.9821603  80.7908010
  10.6464433  76.1681653  81.7209271   7.4245090  72.7842964  76.6924192
   8.3537150  72.9354124  76.5193160   7.0036120  72.8726985  75.8372839
   6.2233421  76.8093629  74.4622730   6.0844507  76.4412413  75.3348668
   5.4348018  77.3241268  74.2906688   6.8181573  81.9102725  65.8048267
   6.9933329  81.4390768  66.6193889   6.1314361  82.5368491  66.0329527
   7.7738636  76.1875231  71.8511568   7.4388469  76.1476001  72.7469218
   7.2742582  75.5219947  71.3781978   1.7482880  71.5942861  77.3764149
   1.6102678  70.8623100  77.9775688   2.6587804  71.5051761  77.0948337
  10.7097828  73.5331266  62.1248627  10.0926999  72.8078094  62.0281680
  10.2414317  74.2940626  61.7815702   4.3765181  71.3062821  76.8647829
   5.0864800  70.6656013  76.8234447   4.3334489  71.5575715  77.7874009
  12.3651960  78.2430174  79.7854408  12.3064506  77.5589394  79.1184991
  12.7671478  78.9849164  79.3335034   3.0894115  68.2928039  78.6843468
   2.5531472  67.8418777  79.3365064   2.5010824  68.4273947  77.9413932
   1.3842659  85.0592088  72.5788127   1.6239257  85.6910612  73.2567145
   0.5411855  84.7080128  72.8653486   2.4996374  67.7516690  61.2469932
   1.6225840  67.6305491  60.8832178   2.9754127  66.9602768  60.9948820
  12.3669367  76.2069758  78.0168388  11.4796146  75.8695680  78.1394786
  12.9367918  75.4752789  78.2537153   5.8970520  80.8671210  74.9829631
   5.8240692  81.6726182  75.4948935   5.4547914  81.0663176  74.1577652
   5.6860300  80.1042980  68.4932452   4.9027822  80.6464660  68.5870677
   6.3853045  80.6216960  68.8926693   8.9956950  65.9137610  71.1366658
   9.4925650  65.1607572  70.8167728   8.2243932  65.9501926  70.5709867
  16.8486708  71.6177975  72.7784949  16.8376584  72.5002691  72.4078882
  15.9804087  71.2649526  72.5839486   8.3569204  80.7658044  77.1387789
   9.0697176  81.4005509  77.0663691   7.8659233  80.8621910  76.3227791
  10.0786731  74.6709297  68.7105081   9.1443010  74.7910759  68.5409785
  10.2563399  73.7681764  68.4465091   5.5791919  68.0554993  70.8638342
   5.2089706  67.5026033  71.5519248   6.0751011  67.4513126  70.3113342
  13.4659282  70.5126616  69.2455115  13.9319734  71.3454608  69.1715418
  13.9166783  70.0471598  69.9500374   3.4081117  78.5152488  77.9593360
   4.1090577  79.1488971  78.1122754   2.9376232  78.8567219  77.1988999
  11.5335513  76.8570438  66.2441267  11.8095357  76.7427032  67.1535141
  10.6640012  76.4587922  66.2053440  11.4375945  62.8807203  73.2846017
  10.5239025  63.1111430  73.4528223  11.8669046  62.9645647  74.1360049
  11.2082403  71.0697095  75.7845911  10.5553854  71.3173003  75.1298363
  11.5862783  70.2561233  75.4508388   8.1689577  81.1056788  69.8874081
   8.3511972  80.2878444  70.3501833   8.9922563  81.3224481  69.4498971
   8.5031743  80.0324974  67.1489129   9.0319509  79.5217428  66.5359291
   8.7659962  79.7167504  68.0134662   7.2569976  71.8116906  82.2711948
   6.5810613  71.7111036  82.9414323   8.0797610  71.6556120  82.7347945
   1.8587491  81.0840090  69.9086905   1.1897866  81.5686218  69.4250945
   1.7200360  81.3309311  70.8230284   5.9992759  83.1183834  76.5069564
   6.5511067  83.2815455  77.2718649   6.3398953  83.7088272  75.8349588
   0.9757253  65.4658984  77.1091448   1.0398579  66.3273814  76.6968846
   0.9124373  64.8532985  76.3763807  10.8503634  77.9445091  82.3618218
  11.3943538  78.5575050  81.8673173  10.2690479  78.5024670  82.8785231
   9.1361147  81.0665809  73.4933246   9.0112286  80.2655549  72.9844191
   9.7940238  81.5612003  73.0047216  11.1996055  78.8674829  75.1212796
  10.2526391  78.7480181  75.0491123  11.5478828  77.9797327  75.2039057
   3.5595628  64.7568968  78.9451038   4.0830030  65.0031265  79.7077347
   3.3407962  65.5889003  78.5254175   8.2042488  78.6627546  71.3217148
   8.0567451  77.7344253  71.5024718   9.0295982  78.6847636  70.8374223
   2.0704733  67.3145613  67.1797640   2.4100805  67.8431534  66.4576249
   2.5176853  67.6526019  67.9556207  11.8076610  79.4856104  72.4082021
  12.7323158  79.2798966  72.2706472  11.6391914  79.2372505  73.3171362
   4.7648173  65.6982663  76.6300708   4.4244994  64.8990476  77.0321388
   4.0587180  65.9984374  76.0577542   5.4164645  62.7831976  75.0828031
   6.2390715  62.3092454  74.9606922   5.6602709  63.5622460  75.5826718
   4.0572880  65.8120234  65.3790933   4.7781242  66.1901487  64.8754650
   3.4338184  66.5309111  65.4825911   8.2004003  66.5165383  66.3149265
   8.4167617  67.3990021  66.0138094   7.7198070  66.1251597  65.5854907
   2.9403224  69.4751096  72.8920010   2.7947805  69.7891399  73.7844291
   2.4628428  70.0935997  72.3390909   4.7999607  66.4653644  72.9400900
   4.7861176  65.5694738  72.6033197   5.5172035  66.4724308  73.5739186
   6.6525738  66.8990985  74.9854027   6.3943515  67.8208055  74.9838357
   6.1210778  66.5021419  75.6754491  11.5971926  80.0041772  67.7644112
  11.7708804  79.4388194  67.0117965  12.0900818  80.8042667  67.5823602
   4.2036503  65.3468025  68.2088470   4.3252414  64.4184671  68.4079357
   3.9138545  65.3606711  67.2966785   7.0727693  63.0322935  71.3455189
   7.0949390  63.0962268  70.3907169   7.4895752  62.1927444  71.5395696
  17.4511318  72.7678195  69.3834412  17.8942464  72.0185520  68.9853535
  16.5737828  72.7588331  69.0008144  12.5847099  79.3208536  64.8641011
  13.2798003  79.9415229  65.0828325  12.9270249  78.4703887  65.1393388
  14.4838522  76.7708242  66.3928341  15.0089846  77.1095514  65.6677661
  14.3960875  75.8355257  66.2091476   6.1458571  80.6842315  78.5218218
   6.4545697  80.4391462  79.3940918   6.9434053  80.8888954  78.0337088
   6.1679183  82.8380225  70.7523595   5.7284173  82.3456604  71.4456451
   6.9187300  82.2953193  70.5115670   3.6153055  78.3818234  72.8245896
   2.9933064  77.7188939  72.5248124   4.2857922  78.4079366  72.1419544
   3.6877582  66.8600022  82.4178402   3.7365738  67.7362145  82.0356172
   4.2300097  66.3177415  81.8450045  14.1732428  77.4041145  81.6979539
  13.3827972  77.3865284  81.1584039  13.9365783  77.9429439  82.4528576
  14.2930303  74.2533612  79.0112268  14.3428308  74.0883619  79.9527791
  14.1844226  73.3860871  78.6210149   3.1766562  76.9322157  66.3004357
   3.3254682  77.6157622  65.6471030   3.9833005  76.9127247  66.8153812
  11.5834065  70.2364540  80.3271575  12.4843928  70.0971005  80.0355572
  11.6582040  70.4018995  81.2669752   5.9176871  67.6131394  79.1724761
   5.0480180  67.9064961  78.9007349   6.1536351  68.1971839  79.8932025
  15.7948500  76.6730553  79.2554289  15.5033308  77.0360534  80.0917750
  15.1820631  75.9597561  79.0767621  16.9944182  74.2383433  71.7756860
  17.8291074  74.6773237  71.9394420  17.1303311  73.7622086  70.9565105
  14.0435688  71.7963168  77.7234347  14.5189810  71.9890814  76.9153199
  13.1201254  71.8522354  77.4777731   0.9319195  72.9587335  67.3065426
   0.6865237  72.0549665  67.5045636   1.1015109  72.9604485  66.3644904
   8.6215905  63.8311011  76.6890181   9.1397849  64.5672038  76.3636670
   8.2671037  64.1375005  77.5236940   8.8728499  60.2511294  72.2091078
   9.1530253  59.5834483  72.8351504   9.6579106  60.4440390  71.6965742
   6.6761967  79.4270288  63.7716104   6.1035934  80.0460475  63.3186576
   7.2494761  79.9769650  64.3056026  12.7437357  68.6728928  75.9562653
  13.6954780  68.7727026  75.9774877  12.5740808  67.8807196  76.4660737
  10.7651737  65.7584511  76.1422054  10.1701669  66.0389524  75.4468543
  10.4801433  66.2478412  76.9138795   9.8959227  79.7107438  64.9024686
  10.8289900  79.6453000  65.1057562   9.8082440  80.5463705  64.4439219
  12.5247244  79.0273308  61.8628634  12.4460875  78.6933172  62.7564392
  13.3456911  79.5195076  61.8620106  15.2225435  71.8935048  75.0704953
  15.1901755  70.9551048  75.2564636  15.8326059  71.9719084  74.3370778
   7.0608766  70.7631101  61.1132157   8.0067871  70.6337309  61.1820575
   6.6823011  70.0245762  61.5901585  15.3719923  68.6846091  75.1163236
  14.8558972  67.9004548  74.9293165  16.2559872  68.3564808  75.2809755
  13.0330650  62.4287107  71.0759049  12.8355471  62.1202195  71.9602380
  13.6430356  63.1548746  71.2056978  21.0401985  72.9551054  74.2110989
  21.7705373  72.6936343  74.7718693  20.4308930  72.2179776  74.2513057
  19.1217282  71.0958917  74.8085441  18.3950445  70.9614882  74.2001932
  18.7064569  71.4035746  75.6142159   6.9447458  74.8148847  82.5732814
   7.8650468  74.9927446  82.7672860   6.9097041  73.8704892  82.4212513
   5.2451683  68.6881077  61.0487042   4.3383138  68.3914190  61.1249756
   5.5227664  68.3910895  60.1821328   6.8613749  63.2317967  67.2031283
   6.0514477  62.8865052  67.5786529   7.5498166  62.9225510  67.7918895
   8.7904297  62.3096013  68.8255580   9.3435336  62.7291467  69.4845603
   9.0274383  61.3831762  68.8678536   4.8137396  68.2983087  84.6058344
   4.7134123  69.2477444  84.5370435   4.5958938  67.9701326  83.7334414
   4.0150468  65.5468012  61.1899021   4.8769632  65.8722910  61.4494838
   4.2000812  64.7599508  60.6772087  12.1683104  64.4196539  68.3334244
  11.5881773  65.0781343  67.9512297  11.9019037  63.5973883  67.9221662
  10.6186670  63.8201596  70.5355564  11.1186449  63.9318131  69.7269883
  11.2622278  63.5162649  71.1756373   4.6768666  71.7280226  83.4223405
   4.1935748  72.5280586  83.6287294   4.7629605  71.7388171  82.4690849
   0.6042004  75.6184761  75.4591839   1.5585257  75.5868703  75.3921771
   0.4054527  75.1575384  76.2742065   1.1941386  74.1885877  78.0262637
   2.0134275  74.6829955  78.0497474   1.4678194  73.2717845  77.9980204
  10.9507982  66.5796629  67.3890592  10.0633837  66.8646280  67.1710787
  11.3661971  66.4190392  66.5417869  14.3022518  66.6043150  71.1044932
  15.0782908  67.0939602  71.3769548  13.5770652  67.0301204  71.5616801
  16.7395077  67.3170769  72.1618872  17.3339568  67.0766505  71.4512180
  16.8121661  66.5977900  72.7892409  10.0951196  76.3441304  61.4838612
  10.7987046  76.5491306  62.0996268   9.3713844  76.9118066  61.7487696
  10.9249006  72.0951165  67.6040883  10.8684207  72.5519716  66.7648515
  11.4777348  71.3341850  67.4263725  14.7353812  67.8840897  68.4291002
  14.4790746  67.4837532  69.2599210  14.1106680  68.5984691  68.3041141
  19.0466150  70.6236970  70.9362293  18.4865708  70.6930159  71.7093855
  18.4409653  70.4477955  70.2161790   2.1161358  82.0573697  72.6880480
   1.9993743  83.0019130  72.5859170   1.2953805  81.7547259  73.0766279
  12.0037893  76.7823833  63.5337072  12.8383497  76.3505031  63.3514547
  11.8422236  76.6105847  64.4613967  11.6583785  73.2855946  64.8993412
  11.6032589  73.1200218  63.9581856  11.0329840  73.9931979  65.0555601
   8.9729692  75.5904858  84.2246974   9.8420852  75.7645510  83.8633609
   8.4936444  76.4099275  84.1022704   4.9679911  62.7864055  64.4778730
   4.9558580  63.7305895  64.6347001   5.8603332  62.6034201  64.1838191
   3.1415873  82.7101959  75.9036408   4.0443119  82.7425569  76.2202903
   2.9153243  81.7802410  75.9182744   4.8969475  81.4632946  72.5646487
   3.9465106  81.4634807  72.4510859   5.2001961  80.7165680  72.0482521
   8.7832030  59.3806832  68.7324667   8.0164426  58.8265319  68.8781349
   9.1942735  59.4528701  69.5938819  20.6322168  87.2993484  73.6292249
  21.2700578  87.1800231  72.9255589  20.5143011  88.2474328  73.6880201
  17.4411874  87.2520912  73.5653774  17.1030386  87.1361977  72.6774309
  18.3101643  86.8512077  73.5454780  13.2998690  89.1056389  69.5550665
  12.7363555  89.0146325  68.7866953  13.1851085  88.2856293  70.0353157
  17.9231657  88.4055764  79.5239979  17.9120298  88.0108562  78.6520483
  18.0852297  87.6721836  80.1173751  10.8463122  90.6007580  72.3934885
  11.6384414  90.2598405  71.9781185  11.0859772  90.7102555  73.3137039
  18.8798249  92.7727356  64.8665130  18.2286228  93.3581437  64.4799143
  19.6742612  93.3033551  64.9260167  12.8053876  89.8616493  65.2652264
  13.5784752  89.3145480  65.1265140  13.1579275  90.7260743  65.4766725
  14.6438918  91.1892876  78.4719163  14.3528784  92.0938506  78.3565830
  15.2795903  91.2309403  79.1863233  15.5695125  88.5669724  75.0620523
  16.1658698  88.3425747  74.3477486  15.6270097  87.8254470  75.6645971
  15.1420154  86.0209159  62.8970714  15.3945674  85.4990681  62.1354177
  14.2044713  85.8575305  62.9997398  20.1863437  85.0244938  70.7045457
  20.9726526  84.6064361  70.3535874  20.4502141  85.9291030  70.8727106
  20.3573514  90.4617788  65.4034114  19.7219347  90.5352415  66.1155019
  20.0270920  91.0511387  64.7253193  25.5871864  84.9620171  71.6078436
  26.3197036  84.3919388  71.8416265  24.8311219  84.5741771  72.0484941
  14.8616442  87.9237265  65.0995089  14.7452701  87.2482169  65.7676173
  14.9718702  87.4369639  64.2827242  17.2047983  87.3847413  68.8041778
  16.8406191  86.8578034  69.5154700  18.0615099  86.9945882  68.6308264
  23.1097284  78.6741745  76.0673044  22.7780609  79.5437156  75.8434259
  22.5142897  78.3578029  76.7467075  16.8453470  82.4137312  63.8003127
  17.0127873  83.2817549  64.1673598  16.6550639  82.5764594  62.8764416
  19.6028804  90.8754291  75.4668957  19.3029527  91.7779330  75.3584764
  19.2579863  90.6086474  76.3190110  13.0541285  87.3268088  71.5005661
  12.1291781  87.1944302  71.7083353  13.3025698  88.1062307  71.9975604
  23.0025947  83.3936831  73.1466394  22.0942825  83.3252240  72.8525155
  22.9513543  83.8708776  73.9748220  16.8242691  84.8694970  64.7849794
  16.7042316  85.3152021  65.6235274  16.1295280  85.2180287  64.2263332
  10.4150096  86.9701362  72.3349451  10.5442477  87.2235840  73.2488862
   9.7347547  87.5629070  72.0154106  14.5849583  97.6398611  68.4339925
  14.5073613  98.5906437  68.5128405  13.9811227  97.2944484  69.0914851
  17.0766813  84.8126477  81.0901292  16.3000147  85.3720397  81.0804156
  17.7157376  85.2983260  81.6116162  24.8687594  81.5953270  74.9244268
  24.2261974  81.8885803  74.2784063  24.3642522  81.4806190  75.7297465
  22.5227757  85.3416443  65.6130128  23.4345614  85.5743830  65.4377825
  22.0137404  85.9253487  65.0505206  15.3313185  87.6211930  80.6519259
  16.0727870  88.1596974  80.3754082  14.6250171  88.2478219  80.8090810
  20.8068525  89.7641071  79.2491420  21.2151881  89.3223481  78.5046052
  20.0845787  89.1893698  79.5025613  17.1599595  84.7013678  76.6224977
  18.0060790  85.1253091  76.7659626  17.0998233  84.0447302  77.3163540
  21.1297340  90.3242261  73.0043709  20.5006202  90.4887976  72.3019777
  20.7423002  90.7383871  73.7754673  25.0086572  91.2596699  70.3588073
  24.3237610  91.6395601  69.8085106  25.0930421  91.8692026  71.0920021
  20.3099040  82.3618046  78.2806151  20.0659972  83.1160106  77.7440426
  20.5858971  82.7403393  79.1153398  22.2637503  88.9056658  76.9583416
  22.4754398  89.5488418  76.2817797  22.2167251  88.0718975  76.4905346
  19.8663732  81.5174479  73.8619988  19.0048211  81.8155732  74.1536726
  19.8926167  81.7344878  72.9301021  16.6825302  90.0616669  70.2693794
  17.1463647  90.3404372  69.4798417  16.4182100  89.1600114  70.0866885
  13.5749383  89.6088151  73.2073557  14.1450740  90.0375419  72.5691042
  14.1657494  89.3270736  73.9057743  15.6194188  86.1839822  67.0783359
  16.3218231  86.6360865  67.5457286  15.2874816  85.5423641  67.7063252
  14.0674549  84.7751578  81.4534569  13.4373210  85.4567859  81.6869965
  13.9610637  84.6634660  80.5087707   9.3619522  84.4423374  72.3800493
   8.5718576  84.6980903  71.9040603   9.8530769  85.2571712  72.4852533
  23.3783331  91.7828614  75.1305774  24.2000775  91.3808801  74.8488455
  23.3745734  91.6796848  76.0821889  11.3134267  84.8067954  69.3383970
  10.5165430  84.9186648  69.8567465  11.0859859  85.1454606  68.4724860
  17.1439935  91.3312657  77.2866484  17.2084367  91.7933064  78.1224656
  16.4350858  90.7010022  77.4148794   7.6457225  84.6953865  74.8115484
   7.8965263  85.5800875  75.0773060   8.1816773  84.5158466  74.0390575
  31.4689324  88.1267362  71.4790745  30.7153033  87.5574760  71.3234750
  31.6036865  88.0930027  72.4261380  16.8587952  92.9980764  67.1545464
  16.7233627  93.8432300  67.5830312  17.3997765  93.2000042  66.3911398
  13.3455292  79.0772344  83.8159820  12.9522237  78.5238543  84.4907464
  14.1621432  79.3882923  84.2066337  10.3117350  90.5156202  67.7273390
  10.8241870  91.3099453  67.8778954  10.9640062  89.8182493  67.6606991
  12.1212234  93.6321959  69.8096143  12.2978863  94.5539923  69.6217127
  12.9169068  93.3180378  70.2390523  16.2623253  80.4930223  81.4080076
  17.0032966  81.0937377  81.3284539  16.4941176  79.7507861  80.8498119
  11.4064591  85.6786591  79.6858306  11.2918106  84.7771848  79.9865405
  10.5509109  85.9250287  79.3343122  18.4856429  93.6204331  81.2845807
  18.0420283  92.8340710  80.9666711  19.1473642  93.8083481  80.6189697
  13.2443550  95.1500133  75.8106485  13.7950975  95.0217196  75.0383479
  12.4055026  95.4495022  75.4601378  20.5837667  93.9007131  79.3127208
  20.5656142  94.7216012  78.8207477  21.5057587  93.7761206  79.5377349
  17.0410721  91.4151260  80.1550716  17.5739058  90.6539549  79.9250024
  16.5124802  91.1224912  80.8974871  20.2080416  76.5211326  75.6844358
  19.8644685  77.4112968  75.6083469  20.5759378  76.3312984  74.8213943
   8.2766266  88.8444857  68.5032960   9.1141488  89.2541865  68.2866668
   8.4544534  87.9044299  68.4733154  20.1730699  86.5119937  64.1916793
  19.6577322  87.2824542  64.4305180  19.9008007  85.8385074  64.8149854
  17.7577810  81.3569638  69.2502031  16.9019406  80.9676489  69.0707670
  18.1704761  81.4361599  68.3901817  19.2876956  78.8915981  73.6493591
  18.7841752  78.8546117  72.8361396  19.5807563  79.8008724  73.7090248
  15.5319842  78.9754711  72.6559773  16.3972839  78.7797520  72.2965662
  15.5997351  78.7465063  73.5829130  25.1464973  89.2652292  66.1269967
  24.3694415  88.9263452  65.6825129  25.8256454  89.2704915  65.4524932
  19.9617002  84.3847030  66.0176574  19.6567137  84.6993179  66.8686717
  20.9147444  84.4628449  66.0603907  18.4063434  90.5437253  67.6669528
  17.8784795  89.8090012  67.3542766  17.9050936  91.3211929  67.4209497
  23.3856280  88.7386273  72.7836575  22.7279954  89.4285535  72.8716703
  24.1896679  89.1282705  73.1270561  13.1382161  81.2056919  70.0276140
  13.7125913  80.9832101  69.2949333  13.7253144  81.2745614  70.7804741
  22.1961738  87.0930646  70.8340516  22.7093620  87.7260638  71.3362226
  22.8462962  86.4931842  70.4683876  13.4651748  83.2361380  64.0472025
  12.6289061  83.5736067  64.3681300  13.3256518  83.1010360  63.1099162
  15.4404829  78.0798168  68.7551209  14.7869241  77.7647185  68.1307824
  15.3985303  77.4573909  69.4811032  16.5516034  88.3617463  60.6704501
  15.6443095  88.1306717  60.8695650  17.0487066  87.5655082  60.8578483
  19.4584113  97.0714970  63.5901187  18.7845811  97.3746667  64.1986145
  19.8449935  97.8744051  63.2406644  18.6742569  84.5680102  73.0798857
  17.7565131  84.7895049  72.9220545  19.0902713  84.6426412  72.2210564
  19.4577617  85.9671517  68.2101537  20.2049436  86.4792914  67.9008659
  19.7269207  85.6455570  69.0705931  17.7304267  88.4630058  65.1928491
  16.8215486  88.1789091  65.2900961  17.7599351  88.8829137  64.3331798
  22.9623535  92.0736647  68.9619659  22.5085862  91.2327557  69.0184849
  22.3317501  92.7098046  69.2994439  21.9056454  83.0028634  70.1920326
  21.1679211  82.4906020  70.5230569  22.1583228  82.5629015  69.3803603
  21.4056474  93.9113144  69.8969477  21.6979448  94.4718201  69.1781843
  21.9155094  94.2041705  70.6522636  22.0068081  75.7804886  70.7862096
  22.3126958  74.9202249  70.4988011  22.7320686  76.3722506  70.5861090
   8.2992438  86.1835572  69.1743694   8.1016837  85.5904933  68.4494760
   7.7439102  85.8787782  69.8919632  16.2789161  86.0758679  71.2938287
  16.3337771  85.1232515  71.2180763  15.4680363  86.2318118  71.7779585
  17.4280355  90.0038802  62.5316570  16.9899785  89.2874661  62.0722207
  18.1690796  90.2314916  61.9701661  14.2181521  84.6935738  69.0528666
  13.4049387  84.9929909  69.4593858  14.7140515  84.2991427  69.7703148
  16.3690099  94.6893495  70.9862930  16.3266278  94.9154342  70.0571462
  17.2852798  94.4556870  71.1348731  19.8155733  85.1577563  77.8843559
  20.1705121  85.3849036  78.7438025  20.4627864  85.4895940  77.2620815
  25.5453470  88.2795999  68.5892888  25.4071368  88.4697595  67.6614078
  25.1889689  89.0415382  69.0460940  13.7095596  82.2654094  74.6689901
  14.3494975  82.1242853  73.9712864  12.8773126  81.9788607  74.2928502
  25.5722849  90.3472526  73.6004160  26.0059356  90.2547815  74.4487214
  26.2854430  90.3230026  72.9624176  14.4855900  91.5656524  70.7824893
  15.2796498  91.0706844  70.5807468  13.7747592  91.0374387  70.4192599
  19.3050744  93.9474620  75.1337261  19.3587767  94.5165556  75.9014976
  18.4365526  94.1176505  74.7691298  10.7938663  85.7099606  66.8584646
   9.8636251  85.6484062  67.0754608  10.8896135  85.1875559  66.0621287
  10.7124212  82.2354419  69.4462887  10.9731030  83.1499752  69.3372048
  11.5341385  81.7678861  69.5959500  12.1849138  83.6492176  76.6161712
  12.8572191  83.4409538  75.9674361  11.3578924  83.4514262  76.1766944
  26.4338399  90.3896226  76.1337045  26.6274289  91.2942037  76.3796320
  26.3339017  89.9303645  76.9675630  18.0874710  80.2754117  78.6327373
  17.4402625  80.9744067  78.5391849  18.8575725  80.7090261  79.0003621
  21.4953508  90.5402969  81.7077926  21.3439014  90.3113521  80.7908010
  21.4858187  91.4973571  81.7209271  18.2638844  88.1134882  76.6924192
  19.1930904  88.2646041  76.5193160  17.8429874  88.2018903  75.8372839
  17.0627176  92.1385546  74.4622730  16.9238261  91.7704331  75.3348668
  16.2741772  92.6533186  74.2906688  17.6575328  97.2394643  65.8048267
  17.8327083  96.7682686  66.6193889  16.9708116  97.8660409  66.0329527
  18.6132391  91.5167149  71.8511568  18.2782224  91.4767919  72.7469218
  18.1136337  90.8511865  71.3781978  12.5876635  86.9234779  77.3764149
  12.4496433  86.1915018  77.9775688  13.4981558  86.8343679  77.0948337
  21.5491583  88.8623183  62.1248627  20.9320753  88.1370011  62.0281680
  21.0808071  89.6232544  61.7815702  15.2158936  86.6354738  76.8647829
  15.9258554  85.9947931  76.8234447  15.1728244  86.8867633  77.7874009
  23.2045714  93.5722092  79.7854408  23.1458260  92.8881312  79.1184991
  23.6065233  94.3141082  79.3335034  13.9287870  83.6219956  78.6843468
  13.3925227  83.1710695  79.3365064  13.3404578  83.7565865  77.9413932
  12.2236413 100.3884005  72.5788127  12.4633011 101.0202530  73.2567145
  11.3805610 100.0372046  72.8653486  13.3390129  83.0808608  61.2469932
  12.4619595  82.9597408  60.8832178  13.8147882  82.2894686  60.9948820
  23.2063122  91.5361676  78.0168388  22.3189900  91.1987597  78.1394786
  23.7761673  90.8044707  78.2537153   4.8592269  87.8685767  71.3411439
   5.5463308  87.5547497  70.7532454   4.7040397  88.7727132  71.0678690
   9.6626991  82.7575964  75.7696463   9.5785180  82.1501633  75.0346873
   8.8409697  83.2484982  75.7705959  16.7364275  96.1963128  74.9829631
  16.6634446  97.0018099  75.4948935  16.2941668  96.3955094  74.1577652
  16.5254055  95.4334898  68.4932452  15.7421576  95.9756578  68.5870677
  17.2246800  95.9508878  68.8926693  19.8350705  81.2429527  71.1366658
  20.3319404  80.4899490  70.8167728  19.0637686  81.2793844  70.5709867
  27.6880462  86.9469893  72.7784949  27.6770338  87.8294608  72.4078882
  26.8197841  86.5941444  72.5839486  19.1962958  96.0949962  77.1387789
  19.9090931  96.7297427  77.0663691  18.7052987  96.1913828  76.3227791
  20.9180485  90.0001215  68.7105081  19.9836764  90.1202677  68.5409785
  21.0957154  89.0973681  68.4465091  16.4185673  83.3846910  70.8638342
  16.0483461  82.8317951  71.5519248  16.9144766  82.7805044  70.3113342
  24.3053037  85.8418534  69.2455115  24.7713489  86.6746526  69.1715418
  24.7560537  85.3763516  69.9500374  14.2474872  93.8444405  77.9593360
  14.9484331  94.4780888  78.1122754  13.7769987  94.1859137  77.1988999
  22.3729268  92.1862355  66.2441267  22.6489112  92.0718950  67.1535141
  21.5033767  91.7879840  66.2053440  22.2769699  78.2099121  73.2846017
  21.3632779  78.4403348  73.4528223  22.7062801  78.2937565  74.1360049
  22.0476158  86.3989013  75.7845911  21.3947608  86.6464920  75.1298363
  22.4256538  85.5853151  75.4508388  19.0083332  96.4348706  69.8874081
  19.1905726  95.6170362  70.3501833  19.8316318  96.6516398  69.4498971
  19.3425497  95.3616891  67.1489129  19.8713264  94.8509346  66.5359291
  19.6053717  95.0459421  68.0134662  18.0963731  87.1408824  82.2711948
  17.4204368  87.0402953  82.9414323  18.9191365  86.9848038  82.7347945
   9.8442590  93.3780760  74.8924463  10.4296027  92.6324448  75.0252367
   9.6467428  93.6884717  75.7761127  12.6981245  96.4132008  69.9086905
  12.0291621  96.8978136  69.4250945  12.5594115  96.6601228  70.8230284
   4.4360245  85.9486361  73.6128906   4.4744344  85.4149951  74.4066024
   3.9300538  85.4221566  72.9939883  16.8386514  98.4475751  76.5069564
  17.3904822  98.6107373  77.2718649  17.1792707  99.0380189  75.8349588
  11.8151007  80.7950901  77.1091448  11.8792334  81.6565732  76.6968846
  11.7518127  80.1824903  76.3763807  11.2903280  82.8674034  80.7564483
  11.9175318  82.4851111  81.3702007  10.4331198  82.6488236  81.1220175
  21.6897388  93.2737009  82.3618218  22.2337292  93.8866967  81.8673173
  21.1084233  93.8316587  82.8785231   8.0668822  84.6750463  66.6882837
   8.3622263  83.7661141  66.6349891   7.1656858  84.6538202  66.3663840
  19.9754901  96.3957727  73.4933246  19.8506041  95.5947467  72.9844191
  20.6333992  96.8903920  73.0047216  11.5963069  82.7506459  72.6710386
  10.8749655  83.3642427  72.5317859  12.3856325  83.2864224  72.5927032
  22.0389810  94.1966747  75.1212796  21.0920145  94.0772098  75.0491123
  22.3872583  93.3089245  75.2039057  14.3989383  80.0860886  78.9451038
  14.9223785  80.3323182  79.7077347  14.1801716  80.9180921  78.5254175
   9.7956664  82.3564561  66.8122163   9.4669370  81.4761939  66.6297269
  10.1496035  82.3012229  67.6998552  19.0436243  93.9919463  71.3217148
  18.8961205  93.0636171  71.5024718  19.8689736  94.0139554  70.8374223
  12.9098487  82.6437530  67.1797640  13.2494560  83.1723452  66.4576249
  13.3570608  82.9817936  67.9556207  22.6470365  94.8148022  72.4082021
  23.5716912  94.6090883  72.2706472  22.4785668  94.5664423  73.3171362
  15.6041928  81.0274581  76.6300708  15.2638748  80.2282394  77.0321388
  14.8980934  81.3276292  76.0577542  16.2558400  78.1123893  75.0828031
  17.0784469  77.6384372  74.9606922  16.4996463  78.8914377  75.5826718
  14.8966634  81.1412152  65.3790933  15.6174997  81.5193405  64.8754650
  14.2731938  81.8601029  65.4825911  19.0397757  81.8457301  66.3149265
  19.2561372  82.7281939  66.0138094  18.5591824  81.4543514  65.5854907
  13.7796979  84.8043014  72.8920010  13.6341559  85.1183317  73.7844291
  13.3022182  85.4227914  72.3390909  15.6393361  81.7945562  72.9400900
  15.6254930  80.8986655  72.6033197  16.3565789  81.8016226  73.5739186
  17.4919492  82.2282902  74.9854027  17.2337270  83.1499973  74.9838357
  16.9604532  81.8313337  75.6754491  22.4365681  95.3333689  67.7644112
  22.6102558  94.7680112  67.0117965  22.9294572  96.1334584  67.5823602
   8.2542641  87.3448358  75.8307671   7.7096109  88.1208166  75.9627945
   9.1321991  87.6919163  75.6726793  15.0430257  80.6759942  68.2088470
  15.1646169  79.7476589  68.4079357  14.7532300  80.6898628  67.2966785
  17.9121448  78.3614853  71.3455189  17.9343145  78.4254186  70.3907169
  18.3289507  77.5219361  71.5395696  28.2905072  88.0970112  69.3834412
  28.7336218  87.3477438  68.9853535  27.4131582  88.0880249  69.0008144
  23.4240853  94.6500454  64.8641011  24.1191758  95.2707146  65.0828325
  23.7664003  93.7995805  65.1393388   9.0408663  86.4718255  78.7237828
   8.2990399  86.6200890  79.3102458   8.7201407  86.7326520  77.8604577
  25.3232276  92.1000159  66.3928341  25.8483601  92.4387432  65.6677661
  25.2354629  91.1647175  66.2091476  16.9852325  96.0134233  78.5218218
  17.2939452  95.7683380  79.3940918  17.7827807  96.2180871  78.0337088
  17.0072937  98.1672143  70.7523595  16.5677928  97.6748521  71.4456451
  17.7581054  97.6245110  70.5115670   9.4865276  94.3583683  70.7548223
  10.3123296  94.0587455  70.3746866   9.1359328  93.5891306  71.2038011
  14.4546809  93.7110152  72.8245896  13.8326819  93.0480857  72.5248124
  15.1251676  93.7371284  72.1419544   7.6873881  92.2770010  71.7137156
   6.8505790  91.8492184  71.5321157   7.6597527  92.4702453  72.6507947
  14.5271337  82.1891940  82.4178402  14.5759492  83.0654063  82.0356172
  15.0693851  81.6469333  81.8450045  25.0126183  92.7333063  81.6979539
  24.2221726  92.7157202  81.1584039  24.7759537  93.2721357  82.4528576
  25.1324058  89.5825529  79.0112268  25.1822063  89.4175537  79.9527791
  25.0237981  88.7152788  78.6210149  14.0160316  92.2614075  66.3004357
  14.1648437  92.9449539  65.6471030  14.8226760  92.2419165  66.8153812
  22.4227820  85.5656457  80.3271575  23.3237683  85.4262922  80.0355572
  22.4975794  85.7310912  81.2669752  16.7570625  82.9423312  79.1724761
  15.8873935  83.2356878  78.9007349  16.9930106  83.5263757  79.8932025
  26.6342254  92.0022471  79.2554289  26.3427063  92.3652451  80.0917750
  26.0214386  91.2889479  79.0767621  27.8337937  89.5675351  71.7756860
  28.6684828  90.0065155  71.9394420  27.9697066  89.0914004  70.9565105
  24.8829443  87.1255085  77.7234347  25.3583564  87.3182732  76.9153199
  23.9595008  87.1814271  77.4777731  11.7712949  88.2879253  67.3065426
  11.5258991  87.3841583  67.5045636  11.9408864  88.2896403  66.3644904
  19.4609659  79.1602929  76.6890181  19.9791603  79.8963956  76.3636670
  19.1064792  79.4666922  77.5236940  11.0408597  84.0207610  64.8051587
  10.3477842  84.0951965  64.1491623  10.7960349  83.2567954  65.3273104
  19.7122253  75.5803212  72.2091078  19.9924007  74.9126401  72.8351504
  20.4972860  75.7732307  71.6965742  17.5155722  94.7562205  63.7716104
  16.9429689  95.3752393  63.3186576  18.0888515  95.3061567  64.3056026
  23.5831112  84.0020846  75.9562653  24.5348535  84.1018943  75.9774877
  23.4134562  83.2099114  76.4660737  21.6045491  81.0876429  76.1422054
  21.0095423  81.3681442  75.4468543  21.3195188  81.5770330  76.9138795
  20.7352982  95.0399356  64.9024686  21.6683655  94.9744917  65.1057562
  20.6476194  95.8755622  64.4439219  23.3640998  94.3565226  61.8628634
  23.2854630  94.0225090  62.7564392  24.1850665  94.8486994  61.8620106
  26.0619189  87.2226965  75.0704953  26.0295510  86.2842966  75.2564636
  26.6719813  87.3011002  74.3370778  17.9002520  86.0923018  61.1132157
  18.8461625  85.9629226  61.1820575  17.5216765  85.3537680  61.5901585
  26.2113678  84.0138009  75.1163236  25.6952727  83.2296465  74.9293165
  27.0953626  83.6856725  75.2809755  23.8724405  77.7579024  71.0759049
  23.6749226  77.4494112  71.9602380  24.4824110  78.4840663  71.2056978
  31.8795739  88.2842972  74.2110989  32.6099128  88.0228260  74.7718693
  31.2702685  87.5471694  74.2513057  29.9611036  86.4250835  74.8085441
  29.2344200  86.2906800  74.2001932  29.5458323  86.7327663  75.6142159
  17.7841213  90.1440764  82.5732814  18.7044222  90.3219363  82.7672860
  17.7490796  89.1996810  82.4212513  16.0845437  84.0172995  61.0487042
  15.1776893  83.7206107  61.1249756  16.3621418  83.7202813  60.1821328
   7.0023378  85.3379358  71.4986088   6.6826162  84.4844666  71.2060462
   6.4556806  85.5527936  72.2544056  10.7803285  88.0541799  75.2155595
  10.9989295  88.9858907  75.2343629  11.1929059  87.6949773  76.0010399
  17.7007503  78.5609884  67.2031283  16.8908231  78.2156969  67.5786529
  18.3891920  78.2517428  67.7918895  19.6298051  77.6387931  68.8255580
  20.1829090  78.0583385  69.4845603  19.8668138  76.7123679  68.8678536
  15.6531151  83.6275005  84.6058344  15.5527878  84.5769362  84.5370435
  15.4352693  83.2993244  83.7334414  14.8544222  80.8759930  61.1899021
  15.7163386  81.2014828  61.4494838  15.0394566  80.0891426  60.6772087
   6.8711638  88.9582270  73.4679210   6.1775109  88.5436222  72.9549164
   7.6184629  89.0002806  72.8712629  23.0076859  79.7488456  68.3334244
  22.4275528  80.4073260  67.9512297  22.7412791  78.9265801  67.9221662
  21.4580425  79.1493514  70.5355564  21.9580203  79.2610049  69.7269883
  22.1016033  78.8454567  71.1756373  15.5162421  87.0572144  83.4223405
  15.0329502  87.8572504  83.6287294  15.6023360  87.0680089  82.4690849
   8.7848380  88.8900523  71.3445225   8.7619068  88.9888211  70.3927108
   9.0949017  89.7365674  71.6662391  11.4435758  90.9476678  75.4591839
  12.3979012  90.9160621  75.3921771  11.2448282  90.4867302  76.2742065
  12.0335140  89.5177794  78.0262637  12.8528029  90.0121873  78.0497474
  12.3071948  88.6009763  77.9980204  21.7901737  81.9088547  67.3890592
  20.9027592  82.1938197  67.1710787  22.2055726  81.7482310  66.5417869
  25.1416273  81.9335068  71.1044932  25.9176663  82.4231520  71.3769548
  24.4164407  82.3593122  71.5616801  27.5788831  82.6462687  72.1618872
  28.1733322  82.4058423  71.4512180  27.6515415  81.9269817  72.7892409
   9.7985987  96.4896298  72.4762037   9.6640455  95.7296699  71.9100035
   9.3818049  97.2137198  72.0090826  20.9344950  91.6733221  61.4838612
  21.6380800  91.8783224  62.0996268  20.2107599  92.2409983  61.7487696
  21.7642760  87.4243083  67.6040883  21.7077962  87.8811634  66.7648515
  22.3171103  86.6633767  67.4263725  25.5747566  83.2132814  68.4291002
  25.3184500  82.8129450  69.2599210  24.9500434  83.9276608  68.3041141
  29.8859904  85.9528888  70.9362293  29.3259462  86.0222077  71.7093855
  29.2803407  85.7769872  70.2161790  12.9555113  97.3865615  72.6880480
  12.8387497  98.3311047  72.5859170  12.1347559  97.0839176  73.0766279
  22.8431647  92.1115751  63.5337072  23.6777251  91.6796949  63.3514547
  22.6815990  91.9397764  64.4613967  22.4977540  88.6147864  64.8993412
  22.4426343  88.4492135  63.9581856  21.8723595  89.3223897  65.0555601
   7.2870055  83.8515928  78.7254834   7.9328918  83.3414882  79.2142059
   7.0787206  84.5884610  79.2998259  19.8123447  90.9196776  84.2246974
  20.6814606  91.0937428  83.8633609  19.3330198  91.7391193  84.1022704
  15.8073665  78.1155973  64.4778730  15.7952335  79.0597813  64.6347001
  16.6997087  77.9326118  64.1838191  13.9809627  98.0393877  75.9036408
  14.8836874  98.0717487  76.2202903  13.7546997  97.1094328  75.9182744
  15.7363229  96.7924863  72.5646487  14.7858860  96.7926725  72.4510859
  16.0395715  96.0457598  72.0482521  19.6225785  74.7098750  68.7324667
  18.8558180  74.1557236  68.8781349  20.0336490  74.7820618  69.5938819
  11.6267546  80.9983545  82.8229848  12.4899007  80.6420350  83.0333173
  11.0532956  80.6597440  83.5105252  31.4715923 102.6285402  73.6292249
  32.1094332 102.5092149  72.9255589  31.3536765 103.5766246  73.6880201
  28.2805629 102.5812830  73.5653774  27.9424140 102.4653894  72.6774309
  29.1495397 102.1803995  73.5454780  24.1392445 104.4348306  69.5550665
  23.5757310 104.3438243  68.7866953  24.0244840 103.6148211  70.0353157
  28.7625412 103.7347682  79.5239979  28.7514053 103.3400480  78.6520483
  28.9246051 103.0013754  80.1173751  21.6856876 105.9299498  72.3934885
  22.4778168 105.5890322  71.9781185  21.9253527 106.0394473  73.3137039
  29.7192003 108.1019274  64.8665130  29.0679983 108.6873354  64.4799143
  30.5136366 108.6325469  64.9260167  23.6447630 105.1908411  65.2652264
  24.4178506 104.6437398  65.1265140  23.9973029 106.0552660  65.4766725
  25.4832673 106.5184793  78.4719163  25.1922539 107.4230424  78.3565830
  26.1189657 106.5601321  79.1863233  26.4088880 103.8961642  75.0620523
  27.0052452 103.6717664  74.3477486  26.4663851 103.1546387  75.6645971
  25.9813908 101.3501077  62.8970714  26.2339429 100.8282598  62.1354177
  25.0438467 101.1867223  62.9997398  31.0257191 100.3536856  70.7045457
  31.8120280  99.9356279  70.3535874  31.2895895 101.2582948  70.8727106
  31.1967268 105.7909706  65.4034114  30.5613101 105.8644332  66.1155019
  30.8664675 106.3803305  64.7253193  36.4265618 100.2912089  71.6078436
  37.1590790  99.7211306  71.8416265  35.6704974  99.9033689  72.0484941
  25.7010197 103.2529183  65.0995089  25.5846455 102.5774087  65.7676173
  25.8112457 102.7661557  64.2827242  28.0441738 102.7139330  68.8041778
  27.6799945 102.1869951  69.5154700  28.9008854 102.3237799  68.6308264
  33.9491038  94.0033663  76.0673044  33.6174363  94.8729074  75.8434259
  33.3536652  93.6869947  76.7467075  27.6847225  97.7429230  63.8003127
  27.8521627  98.6109466  64.1673598  27.4944394  97.9056512  62.8764416
  30.4422558 106.2046209  75.4668957  30.1423281 107.1071248  75.3584764
  30.0973618 105.9378392  76.3190110  23.8935039 102.6560006  71.5005661
  22.9685536 102.5236220  71.7083353  24.1419453 103.4354225  71.9975604
  33.8419702  98.7228749  73.1466394  32.9336579  98.6544157  72.8525155
  33.7907298  99.2000694  73.9748220  27.6636446 100.1986887  64.7849794
  27.5436071 100.6443938  65.6235274  26.9689034 100.5472205  64.2263332
  21.2543851 102.2993279  72.3349451  21.3836232 102.5527758  73.2488862
  20.5741302 102.8920987  72.0154106  25.4243338 112.9690529  68.4339925
  25.3467368 113.9198354  68.5128405  24.8204981 112.6236402  69.0914851
  27.9160568 100.1418395  81.0901292  27.1393902 100.7012315  81.0804156
  28.5551131 100.6275178  81.6116162  35.7081348  96.9245187  74.9244268
  35.0655728  97.2177721  74.2784063  35.2036277  96.8098108  75.7297465
  33.3621512 100.6708361  65.6130128  34.2739368 100.9035747  65.4377825
  32.8531159 101.2545405  65.0505206  26.1706940 102.9503848  80.6519259
  26.9121624 103.4888892  80.3754082  25.4643925 103.5770137  80.8090810
  31.6462280 105.0932988  79.2491420  32.0545636 104.6515399  78.5046052
  30.9239541 104.5185616  79.5025613  27.9993350 100.0305595  76.6224977
  28.8454545 100.4545009  76.7659626  27.9391987  99.3739220  77.3163540
  31.9691094 105.6534179  73.0043709  31.3399957 105.8179893  72.3019777
  31.5816756 106.0675789  73.7754673  35.8480326 106.5888617  70.3588073
  35.1631364 106.9687518  69.8085106  35.9324175 107.1983944  71.0920021
  31.1492795  97.6909964  78.2806151  30.9053727  98.4452024  77.7440426
  31.4252725  98.0695311  79.1153398  33.1031258 104.2348576  76.9583416
  33.3148153 104.8780336  76.2817797  33.0561006 103.4010892  76.4905346
  30.7057487  96.8466397  73.8619988  29.8441966  97.1447650  74.1536726
  30.7319921  97.0636795  72.9301021  27.5219056 105.3908587  70.2693794
  27.9857402 105.6696290  69.4798417  27.2575854 104.4892032  70.0866885
  24.4143137 104.9380069  73.2073557  24.9844494 105.3667337  72.5691042
  25.0051249 104.6562653  73.9057743  26.4587942 101.5131740  67.0783359
  27.1611985 101.9652783  67.5457286  26.1268571 100.8715558  67.7063252
  24.9068304 100.1043496  81.4534569  24.2766964 100.7859777  81.6869965
  24.8004392  99.9926578  80.5087707  20.2013276  99.7715292  72.3800493
  19.4112330 100.0272821  71.9040603  20.6924523 100.5863630  72.4852533
  34.2177086 107.1120531  75.1305774  35.0394529 106.7100719  74.8488455
  34.2139489 107.0088766  76.0821889  22.1528021 100.1359871  69.3383970
  21.3559185 100.2478566  69.8567465  21.9253614 100.4746524  68.4724860
  27.9833689 106.6604575  77.2866484  28.0478122 107.1224982  78.1224656
  27.2744613 106.0301940  77.4148794  18.4850979 100.0245783  74.8115484
  18.7359017 100.9092793  75.0773060  19.0210527  99.8450384  74.0390575
  42.3083079 103.4559280  71.4790745  41.5546787 102.8866678  71.3234750
  42.4430620 103.4221944  72.4261380  27.6981707 108.3272682  67.1545464
  27.5627382 109.1724218  67.5830312  28.2391519 108.5291960  66.3911398
  24.1849046  94.4064262  83.8159820  23.7915992  93.8530461  84.4907464
  25.0015187  94.7174840  84.2066337  21.1511104 105.8448120  67.7273390
  21.6635625 106.6391370  67.8778954  21.8033817 105.1474411  67.6606991
  22.9605989 108.9613876  69.8096143  23.1372617 109.8831841  69.6217127
  23.7562822 108.6472296  70.2390523  27.1017007  95.8222141  81.4080076
  27.8426721  96.4229294  81.3284539  27.3334930  95.0799779  80.8498119
  22.2458345 101.0078508  79.6858306  22.1311861 100.1063766  79.9865405
  21.3902863 101.2542205  79.3343122  29.3250183 108.9496249  81.2845807
  28.8814037 108.1632627  80.9666711  29.9867397 109.1375399  80.6189697
  24.0837304 110.4792050  75.8106485  24.6344729 110.3509114  75.0383479
  23.2448780 110.7786939  75.4601378  31.4231421 109.2299049  79.3127208
  31.4049897 110.0507930  78.8207477  32.3451341 109.1053124  79.5377349
  27.8804475 106.7443178  80.1550716  28.4132812 105.9831466  79.9250024
  27.3518556 106.4516830  80.8974871  31.0474170  91.8503244  75.6844358
  30.7038440  92.7404886  75.6083469  31.4153133  91.6604902  74.8213943
  19.1160021 104.1736774  68.5032960  19.9535243 104.5833783  68.2866668
  19.2938289 103.2336217  68.4733154  31.0124453 101.8411855  64.1916793
  30.4971076 102.6116460  64.4305180  30.7401761 101.1676991  64.8149854
  28.5971564  96.6861556  69.2502031  27.7413160  96.2968406  69.0707670
  29.0098516  96.7653517  68.3901817  30.1270711  94.2207899  73.6493591
  29.6235506  94.1838034  72.8361396  30.4201318  95.1300642  73.7090248
  26.3713597  94.3046629  72.6559773  27.2366593  94.1089438  72.2965662
  26.4391105  94.0756981  73.5829130  35.9858727 104.5944210  66.1269967
  35.2088170 104.2555369  65.6825129  36.6650208 104.5996833  65.4524932
  30.8010756  99.7138947  66.0176574  30.4960892 100.0285096  66.8686717
  31.7541198  99.7920367  66.0603907  29.2457188 105.8729171  67.6669528
  28.7178550 105.1381930  67.3542766  28.7444691 106.6503847  67.4209497
  34.2250034 104.0678191  72.7836575  33.5673709 104.7577452  72.8716703
  35.0290433 104.4574623  73.1270561  23.9775916  96.5348837  70.0276140
  24.5519668  96.3124018  69.2949333  24.5646898  96.6037531  70.7804741
  33.0355493 102.4222564  70.8340516  33.5487375 103.0552556  71.3362226
  33.6856717 101.8223759  70.4683876  24.3045503  98.5653298  64.0472025
  23.4682815  98.9027984  64.3681300  24.1650272  98.4302278  63.1099162
  26.2798583  93.4090086  68.7551209  25.6262996  93.0939103  68.1307824
  26.2379058  92.7865826  69.4811032  27.3909788 103.6909381  60.6704501
  26.4836850 103.4598634  60.8695650  27.8880820 102.8947000  60.8578483
  30.2977867 112.4006888  63.5901187  29.6239566 112.7038585  64.1986145
  30.6843689 113.2035968  63.2406644  29.5136324  99.8972019  73.0798857
  28.5958885 100.1186966  72.9220545  29.9296467  99.9718330  72.2210564
  30.2971371 101.2963435  68.2101537  31.0443190 101.8084832  67.9008659
  30.5662961 100.9747488  69.0705931  28.5698022 103.7921976  65.1928491
  27.6609241 103.5081008  65.2900961  28.5993105 104.2121054  64.3331798
  33.8017289 107.4028565  68.9619659  33.3479616 106.5619475  69.0184849
  33.1711256 108.0389964  69.2994439  32.7450209  98.3320551  70.1920326
  32.0072965  97.8197937  70.5230569  32.9976982  97.8920933  69.3803603
  32.2450228 109.2405062  69.8969477  32.5373203 109.8010119  69.1781843
  32.7548849 109.5333623  70.6522636  32.8461836  91.1096803  70.7862096
  33.1520713  90.2494167  70.4988011  33.5714441  91.7014423  70.5861090
  19.1386192 101.5127490  69.1743694  18.9410592 100.9196850  68.4494760
  18.5832856 101.2079700  69.8919632  27.1182916 101.4050596  71.2938287
  27.1731525 100.4524433  71.2180763  26.3074118 101.5610035  71.7779585
  28.2674109 105.3330719  62.5316570  27.8293539 104.6166578  62.0722207
  29.0084550 105.5606834  61.9701661  25.0575276 100.0227656  69.0528666
  24.2443141 100.3221827  69.4593858  25.5534270  99.6283345  69.7703148
  27.2083854 110.0185413  70.9862930  27.1660032 110.2446259  70.0571462
  28.1246552 109.7848788  71.1348731  30.6549487 100.4869480  77.8843559
  31.0098875 100.7140954  78.7438025  31.3021619 100.8187857  77.2620815
  36.3847224 103.6087916  68.5892888  36.2465123 103.7989512  67.6614078
  36.0283443 104.3707299  69.0460940  24.5489350  97.5946012  74.6689901
  25.1888730  97.4534771  73.9712864  23.7166881  97.3080525  74.2928502
  36.4116604 105.6764443  73.6004160  36.8453111 105.5839732  74.4487214
  37.1248185 105.6521944  72.9624176  25.3249654 106.8948442  70.7824893
  26.1190253 106.3998762  70.5807468  24.6141347 106.3666305  70.4192599
  30.1444499 109.2766537  75.1337261  30.1981521 109.8457474  75.9014976
  29.2759280 109.4468423  74.7691298  21.6332418 101.0391524  66.8584646
  20.7030006 100.9775979  67.0754608  21.7289890 100.5167476  66.0621287
  21.5517967  97.5646337  69.4462887  21.8124784  98.4791670  69.3372048
  22.3735139  97.0970779  69.5959500  23.0242892  98.9784094  76.6161712
  23.6965946  98.7701456  75.9674361  22.1972679  98.7806180  76.1766944
  37.2732153 105.7188144  76.1337045  37.4668044 106.6233955  76.3796320
  37.1732772 105.2595563  76.9675630  28.9268464  95.6046035  78.6327373
  28.2796379  96.3035984  78.5391849  29.6969480  96.0382179  79.0003621
  32.3347262 105.8694887  81.7077926  32.1832769 105.6405438  80.7908010
  32.3251942 106.8265488  81.7209271  29.1032599 103.4426800  76.6924192
  30.0324659 103.5937959  76.5193160  28.6823629 103.5310820  75.8372839
  27.9020930 107.4677464  74.4622730  27.7632016 107.0996248  75.3348668
  27.1135527 107.9825103  74.2906688  28.4969082 112.5686560  65.8048267
  28.6720838 112.0974604  66.6193889  27.8101870 113.1952327  66.0329527
  29.4526145 106.8459067  71.8511568  29.1175978 106.8059837  72.7469218
  28.9530091 106.1803783  71.3781978  23.4270389 102.2526697  77.3764149
  23.2890187 101.5206935  77.9775688  24.3375313 102.1635597  77.0948337
  32.3885337 104.1915101  62.1248627  31.7714508 103.4661929  62.0281680
  31.9201826 104.9524461  61.7815702  26.0552690 101.9646656  76.8647829
  26.7652309 101.3239848  76.8234447  26.0121998 102.2159551  77.7874009
  34.0439469 108.9014009  79.7854408  33.9852015 108.2173229  79.1184991
  34.4458987 109.6432999  79.3335034  24.7681624  98.9511874  78.6843468
  24.2318981  98.5002612  79.3365064  24.1798332  99.0857783  77.9413932
  23.0630168 115.7175923  72.5788127  23.3026766 116.3494447  73.2567145
  22.2199364 115.3663963  72.8653486  24.1783883  98.4100525  61.2469932
  23.3013349  98.2889326  60.8832178  24.6541636  97.6186604  60.9948820
  34.0456876 106.8653593  78.0168388  33.1583655 106.5279515  78.1394786
  34.6155427 106.1336624  78.2537153  15.6986023 103.1977685  71.3411439
  16.3857063 102.8839415  70.7532454  15.5434152 104.1019050  71.0678690
  20.5020745  98.0867882  75.7696463  20.4178934  97.4793551  75.0346873
  19.6803452  98.5776900  75.7705959  27.5758029 111.5255046  74.9829631
  27.5028201 112.3310017  75.4948935  27.1335423 111.7247011  74.1577652
  27.3647809 110.7626816  68.4932452  26.5815331 111.3048496  68.5870677
  28.0640554 111.2800795  68.8926693  30.6744459  96.5721445  71.1366658
  31.1713159  95.8191407  70.8167728  29.9031441  96.6085762  70.5709867
  38.5274217 102.2761811  72.7784949  38.5164093 103.1586526  72.4078882
  37.6591596 101.9233361  72.5839486  30.0356713 111.4241880  77.1387789
  30.7484685 112.0589344  77.0663691  29.5446742 111.5205746  76.3227791
  31.7574240 105.3293132  68.7105081  30.8230519 105.4494595  68.5409785
  31.9350908 104.4265599  68.4465091  27.2579428  98.7138828  70.8638342
  26.8877215  98.1609868  71.5519248  27.7538520  98.1096962  70.3113342
  35.1446791 101.1710452  69.2455115  35.6107243 102.0038443  69.1715418
  35.5954292 100.7055433  69.9500374  25.0868626 109.1736323  77.9593360
  25.7878086 109.8072806  78.1122754  24.6163741 109.5151055  77.1988999
  33.2123022 107.5154273  66.2441267  33.4882866 107.4010867  67.1535141
  32.3427521 107.1171758  66.2053440  33.1163454  93.5391039  73.2846017
  32.2026534  93.7695265  73.4528223  33.5456555  93.6229483  74.1360049
  32.8869912 101.7280931  75.7845911  32.2341363 101.9756838  75.1298363
  33.2650292 100.9145069  75.4508388  29.8477086 111.7640624  69.8874081
  30.0299481 110.9462280  70.3501833  30.6710072 111.9808316  69.4498971
  30.1819252 110.6908809  67.1489129  30.7107018 110.1801263  66.5359291
  30.4447471 110.3751339  68.0134662  28.9357485 102.4700742  82.2711948
  28.2598122 102.3694871  82.9414323  29.7585119 102.3139955  82.7347945
  20.6836345 108.7072678  74.8924463  21.2689781 107.9616366  75.0252367
  20.4861183 109.0176635  75.7761127  23.5375000 111.7423926  69.9086905
  22.8685375 112.2270053  69.4250945  23.3987869 111.9893146  70.8230284
  15.2753999 101.2778278  73.6128906  15.3138099 100.7441869  74.4066024
  14.7694292 100.7513484  72.9939883  27.6780268 113.7767669  76.5069564
  28.2298576 113.9399291  77.2718649  28.0186462 114.3672107  75.8349588
  22.6544762  96.1242819  77.1091448  22.7186088  96.9857650  76.6968846
  22.5911882  95.5116821  76.3763807  22.1297034  98.1965951  80.7564483
  22.7569073  97.8143029  81.3702007  21.2724953  97.9780153  81.1220175
  32.5291143 108.6028927  82.3618218  33.0731047 109.2158885  81.8673173
  31.9477988 109.1608505  82.8785231  18.9062577 100.0042381  66.6882837
  19.2016018  99.0953059  66.6349891  18.0050613  99.9830120  66.3663840
  30.8148656 111.7249645  73.4933246  30.6899795 110.9239384  72.9844191
  31.4727747 112.2195838  73.0047216  22.4356824  98.0798377  72.6710386
  21.7143410  98.6934345  72.5317859  23.2250080  98.6156142  72.5927032
  32.8783564 109.5258665  75.1212796  31.9313900 109.4064016  75.0491123
  33.2266337 108.6381163  75.2039057  25.2383137  95.4152804  78.9451038
  25.7617539  95.6615100  79.7077347  25.0195471  96.2472838  78.5254175
  20.6350418  97.6856478  66.8122163  20.3063125  96.8053857  66.6297269
  20.9889789  97.6304147  67.6998552  29.8829997 109.3211381  71.3217148
  29.7354960 108.3928088  71.5024718  30.7083491 109.3431472  70.8374223
  23.7492242  97.9729448  67.1797640  24.0888314  98.5015369  66.4576249
  24.1964362  98.3109854  67.9556207  33.4864119 110.1439940  72.4082021
  34.4110667 109.9382801  72.2706472  33.3179423 109.8956341  73.3171362
  26.4435682  96.3566499  76.6300708  26.1032503  95.5574312  77.0321388
  25.7374689  96.6568210  76.0577542  27.0952154  93.4415811  75.0828031
  27.9178224  92.9676289  74.9606922  27.3390218  94.2206295  75.5826718
  25.7360389  96.4704070  65.3790933  26.4568751  96.8485322  64.8754650
  25.1125693  97.1892946  65.4825911  29.8791512  97.1749219  66.3149265
  30.0955126  98.0573856  66.0138094  29.3985579  96.7835432  65.5854907
  24.6190733 100.1334932  72.8920010  24.4735314 100.4475235  73.7844291
  24.1415937 100.7519832  72.3390909  26.4787116  97.1237480  72.9400900
  26.4648685  96.2278573  72.6033197  27.1959544  97.1308143  73.5739186
  28.3313247  97.5574820  74.9854027  28.0731024  98.4791891  74.9838357
  27.7998287  97.1605254  75.6754491  33.2759435 110.6625607  67.7644112
  33.4496313 110.0972030  67.0117965  33.7688327 111.4626502  67.5823602
  19.0936395 102.6740276  75.8307671  18.5489863 103.4500084  75.9627945
  19.9715745 103.0211081  75.6726793  25.8824012  96.0051860  68.2088470
  26.0039923  95.0768506  68.4079357  25.5926054  96.0190546  67.2966785
  28.7515202  93.6906770  71.3455189  28.7736899  93.7546104  70.3907169
  29.1683261  92.8511279  71.5395696  39.1298827 103.4262030  69.3834412
  39.5729973 102.6769355  68.9853535  38.2525337 103.4172166  69.0008144
  34.2634608 109.9792371  64.8641011  34.9585512 110.5999064  65.0828325
  34.6057758 109.1287723  65.1393388  19.8802417 101.8010172  78.7237828
  19.1384153 101.9492808  79.3102458  19.5595161 102.0618438  77.8604577
  36.1626031 107.4292077  66.3928341  36.6877355 107.7679350  65.6677661
  36.0748384 106.4939092  66.2091476  27.8246080 111.3426151  78.5218218
  28.1333206 111.0975297  79.3940918  28.6221562 111.5472789  78.0337088
  27.8466692 113.4964060  70.7523595  27.4071682 113.0040439  71.4456451
  28.5974809 112.9537028  70.5115670  20.3259031 109.6875601  70.7548223
  21.1517051 109.3879373  70.3746866  19.9753083 108.9183224  71.2038011
  25.2940564 109.0402069  72.8245896  24.6720573 108.3772774  72.5248124
  25.9645431 109.0663201  72.1419544  18.5267636 107.6061928  71.7137156
  17.6899544 107.1784102  71.5321157  18.4991281 107.7994371  72.6507947
  25.3665091  97.5183857  82.4178402  25.4153247  98.3945980  82.0356172
  25.9087606  96.9761250  81.8450045  35.8519937 108.0624981  81.6979539
  35.0615481 108.0449120  81.1584039  35.6153292 108.6013274  82.4528576
  35.9717812 104.9117447  79.0112268  36.0215817 104.7467454  79.9527791
  35.8631735 104.0444706  78.6210149  24.8554071 107.5905993  66.3004357
  25.0042191 108.2741457  65.6471030  25.6620514 107.5711083  66.8153812
  33.2621574 100.8948375  80.3271575  34.1631437 100.7554840  80.0355572
  33.3369549 101.0602830  81.2669752  27.5964380  98.2715230  79.1724761
  26.7267689  98.5648796  78.9007349  27.8323860  98.8555675  79.8932025
  37.4736009 107.3314389  79.2554289  37.1820817 107.6944369  80.0917750
  36.8608140 106.6181397  79.0767621  38.6731691 104.8967268  71.7756860
  39.5078583 105.3357072  71.9394420  38.8090820 104.4205922  70.9565105
  35.7223197 102.4547003  77.7234347  36.1977319 102.6474649  76.9153199
  34.7988763 102.5106189  77.4777731  22.6106704 103.6171170  67.3065426
  22.3652746 102.7133500  67.5045636  22.7802618 103.6188321  66.3644904
  30.3003414  94.4894847  76.6890181  30.8185357  95.2255874  76.3636670
  29.9458546  94.7958840  77.5236940  21.8802351  99.3499528  64.8051587
  21.1871596  99.4243883  64.1491623  21.6354103  98.5859872  65.3273104
  30.5516008  90.9095129  72.2091078  30.8317762  90.2418318  72.8351504
  31.3366615  91.1024225  71.6965742  28.3549476 110.0854123  63.7716104
  27.7823443 110.7044310  63.3186576  28.9282270 110.6353485  64.3056026
  34.4224866  99.3312763  75.9562653  35.3742289  99.4310861  75.9774877
  34.2528317  98.5391032  76.4660737  32.4439246  96.4168346  76.1422054
  31.8489178  96.6973359  75.4468543  32.1588942  96.9062247  76.9138795
  31.5746736 110.3691273  64.9024686  32.5077409 110.3036835  65.1057562
  31.4869949 111.2047540  64.4439219  34.2034753 109.6857144  61.8628634
  34.1248384 109.3517007  62.7564392  35.0244420 110.1778912  61.8620106
  36.9012944 102.5518883  75.0704953  36.8689264 101.6134884  75.2564636
  37.5113568 102.6302920  74.3370778  28.7396275 101.4214936  61.1132157
  29.6855380 101.2921144  61.1820575  28.3610520 100.6829598  61.5901585
  37.0507432  99.3429926  75.1163236  36.5346481  98.5588383  74.9293165
  37.9347381  99.0148643  75.2809755  34.7118159  93.0870942  71.0759049
  34.5142980  92.7786030  71.9602380  35.3217865  93.8132581  71.2056978
  42.7189494 103.6134890  74.2110989  43.4492882 103.3520178  74.7718693
  42.1096439 102.8763612  74.2513057  40.8004791 101.7542752  74.8085441
  40.0737954 101.6198717  74.2001932  40.3852078 102.0619581  75.6142159
  28.6234967 105.4732682  82.5732814  29.5437977 105.6511281  82.7672860
  28.5884550 104.5288727  82.4212513  26.9239192  99.3464912  61.0487042
  26.0170647  99.0498025  61.1249756  27.2015173  99.0494730  60.1821328
  17.8417132 100.6671276  71.4986088  17.5219917  99.8136584  71.2060462
  17.2950561 100.8819854  72.2544056  21.6197040 103.3833717  75.2155595
  21.8383050 104.3150825  75.2343629  22.0322814 103.0241691  76.0010399
  28.5401258  93.8901802  67.2031283  27.7301986  93.5448887  67.5786529
  29.2285675  93.5809346  67.7918895  30.4691806  92.9679849  68.8255580
  31.0222845  93.3875302  69.4845603  30.7061892  92.0415597  68.8678536
  26.4924905  98.9566922  84.6058344  26.3921632  99.9061279  84.5370435
  26.2746447  98.6285161  83.7334414  25.6937977  96.2051848  61.1899021
  26.5557141  96.5306746  61.4494838  25.8788321  95.4183343  60.6772087
  17.7105392 104.2874187  73.4679210  17.0168864 103.8728140  72.9549164
  18.4578383 104.3294724  72.8712629  33.8470613  95.0780374  68.3334244
  33.2669282  95.7365178  67.9512297  33.5806546  94.2557719  67.9221662
  32.2974179  94.4785432  70.5355564  32.7973958  94.5901966  69.7269883
  32.9409787  94.1746485  71.1756373  26.3556175 102.3864061  83.4223405
  25.8723257 103.1864421  83.6287294  26.4417114 102.3972006  82.4690849
  19.6242135 104.2192441  71.3445225  19.6012823 104.3180128  70.3927108
  19.9342771 105.0657592  71.6662391  22.2829513 106.2768596  75.4591839
  23.2372766 106.2452538  75.3921771  22.0842036 105.8159220  76.2742065
  22.8728895 104.8469712  78.0262637  23.6921784 105.3413791  78.0497474
  23.1465703 103.9301680  77.9980204  32.6295491  97.2380464  67.3890592
  31.7421346  97.5230115  67.1710787  33.0449480  97.0774228  66.5417869
  35.9810027  97.2626985  71.1044932  36.7570417  97.7523438  71.3769548
  35.2558161  97.6885040  71.5616801  38.4182586  97.9754605  72.1618872
  39.0127077  97.7350341  71.4512180  38.4909170  97.2561735  72.7892409
  20.6379742 111.8188216  72.4762037  20.5034209 111.0588616  71.9100035
  20.2211804 112.5429115  72.0090826  31.7738705 107.0025139  61.4838612
  32.4774555 107.2075142  62.0996268  31.0501353 107.5701901  61.7487696
  32.6036515 102.7535000  67.6040883  32.5471716 103.2103552  66.7648515
  33.1564857 101.9925685  67.4263725  36.4141321  98.5424732  68.4291002
  36.1578255  98.1421368  69.2599210  35.7894189  99.2568526  68.3041141
  40.7253659 101.2820805  70.9362293  40.1653217 101.3513995  71.7093855
  40.1197162 101.1061790  70.2161790  23.7948867 112.7157533  72.6880480
  23.6781252 113.6602965  72.5859170  22.9741314 112.4131094  73.0766279
  33.6825402 107.4407668  63.5337072  34.5171006 107.0088867  63.3514547
  33.5209745 107.2689682  64.4613967  33.3371294 103.9439782  64.8993412
  33.2820098 103.7784053  63.9581856  32.7117349 104.6515814  65.0555601
  18.1263809  99.1807846  78.7254834  18.7722673  98.6706800  79.2142059
  17.9180960  99.9176528  79.2998259  30.6517201 106.2488693  84.2246974
  31.5208361 106.4229346  83.8633609  30.1723953 107.0683110  84.1022704
  26.6467420  93.4447891  64.4778730  26.6346089  94.3889730  64.6347001
  27.5390841  93.2618036  64.1838191  24.8203382 113.3685794  75.9036408
  25.7230628 113.4009405  76.2202903  24.5940752 112.4386245  75.9182744
  26.5756984 112.1216781  72.5646487  25.6252615 112.1218643  72.4510859
  26.8789470 111.3749516  72.0482521  30.4619539  90.0390667  68.7324667
  29.6951935  89.4849154  68.8781349  30.8730244  90.1112536  69.5938819
  22.4661300  96.3275463  82.8229848  23.3292762  95.9712268  83.0333173
  21.8926711  95.9889358  83.5105252  42.3109677 117.9577319  73.6292249
  42.9488087 117.8384067  72.9255589  42.1930520 118.9058163  73.6880201
  39.1199383 117.9104747  73.5653774  38.7817895 117.7945812  72.6774309
  39.9889151 117.5095913  73.5454780  34.9786199 119.7640224  69.5550665
  34.4151064 119.6730161  68.7866953  34.8638594 118.9440128  70.0353157
  39.6019166 119.0639599  79.5239979  39.5907807 118.6692397  78.6520483
  39.7639806 118.3305672  80.1173751  32.5250631 121.2591415  72.3934885
  33.3171923 120.9182240  71.9781185  32.7647281 121.3686391  73.3137039
  40.5585758 123.4311192  64.8665130  39.9073737 124.0165272  64.4799143
  41.3530121 123.9617386  64.9260167  34.4841385 120.5200329  65.2652264
  35.2572261 119.9729316  65.1265140  34.8366784 121.3844578  65.4766725
  36.3226427 121.8476711  78.4719163  36.0316293 122.7522342  78.3565830
  36.9583412 121.8893239  79.1863233  37.2482634 119.2253560  75.0620523
  37.8446207 119.0009582  74.3477486  37.3057606 118.4838305  75.6645971
  36.8207663 116.6792995  62.8970714  37.0733183 116.1574516  62.1354177
  35.8832222 116.5159140  62.9997398  41.8650946 115.6828773  70.7045457
  42.6514035 115.2648196  70.3535874  42.1289650 116.5874865  70.8727106
  42.0361023 121.1201624  65.4034114  41.4006856 121.1936250  66.1155019
  41.7058429 121.7095222  64.7253193  47.2659373 115.6204006  71.6078436
  47.9984545 115.0503223  71.8416265  46.5098728 115.2325607  72.0484941
  36.5403951 118.5821101  65.0995089  36.4240210 117.9066004  65.7676173
  36.6506211 118.0953475  64.2827242  38.8835492 118.0431248  68.8041778
  38.5193700 117.5161869  69.5154700  39.7402608 117.6529717  68.6308264
  44.7884793 109.3325581  76.0673044  44.4568118 110.2020991  75.8434259
  44.1930406 109.0161865  76.7467075  38.5240979 113.0721148  63.8003127
  38.6915382 113.9401384  64.1673598  38.3338148 113.2348429  62.8764416
  41.2816313 121.5338127  75.4668957  40.9817036 122.4363165  75.3584764
  40.9367372 121.2670310  76.3190110  34.7328794 117.9851923  71.5005661
  33.8079290 117.8528137  71.7083353  34.9813207 118.7646143  71.9975604
  44.6813456 114.0520667  73.1466394  43.7730334 113.9836075  72.8525155
  44.6301052 114.5292612  73.9748220  38.5030200 115.5278805  64.7849794
  38.3829825 115.9735856  65.6235274  37.8082789 115.8764123  64.2263332
  32.0937605 117.6285197  72.3349451  32.2229986 117.8819676  73.2488862
  31.4135056 118.2212905  72.0154106  36.2637092 128.2982447  68.4339925
  36.1861122 129.2490272  68.5128405  35.6598736 127.9528319  69.0914851
  38.7554322 115.4710312  81.0901292  37.9787656 116.0304232  81.0804156
  39.3944885 115.9567095  81.6116162  46.5475103 112.2537105  74.9244268
  45.9049483 112.5469638  74.2784063  46.0430031 112.1390025  75.7297465
  44.2015266 116.0000278  65.6130128  45.1133122 116.2327665  65.4377825
  43.6924913 116.5837322  65.0505206  37.0100694 118.2795766  80.6519259
  37.7515379 118.8180810  80.3754082  36.3037680 118.9062054  80.8090810
  42.4856034 120.4224906  79.2491420  42.8939390 119.9807317  78.5046052
  41.7633296 119.8477534  79.5025613  38.8387104 115.3597513  76.6224977
  39.6848299 115.7836926  76.7659626  38.7785742 114.7031137  77.3163540
  42.8084849 120.9826097  73.0043709  42.1793711 121.1471811  72.3019777
  42.4210511 121.3967706  73.7754673  46.6874081 121.9180535  70.3588073
  46.0025119 122.2979436  69.8085106  46.7717930 122.5275861  71.0920021
  41.9886549 113.0201881  78.2806151  41.7447481 113.7743942  77.7440426
  42.2646480 113.3987229  79.1153398  43.9425012 119.5640494  76.9583416
  44.1541907 120.2072253  76.2817797  43.8954760 118.7302810  76.4905346
  41.5451241 112.1758314  73.8619988  40.6835720 112.4739568  74.1536726
  41.5713676 112.3928713  72.9301021  38.3612811 120.7200505  70.2693794
  38.8251156 120.9988208  69.4798417  38.0969609 119.8183949  70.0866885
  35.2536892 120.2671986  73.2073557  35.8238249 120.6959255  72.5691042
  35.8445003 119.9854571  73.9057743  37.2981697 116.8423657  67.0783359
  38.0005740 117.2944701  67.5457286  36.9662325 116.2007476  67.7063252
  35.7462058 115.4335414  81.4534569  35.1160719 116.1151695  81.6869965
  35.6398146 115.3218495  80.5087707  31.0407031 115.1007210  72.3800493
  30.2506085 115.3564738  71.9040603  31.5318278 115.9155548  72.4852533
  45.0570840 122.4412449  75.1305774  45.8788284 122.0392636  74.8488455
  45.0533243 122.3380683  76.0821889  32.9921776 115.4651789  69.3383970
  32.1952939 115.5770483  69.8567465  32.7647368 115.8038441  68.4724860
  38.8227444 121.9896492  77.2866484  38.8871876 122.4516900  78.1224656
  38.1138367 121.3593857  77.4148794  29.3244734 115.3537700  74.8115484
  29.5752772 116.2384710  75.0773060  29.8604282 115.1742302  74.0390575
  53.1476833 118.7851198  71.4790745  52.3940542 118.2158596  71.3234750
  53.2824374 118.7513862  72.4261380  38.5375461 123.6564600  67.1545464
  38.4021136 124.5016136  67.5830312  39.0785274 123.8583877  66.3911398
  35.0242801 109.7356180  83.8159820  34.6309746 109.1822378  84.4907464
  35.8408941 110.0466758  84.2066337  31.9904859 121.1740038  67.7273390
  32.5029379 121.9683288  67.8778954  32.6427571 120.4766328  67.6606991
  33.7999743 124.2905794  69.8096143  33.9766372 125.2123759  69.6217127
  34.5956577 123.9764213  70.2390523  37.9410762 111.1514059  81.4080076
  38.6820475 111.7521212  81.3284539  38.1728685 110.4091697  80.8498119
  33.0852100 116.3370426  79.6858306  32.9705615 115.4355683  79.9865405
  32.2296618 116.5834123  79.3343122  40.1643938 124.2788166  81.2845807
  39.7207792 123.4924545  80.9666711  40.8261151 124.4667317  80.6189697
  34.9231059 125.8083968  75.8106485  35.4738484 125.6801031  75.0383479
  34.0842535 126.1078857  75.4601378  42.2625176 124.5590966  79.3127208
  42.2443651 125.3799847  78.8207477  43.1845096 124.4345041  79.5377349
  38.7198230 122.0735096  80.1550716  39.2526567 121.3123384  79.9250024
  38.1912311 121.7808748  80.8974871  41.8867925 107.1795162  75.6844358
  41.5432194 108.0696803  75.6083469  42.2546887 106.9896819  74.8213943
  29.9553775 119.5028692  68.5032960  30.7928997 119.9125701  68.2866668
  30.1332043 118.5628134  68.4733154  41.8518208 117.1703773  64.1916793
  41.3364831 117.9408377  64.4305180  41.5795516 116.4968909  64.8149854
  39.4365319 112.0153474  69.2502031  38.5806915 111.6260324  69.0707670
  39.8492270 112.0945434  68.3901817  40.9664465 109.5499817  73.6493591
  40.4629261 109.5129952  72.8361396  41.2595072 110.4592560  73.7090248
  37.2107351 109.6338547  72.6559773  38.0760348 109.4381355  72.2965662
  37.2784860 109.4048898  73.5829130  46.8252482 119.9236127  66.1269967
  46.0481924 119.5847287  65.6825129  47.5043963 119.9288751  65.4524932
  41.6404511 115.0430865  66.0176574  41.3354646 115.3577014  66.8686717
  42.5934953 115.1212285  66.0603907  40.0850943 121.2021088  67.6669528
  39.5572304 120.4673848  67.3542766  39.5838445 121.9795765  67.4209497
  45.0643789 119.3970109  72.7836575  44.4067463 120.0869370  72.8716703
  45.8684188 119.7866541  73.1270561  34.8169670 111.8640754  70.0276140
  35.3913422 111.6415936  69.2949333  35.4040653 111.9329449  70.7804741
  43.8749247 117.7514481  70.8340516  44.3881129 118.3844473  71.3362226
  44.5250471 117.1515677  70.4683876  35.1439257 113.8945216  64.0472025
  34.3076570 114.2319902  64.3681300  35.0044027 113.7594195  63.1099162
  37.1192338 108.7382003  68.7551209  36.4656750 108.4231021  68.1307824
  37.0772812 108.1157744  69.4811032  38.2303543 119.0201298  60.6704501
  37.3230604 118.7890552  60.8695650  38.7274575 118.2238918  60.8578483
  41.1371622 127.7298806  63.5901187  40.4633320 128.0330502  64.1986145
  41.5237444 128.5327886  63.2406644  40.3530078 115.2263937  73.0798857
  39.4352640 115.4478884  72.9220545  40.7690222 115.3010247  72.2210564
  41.1365126 116.6255353  68.2101537  41.8836945 117.1376750  67.9008659
  41.4056716 116.3039405  69.0705931  39.4091776 119.1213893  65.1928491
  38.5002995 118.8372926  65.2900961  39.4386860 119.5412972  64.3331798
  44.6411044 122.7320483  68.9619659  44.1873371 121.8911393  69.0184849
  44.0105010 123.3681881  69.2994439  43.5843963 113.6612469  70.1920326
  42.8466720 113.1489855  70.5230569  43.8370737 113.2212850  69.3803603
  43.0843983 124.5696980  69.8969477  43.3766957 125.1302037  69.1781843
  43.5942603 124.8625541  70.6522636  43.6855590 106.4388721  70.7862096
  43.9914467 105.5786084  70.4988011  44.4108195 107.0306341  70.5861090
  29.9779947 116.8419407  69.1743694  29.7804346 116.2488768  68.4494760
  29.4226611 116.5371618  69.8919632  37.9576670 116.7342514  71.2938287
  38.0125280 115.7816350  71.2180763  37.1467872 116.8901953  71.7779585
  39.1067864 120.6622637  62.5316570  38.6687294 119.9458496  62.0722207
  39.8478305 120.8898752  61.9701661  35.8969030 115.3519574  69.0528666
  35.0836896 115.6513744  69.4593858  36.3928024 114.9575262  69.7703148
  38.0477608 125.3477331  70.9862930  38.0053787 125.5738177  70.0571462
  38.9640307 125.1140705  71.1348731  41.4943242 115.8161398  77.8843559
  41.8492630 116.0432871  78.7438025  42.1415373 116.1479775  77.2620815
  47.2240979 118.9379834  68.5892888  47.0858877 119.1281430  67.6614078
  46.8677198 119.6999217  69.0460940  35.3883105 112.9237929  74.6689901
  36.0282484 112.7826688  73.9712864  34.5560635 112.6372443  74.2928502
  47.2510358 121.0056361  73.6004160  47.6846865 120.9131650  74.4487214
  47.9641939 120.9813862  72.9624176  36.1643409 122.2240360  70.7824893
  36.9584007 121.7290680  70.5807468  35.4535101 121.6958223  70.4192599
  40.9838253 124.6058455  75.1337261  41.0375276 125.1749391  75.9014976
  40.1153035 124.7760340  74.7691298  32.4726172 116.3683441  66.8584646
  31.5423760 116.3067897  67.0754608  32.5683644 115.8459394  66.0621287
  32.3911721 112.8938254  69.4462887  32.6518539 113.8083587  69.3372048
  33.2128894 112.4262697  69.5959500  33.8636647 114.3076011  76.6161712
  34.5359700 114.0993373  75.9674361  33.0366433 114.1098097  76.1766944
  48.1125908 121.0480062  76.1337045  48.3061798 121.9525872  76.3796320
  48.0126526 120.5887481  76.9675630  39.7662219 110.9337952  78.6327373
  39.1190134 111.6327902  78.5391849  40.5363234 111.3674096  79.0003621
  43.1741017 121.1986804  81.7077926  43.0226523 120.9697356  80.7908010
  43.1645696 122.1557406  81.7209271  39.9426353 118.7718717  76.6924192
  40.8718413 118.9229877  76.5193160  39.5217383 118.8602738  75.8372839
  38.7414685 122.7969382  74.4622730  38.6025770 122.4288166  75.3348668
  37.9529281 123.3117021  74.2906688  39.3362837 127.8978478  65.8048267
  39.5114592 127.4266521  66.6193889  38.6495625 128.5244244  66.0329527
  40.2919900 122.1750984  71.8511568  39.9569733 122.1351754  72.7469218
  39.7923846 121.5095700  71.3781978  34.2664144 117.5818614  77.3764149
  34.1283942 116.8498853  77.9775688  35.1769067 117.4927514  77.0948337
  43.2279092 119.5207019  62.1248627  42.6108262 118.7953847  62.0281680
  42.7595580 120.2816379  61.7815702  36.8946445 117.2938574  76.8647829
  37.6046063 116.6531766  76.8234447  36.8515753 117.5451469  77.7874009
  44.8833223 124.2305927  79.7854408  44.8245769 123.5465147  79.1184991
  45.2852742 124.9724917  79.3335034  35.6075379 114.2803792  78.6843468
  35.0712736 113.8294530  79.3365064  35.0192087 114.4149700  77.9413932
  33.9023922 131.0467841  72.5788127  34.1420520 131.6786365  73.2567145
  33.0593119 130.6955881  72.8653486  35.0177637 113.7392443  61.2469932
  34.1407104 113.6181244  60.8832178  35.4935391 112.9478521  60.9948820
  44.8850631 122.1945511  78.0168388  43.9977409 121.8571433  78.1394786
  45.4549182 121.4628542  78.2537153  26.5379778 118.5269603  71.3411439
  27.2250817 118.2131333  70.7532454  26.3827906 119.4310967  71.0678690
  31.3414500 113.4159799  75.7696463  31.2572689 112.8085469  75.0346873
  30.5197206 113.9068818  75.7705959  38.4151784 126.8546963  74.9829631
  38.3421955 127.6601935  75.4948935  37.9729177 127.0538929  74.1577652
  38.2041564 126.0918733  68.4932452  37.4209085 126.6340414  68.5870677
  38.9034309 126.6092713  68.8926693  41.5138214 111.9013363  71.1366658
  42.0106913 111.1483325  70.8167728  40.7425195 111.9377679  70.5709867
  49.3667971 117.6053728  72.7784949  49.3557847 118.4878444  72.4078882
  48.4985350 117.2525279  72.5839486  40.8750467 126.7533797  77.1387789
  41.5878440 127.3881262  77.0663691  40.3840496 126.8497663  76.3227791
  42.5967994 120.6585050  68.7105081  41.6624273 120.7786512  68.5409785
  42.7744663 119.7557517  68.4465091  38.0973182 114.0430746  70.8638342
  37.7270970 113.4901786  71.5519248  38.5932275 113.4388879  70.3113342
  45.9840546 116.5002369  69.2455115  46.4500998 117.3330361  69.1715418
  46.4348046 116.0347351  69.9500374  35.9262381 124.5028241  77.9593360
  36.6271840 125.1364724  78.1122754  35.4557496 124.8442972  77.1988999
  44.0516777 122.8446191  66.2441267  44.3276621 122.7302785  67.1535141
  43.1821276 122.4463675  66.2053440  43.9557208 108.8682956  73.2846017
  43.0420288 109.0987183  73.4528223  44.3850310 108.9521400  74.1360049
  43.7263667 117.0572848  75.7845911  43.0735117 117.3048756  75.1298363
  44.1044047 116.2436986  75.4508388  40.6870841 127.0932541  69.8874081
  40.8693235 126.2754197  70.3501833  41.5103827 127.3100234  69.4498971
  41.0213006 126.0200727  67.1489129  41.5500773 125.5093181  66.5359291
  41.2841226 125.7043257  68.0134662  39.7751240 117.7992659  82.2711948
  39.0991877 117.6986789  82.9414323  40.5978874 117.6431873  82.7347945
  31.5230099 124.0364596  74.8924463  32.1083536 123.2908284  75.0252367
  31.3254937 124.3468553  75.7761127  34.3768754 127.0715843  69.9086905
  33.7079129 127.5561971  69.4250945  34.2381624 127.3185064  70.8230284
  26.1147754 116.6070196  73.6128906  26.1531853 116.0733787  74.4066024
  25.6088047 116.0805402  72.9939883  38.5174023 129.1059587  76.5069564
  39.0692331 129.2691208  77.2718649  38.8580216 129.6964025  75.8349588
  33.4938516 111.4534737  77.1091448  33.5579843 112.3149567  76.6968846
  33.4305636 110.8408738  76.3763807  32.9690789 113.5257869  80.7564483
  33.5962827 113.1434946  81.3702007  32.1118707 113.3072071  81.1220175
  43.3684897 123.9320844  82.3618218  43.9124801 124.5450803  81.8673173
  42.7871742 124.4900423  82.8785231  29.7456331 115.3334298  66.6882837
  30.0409772 114.4244977  66.6349891  28.8444367 115.3122038  66.3663840
  41.6542410 127.0541562  73.4933246  41.5293550 126.2531302  72.9844191
  42.3121501 127.5487756  73.0047216  33.2750578 113.4090295  72.6710386
  32.5537164 114.0226262  72.5317859  34.0643834 113.9448060  72.5927032
  43.7177318 124.8550582  75.1212796  42.7707654 124.7355934  75.0491123
  44.0660092 123.9673080  75.2039057  36.0776892 110.7444721  78.9451038
  36.6011294 110.9907018  79.7077347  35.8589225 111.5764756  78.5254175
  31.4744173 113.0148396  66.8122163  31.1456879 112.1345775  66.6297269
  31.8283544 112.9596065  67.6998552  40.7223752 124.6503299  71.3217148
  40.5748714 123.7220006  71.5024718  41.5477245 124.6723389  70.8374223
  34.5885996 113.3021366  67.1797640  34.9282069 113.8307287  66.4576249
  35.0358117 113.6401772  67.9556207  44.3257874 125.4731857  72.4082021
  45.2504421 125.2674719  72.2706472  44.1573177 125.2248258  73.3171362
  37.2829437 111.6858416  76.6300708  36.9426257 110.8866229  77.0321388
  36.5768443 111.9860127  76.0577542  37.9345909 108.7707729  75.0828031
  38.7571978 108.2968207  74.9606922  38.1783972 109.5498213  75.5826718
  36.5754143 111.7995987  65.3790933  37.2962506 112.1777240  64.8754650
  35.9519447 112.5184864  65.4825911  40.7185266 112.5041136  66.3149265
  40.9348880 113.3865774  66.0138094  40.2379333 112.1127350  65.5854907
  35.4584487 115.4626849  72.8920010  35.3129068 115.7767153  73.7844291
  34.9809691 116.0811750  72.3390909  37.3180870 112.4529397  72.9400900
  37.3042439 111.5570491  72.6033197  38.0353298 112.4600061  73.5739186
  39.1707001 112.8866738  74.9854027  38.9124779 113.8083808  74.9838357
  38.6392041 112.4897172  75.6754491  44.1153190 125.9917525  67.7644112
  44.2890067 125.4263947  67.0117965  44.6082081 126.7918420  67.5823602
  29.9330150 118.0032194  75.8307671  29.3883618 118.7792002  75.9627945
  30.8109500 118.3502998  75.6726793  36.7217766 111.3343778  68.2088470
  36.8433677 110.4060424  68.4079357  36.4319809 111.3482464  67.2966785
  39.5908957 109.0198688  71.3455189  39.6130654 109.0838021  70.3907169
  40.0077016 108.1803197  71.5395696  49.9692581 118.7553948  69.3834412
  50.4123727 118.0061273  68.9853535  49.0919091 118.7464084  69.0008144
  45.1028362 125.3084289  64.8641011  45.7979267 125.9290982  65.0828325
  45.4451512 124.4579640  65.1393388  30.7196172 117.1302090  78.7237828
  29.9777908 117.2784725  79.3102458  30.3988916 117.3910356  77.8604577
  47.0019785 122.7583995  66.3928341  47.5271110 123.0971267  65.6677661
  46.9142138 121.8231010  66.2091476  38.6639834 126.6718068  78.5218218
  38.9726961 126.4267215  79.3940918  39.4615316 126.8764707  78.0337088
  38.6860446 128.8255978  70.7523595  38.2465436 128.3332357  71.4456451
  39.4368563 128.2828946  70.5115670  31.1652785 125.0167519  70.7548223
  31.9910805 124.7171291  70.3746866  30.8146837 124.2475141  71.2038011
  36.1334318 124.3693987  72.8245896  35.5114328 123.7064692  72.5248124
  36.8039185 124.3955119  72.1419544  29.3661390 122.9353845  71.7137156
  28.5293299 122.5076020  71.5321157  29.3385036 123.1286289  72.6507947
  36.2058846 112.8475775  82.4178402  36.2547001 113.7237898  82.0356172
  36.7481360 112.3053168  81.8450045  46.6913692 123.3916898  81.6979539
  45.9009235 123.3741037  81.1584039  46.4547046 123.9305192  82.4528576
  46.8111567 120.2409365  79.0112268  46.8609571 120.0759372  79.9527791
  46.7025490 119.3736624  78.6210149  35.6947825 122.9197910  66.3004357
  35.8435946 123.6033375  65.6471030  36.5014269 122.9003000  66.8153812
  44.1015329 116.2240293  80.3271575  45.0025192 116.0846758  80.0355572
  44.1763303 116.3894748  81.2669752  38.4358134 113.6007147  79.1724761
  37.5661444 113.8940714  78.9007349  38.6717615 114.1847592  79.8932025
  48.3129763 122.6606306  79.2554289  48.0214572 123.0236287  80.0917750
  47.7001895 121.9473315  79.0767621  49.5125446 120.2259186  71.7756860
  50.3472337 120.6648990  71.9394420  49.6484575 119.7497839  70.9565105
  46.5616952 117.7838921  77.7234347  47.0371073 117.9766567  76.9153199
  45.6382517 117.8398107  77.4777731  33.4500458 118.9463088  67.3065426
  33.2046500 118.0425418  67.5045636  33.6196373 118.9480238  66.3644904
  41.1397168 109.8186764  76.6890181  41.6579112 110.5547791  76.3636670
  40.7852301 110.1250758  77.5236940  32.7196106 114.6791446  64.8051587
  32.0265351 114.7535801  64.1491623  32.4747858 113.9151789  65.3273104
  41.3909762 106.2387047  72.2091078  41.6711516 105.5710236  72.8351504
  42.1760369 106.4316143  71.6965742  39.1943231 125.4146041  63.7716104
  38.6217198 126.0336228  63.3186576  39.7676024 125.9645403  64.3056026
  45.2618621 114.6604681  75.9562653  46.2136044 114.7602779  75.9774877
  45.0922071 113.8682949  76.4660737  43.2833000 111.7460264  76.1422054
  42.6882932 112.0265277  75.4468543  42.9982697 112.2354165  76.9138795
  42.4140491 125.6983191  64.9024686  43.3471164 125.6328753  65.1057562
  42.3263703 126.5339458  64.4439219  45.0428507 125.0149061  61.8628634
  44.9642139 124.6808925  62.7564392  45.8638174 125.5070829  61.8620106
  47.7406698 117.8810801  75.0704953  47.7083019 116.9426801  75.2564636
  48.3507322 117.9594837  74.3370778  39.5790029 116.7506854  61.1132157
  40.5249134 116.6213062  61.1820575  39.2004274 116.0121516  61.5901585
  47.8901187 114.6721844  75.1163236  47.3740236 113.8880301  74.9293165
  48.7741135 114.3440561  75.2809755  45.5511914 108.4162860  71.0759049
  45.3536735 108.1077948  71.9602380  46.1611619 109.1424499  71.2056978
  53.5583248 118.9426807  74.2110989  54.2886637 118.6812096  74.7718693
  52.9490194 118.2055529  74.2513057  51.6398545 117.0834670  74.8085441
  50.9131709 116.9490635  74.2001932  51.2245832 117.3911499  75.6142159
  39.4628722 120.8024600  82.5732814  40.3831731 120.9803199  82.7672860
  39.4278305 119.8580645  82.4212513  37.7632946 114.6756830  61.0487042
  36.8564402 114.3789943  61.1249756  38.0408927 114.3786648  60.1821328
  28.6810887 115.9963193  71.4986088  28.3613671 115.1428502  71.2060462
  28.1344315 116.2111772  72.2544056  32.4590794 118.7125634  75.2155595
  32.6776804 119.6442742  75.2343629  32.8716568 118.3533609  76.0010399
  39.3795012 109.2193720  67.2031283  38.5695740 108.8740805  67.5786529
  40.0679429 108.9101263  67.7918895  41.3085560 108.2971767  68.8255580
  41.8616599 108.7167220  69.4845603  41.5455647 107.3707515  68.8678536
  37.3318660 114.2858840  84.6058344  37.2315387 115.2353197  84.5370435
  37.1140202 113.9577079  83.7334414  36.5331731 111.5343765  61.1899021
  37.3950895 111.8598664  61.4494838  36.7182075 110.7475261  60.6772087
  28.5499147 119.6166105  73.4679210  27.8562618 119.2020058  72.9549164
  29.2972138 119.6586641  72.8712629  44.6864368 110.4072292  68.3334244
  44.1063037 111.0657096  67.9512297  44.4200300 109.5849636  67.9221662
  43.1367934 109.8077349  70.5355564  43.6367712 109.9193884  69.7269883
  43.7803542 109.5038402  71.1756373  37.1949930 117.7155979  83.4223405
  36.7117011 118.5156339  83.6287294  37.2810869 117.7263924  82.4690849
  30.4635889 119.5484359  71.3445225  30.4406577 119.6472046  70.3927108
  30.7736526 120.3949509  71.6662391  33.1223267 121.6060514  75.4591839
  34.0766521 121.5744456  75.3921771  32.9235791 121.1451137  76.2742065
  33.7122649 120.1761630  78.0262637  34.5315538 120.6705708  78.0497474
  33.9859457 119.2593598  77.9980204  43.4689246 112.5672382  67.3890592
  42.5815101 112.8522033  67.1710787  43.8843235 112.4066145  66.5417869
  46.8203782 112.5918903  71.1044932  47.5964172 113.0815355  71.3769548
  46.0951916 113.0176957  71.5616801  49.2576340 113.3046522  72.1618872
  49.8520831 113.0642258  71.4512180  49.3302924 112.5853653  72.7892409
  31.4773496 127.1480133  72.4762037  31.3427964 126.3880534  71.9100035
  31.0605558 127.8721033  72.0090826  42.6132459 122.3317057  61.4838612
  43.3168309 122.5367059  62.0996268  41.8895108 122.8993819  61.7487696
  43.4430269 118.0826918  67.6040883  43.3865471 118.5395469  66.7648515
  43.9958612 117.3217603  67.4263725  47.2535075 113.8716650  68.4291002
  46.9972009 113.4713286  69.2599210  46.6287943 114.5860444  68.3041141
  51.5647413 116.6112723  70.9362293  51.0046971 116.6805912  71.7093855
  50.9590916 116.4353708  70.2161790  34.6342622 128.0449450  72.6880480
  34.5175006 128.9894883  72.5859170  33.8135068 127.7423012  73.0766279
  44.5219156 122.7699586  63.5337072  45.3564760 122.3380784  63.3514547
  44.3603499 122.5981600  64.4613967  44.1765049 119.2731699  64.8993412
  44.1213852 119.1075971  63.9581856  43.5511104 119.9807732  65.0555601
  28.9657564 114.5099764  78.7254834  29.6116427 113.9998718  79.2142059
  28.7574715 115.2468445  79.2998259  41.4910956 121.5780611  84.2246974
  42.3602115 121.7521263  83.8633609  41.0117707 122.3975028  84.1022704
  37.4861174 108.7739808  64.4778730  37.4739844 109.7181648  64.6347001
  38.3784596 108.5909954  64.1838191  35.6597136 128.6977712  75.9036408
  36.5624383 128.7301322  76.2202903  35.4334506 127.7678163  75.9182744
  37.4150738 127.4508699  72.5646487  36.4646369 127.4510560  72.4510859
  37.7183224 126.7041433  72.0482521  41.3013294 105.3682585  68.7324667
  40.5345689 104.8141072  68.8781349  41.7123998 105.4404454  69.5938819
  33.3055055 111.6567381  82.8229848  34.1686516 111.3004186  83.0333173
  32.7320465 111.3181276  83.5105252  53.1503432 133.2869237  73.6292249
  53.7881841 133.1675984  72.9255589  53.0324274 134.2350081  73.6880201
  49.9593138 133.2396665  73.5653774  49.6211649 133.1237730  72.6774309
  50.8282906 132.8387830  73.5454780  45.8179953 135.0932142  69.5550665
  45.2544819 135.0022078  68.7866953  45.7032349 134.2732046  70.0353157
  50.4412921 134.3931517  79.5239979  50.4301562 133.9984315  78.6520483
  50.6033560 133.6597589  80.1173751  43.3644385 136.5883333  72.3934885
  44.1565677 136.2474158  71.9781185  43.6041036 136.6978308  73.3137039
  51.3979512 138.7603109  64.8665130  50.7467492 139.3457190  64.4799143
  52.1923875 139.2909304  64.9260167  45.3235139 135.8492246  65.2652264
  46.0966015 135.3021233  65.1265140  45.6760538 136.7136496  65.4766725
  47.1620182 137.1768629  78.4719163  46.8710048 138.0814260  78.3565830
  47.7977166 137.2185156  79.1863233  48.0876389 134.5545477  75.0620523
  48.6839961 134.3301500  74.3477486  48.1451360 133.8130223  75.6645971
  47.6601417 132.0084913  62.8970714  47.9126938 131.4866434  62.1354177
  46.7225976 131.8451058  62.9997398  52.7044700 131.0120691  70.7045457
  53.4907789 130.5940114  70.3535874  52.9683404 131.9166783  70.8727106
  52.8754777 136.4493541  65.4034114  52.2400610 136.5228168  66.1155019
  52.5452184 137.0387140  64.7253193  58.1053127 130.9495924  71.6078436
  58.8378299 130.3795141  71.8416265  57.3492483 130.5617525  72.0484941
  47.3797706 133.9113018  65.0995089  47.2633964 133.2357922  65.7676173
  47.4899966 133.4245392  64.2827242  49.7229247 133.3723166  68.8041778
  49.3587454 132.8453787  69.5154700  50.5796363 132.9821635  68.6308264
  55.6278547 124.6617498  76.0673044  55.2961872 125.5312909  75.8434259
  55.0324161 124.3453782  76.7467075  49.3634734 128.4013065  63.8003127
  49.5309136 129.2693302  64.1673598  49.1731903 128.5640347  62.8764416
  52.1210067 136.8630044  75.4668957  51.8210790 137.7655083  75.3584764
  51.7761127 136.5962227  76.3190110  45.5722548 133.3143841  71.5005661
  44.6473045 133.1820055  71.7083353  45.8206962 134.0938060  71.9975604
  55.5207211 129.3812584  73.1466394  54.6124088 129.3127993  72.8525155
  55.4694807 129.8584529  73.9748220  49.3423955 130.8570723  64.7849794
  49.2223580 131.3027774  65.6235274  48.6476543 131.2056040  64.2263332
  42.9331360 132.9577115  72.3349451  43.0623741 133.2111594  73.2488862
  42.2528811 133.5504823  72.0154106  49.5948077 130.8002230  81.0901292
  48.8181411 131.3596150  81.0804156  50.2338640 131.2859013  81.6116162
  57.3868857 127.5829023  74.9244268  56.7443237 127.8761556  74.2784063
  56.8823786 127.4681943  75.7297465  55.0409021 131.3292196  65.6130128
  55.9526877 131.5619583  65.4377825  54.5318668 131.9129240  65.0505206
  47.8494449 133.6087683  80.6519259  48.5909133 134.1472727  80.3754082
  47.1431434 134.2353972  80.8090810  53.3249789 135.7516824  79.2491420
  53.7333145 135.3099234  78.5046052  52.6027050 135.1769451  79.5025613
  49.6780859 130.6889431  76.6224977  50.5242054 131.1128844  76.7659626
  49.6179496 130.0323055  77.3163540  53.6478603 136.3118014  73.0043709
  53.0187466 136.4763729  72.3019777  53.2604265 136.7259624  73.7754673
  57.5267835 137.2472452  70.3588073  56.8418873 137.6271354  69.8085106
  57.6111684 137.8567779  71.0920021  52.8280304 128.3493799  78.2806151
  52.5841236 129.1035859  77.7440426  53.1040234 128.7279147  79.1153398
  54.7818767 134.8932411  76.9583416  54.9935662 135.5364171  76.2817797
  54.7348515 134.0594728  76.4905346  52.3844996 127.5050232  73.8619988
  51.5229475 127.8031485  74.1536726  52.4107430 127.7220631  72.9301021
  49.2006565 136.0492422  70.2693794  49.6644911 136.3280125  69.4798417
  48.9363363 135.1475867  70.0866885  46.0930646 135.5963904  73.2073557
  46.6632003 136.0251172  72.5691042  46.6838758 135.3146489  73.9057743
  48.1375451 132.1715575  67.0783359  48.8399494 132.6236619  67.5457286
  47.8056080 131.5299394  67.7063252  46.5855813 130.7627331  81.4534569
  45.9554473 131.4443612  81.6869965  46.4791901 130.6510413  80.5087707
  41.8800785 130.4299128  72.3800493  41.0899839 130.6856656  71.9040603
  42.3712032 131.2447465  72.4852533  55.8964595 137.7704367  75.1305774
  56.7182038 137.3684554  74.8488455  55.8926997 137.6672601  76.0821889
  43.8315530 130.7943707  69.3383970  43.0346694 130.9062401  69.8567465
  43.6041123 131.1330359  68.4724860  49.6621198 137.3188410  77.2866484
  49.7265631 137.7808817  78.1224656  48.9532122 136.6885775  77.4148794
  40.1638488 130.6829618  74.8115484  40.4146526 131.5676628  75.0773060
  40.6998036 130.5034220  74.0390575  63.9870588 134.1143115  71.4790745
  63.2334296 133.5450513  71.3234750  64.1218129 134.0805780  72.4261380
  49.3769216 138.9856517  67.1545464  49.2414891 139.8308053  67.5830312
  49.9179028 139.1875795  66.3911398  45.8636555 125.0648097  83.8159820
  45.4703501 124.5114296  84.4907464  46.6802696 125.3758676  84.2066337
  42.8298613 136.5031956  67.7273390  43.3423134 137.2975206  67.8778954
  43.4821326 135.8058246  67.6606991  48.7804516 126.4805976  81.4080076
  49.5214230 127.0813130  81.3284539  49.0122439 125.7383614  80.8498119
  43.9245854 131.6662344  79.6858306  43.8099369 130.7647601  79.9865405
  43.0690372 131.9126040  79.3343122  51.0037692 139.6080084  81.2845807
  50.5601546 138.8216463  80.9666711  51.6654906 139.7959234  80.6189697
  53.1018930 139.8882884  79.3127208  53.0837406 140.7091765  78.8207477
  54.0238850 139.7636959  79.5377349  49.5591984 137.4027013  80.1550716
  50.0920321 136.6415302  79.9250024  49.0306065 137.1100665  80.8974871
  52.7261679 122.5087079  75.6844358  52.3825949 123.3988721  75.6083469
  53.0940642 122.3188737  74.8213943  40.7947530 134.8320610  68.5032960
  41.6322752 135.2417618  68.2866668  40.9725798 133.8920052  68.4733154
  52.6911962 132.4995690  64.1916793  52.1758585 133.2700295  64.4305180
  52.4189270 131.8260827  64.8149854  50.2759073 127.3445391  69.2502031
  49.4200669 126.9552242  69.0707670  50.6886025 127.4237352  68.3901817
  51.8058220 124.8791735  73.6493591  51.3023015 124.8421870  72.8361396
  52.0988827 125.7884477  73.7090248  48.0501106 124.9630464  72.6559773
  48.9154102 124.7673273  72.2965662  48.1178614 124.7340816  73.5829130
  57.6646236 135.2528045  66.1269967  56.8875679 134.9139205  65.6825129
  58.3437717 135.2580668  65.4524932  52.4798265 130.3722783  66.0176574
  52.1748401 130.6868932  66.8686717  53.4328707 130.4504202  66.0603907
  50.9244697 136.5313006  67.6669528  50.3966059 135.7965765  67.3542766
  50.4232200 137.3087682  67.4209497  55.9037543 134.7262026  72.7836575
  55.2461217 135.4161288  72.8716703  56.7077942 135.1158458  73.1270561
  45.6563425 127.1932672  70.0276140  46.2307177 126.9707854  69.2949333
  46.2434407 127.2621367  70.7804741  54.7143002 133.0806399  70.8340516
  55.2274884 133.7136391  71.3362226  55.3644226 132.4807595  70.4683876
  45.9833012 129.2237133  64.0472025  45.1470324 129.5611820  64.3681300
  45.8437781 129.0886113  63.1099162  47.9586092 124.0673921  68.7551209
  47.3050505 123.7522938  68.1307824  47.9166566 123.4449662  69.4811032
  49.0697297 134.3493216  60.6704501  48.1624359 134.1182470  60.8695650
  49.5668329 133.5530835  60.8578483  51.1923833 130.5555855  73.0798857
  50.2746394 130.7770802  72.9220545  51.6083976 130.6302165  72.2210564
  51.9758880 131.9547270  68.2101537  52.7230699 132.4668668  67.9008659
  52.2450470 131.6331323  69.0705931  50.2485531 134.4505811  65.1928491
  49.3396750 134.1664844  65.2900961  50.2780614 134.8704890  64.3331798
  55.4804798 138.0612401  68.9619659  55.0267125 137.2203310  69.0184849
  54.8498765 138.6973799  69.2994439  54.4237718 128.9904387  70.1920326
  53.6860474 128.4781773  70.5230569  54.6764491 128.5504768  69.3803603
  53.9237737 139.8988897  69.8969477  54.2160712 140.4593954  69.1781843
  54.4336358 140.1917458  70.6522636  54.5249345 121.7680639  70.7862096
  54.8308222 120.9078002  70.4988011  55.2501950 122.3598259  70.5861090
  40.8173701 132.1711325  69.1743694  40.6198101 131.5780686  68.4494760
  40.2620365 131.8663535  69.8919632  48.7970425 132.0634432  71.2938287
  48.8519034 131.1108268  71.2180763  47.9861627 132.2193871  71.7779585
  49.9461618 135.9914555  62.5316570  49.5081048 135.2750414  62.0722207
  50.6872059 136.2190670  61.9701661  46.7362785 130.6811491  69.0528666
  45.9230650 130.9805662  69.4593858  47.2321779 130.2867180  69.7703148
  52.3336996 131.1453316  77.8843559  52.6886384 131.3724789  78.7438025
  52.9809128 131.4771693  77.2620815  58.0634733 134.2671752  68.5892888
  57.9252632 134.4573348  67.6614078  57.7070952 135.0291135  69.0460940
  46.2276859 128.2529847  74.6689901  46.8676239 128.1118606  73.9712864
  45.3954390 127.9664360  74.2928502  58.0904113 136.3348279  73.6004160
  58.5240620 136.2423568  74.4487214  58.8035694 136.3105779  72.9624176
  47.0037163 137.5532277  70.7824893  47.7977762 137.0582597  70.5807468
  46.2928856 137.0250140  70.4192599  51.8232008 139.9350373  75.1337261
  51.8769030 140.5041309  75.9014976  50.9546789 140.1052258  74.7691298
  43.3119927 131.6975359  66.8584646  42.3817515 131.6359815  67.0754608
  43.4077399 131.1751312  66.0621287  43.2305476 128.2230172  69.4462887
  43.4912293 129.1375505  69.3372048  44.0522648 127.7554614  69.5959500
  44.7030401 129.6367929  76.6161712  45.3753455 129.4285291  75.9674361
  43.8760188 129.4390015  76.1766944  58.9519662 136.3771979  76.1337045
  59.1455552 137.2817790  76.3796320  58.8520281 135.9179398  76.9675630
  50.6055973 126.2629870  78.6327373  49.9583888 126.9619820  78.5391849
  51.3756989 126.6966014  79.0003621  54.0134771 136.5278722  81.7077926
  53.8620277 136.2989274  80.7908010  54.0039451 137.4849324  81.7209271
  50.7820107 134.1010635  76.6924192  51.7112167 134.2521794  76.5193160
  50.3611138 134.1894656  75.8372839  49.5808439 138.1261299  74.4622730
  49.4419525 137.7580084  75.3348668  48.7923035 138.6408939  74.2906688
  51.1313654 137.5042902  71.8511568  50.7963487 137.4643672  72.7469218
  50.6317600 136.8387618  71.3781978  45.1057898 132.9110532  77.3764149
  44.9677696 132.1790771  77.9775688  46.0162822 132.8219432  77.0948337
  54.0672846 134.8498936  62.1248627  53.4502017 134.1245764  62.0281680
  53.5989335 135.6108297  61.7815702  47.7340199 132.6230491  76.8647829
  48.4439818 131.9823684  76.8234447  47.6909507 132.8743386  77.7874009
  55.7226978 139.5597845  79.7854408  55.6639524 138.8757065  79.1184991
  56.1246496 140.3016835  79.3335034  46.4469133 129.6095709  78.6843468
  45.9106490 129.1586448  79.3365064  45.8585841 129.7441618  77.9413932
  45.8571392 129.0684361  61.2469932  44.9800858 128.9473161  60.8832178
  46.3329145 128.2770439  60.9948820  55.7244385 137.5237429  78.0168388
  54.8371164 137.1863350  78.1394786  56.2942936 136.7920460  78.2537153
  37.3773532 133.8561520  71.3411439  38.0644572 133.5423250  70.7532454
  37.2221661 134.7602885  71.0678690  42.1808254 128.7451717  75.7696463
  42.0966443 128.1377386  75.0346873  41.3590961 129.2360735  75.7705959
  52.3531968 127.2305280  71.1366658  52.8500668 126.4775243  70.8167728
  51.5818950 127.2669597  70.5709867  60.2061726 132.9345646  72.7784949
  60.1951602 133.8170361  72.4078882  59.3379105 132.5817197  72.5839486
  53.4361749 135.9876968  68.7105081  52.5018028 136.1078430  68.5409785
  53.6138417 135.0849434  68.4465091  48.9366937 129.3722663  70.8638342
  48.5664724 128.8193704  71.5519248  49.4326029 128.7680797  70.3113342
  56.8234300 131.8294287  69.2455115  57.2894752 132.6622279  69.1715418
  57.2741801 131.3639269  69.9500374  54.8910531 138.1738108  66.2441267
  55.1670375 138.0594703  67.1535141  54.0215030 137.7755593  66.2053440
  54.7950963 124.1974874  73.2846017  53.8814043 124.4279101  73.4528223
  55.2244064 124.2813318  74.1360049  54.5657421 132.3864766  75.7845911
  53.9128872 132.6340673  75.1298363  54.9437801 131.5728904  75.4508388
  50.6144994 133.1284577  82.2711948  49.9385631 133.0278706  82.9414323
  51.4372628 132.9723791  82.7347945  36.9541508 131.9362114  73.6128906
  36.9925608 131.4025704  74.4066024  36.4481801 131.4097319  72.9939883
  44.3332271 126.7826654  77.1091448  44.3973597 127.6441485  76.6968846
  44.2699391 126.1700656  76.3763807  43.8084543 128.8549787  80.7564483
  44.4356582 128.4726864  81.3702007  42.9512462 128.6363989  81.1220175
  54.2078652 139.2612762  82.3618218  54.7518556 139.8742720  81.8673173
  53.6265496 139.8192340  82.8785231  40.5850086 130.6626216  66.6882837
  40.8803527 129.7536894  66.6349891  39.6838122 130.6413955  66.3663840
  44.1144333 128.7382212  72.6710386  43.3930919 129.3518180  72.5317859
  44.9037589 129.2739977  72.5927032  54.5571073 140.1842500  75.1212796
  53.6101409 140.0647851  75.0491123  54.9053846 139.2964998  75.2039057
  46.9170646 126.0736639  78.9451038  47.4405048 126.3198935  79.7077347
  46.6982980 126.9056674  78.5254175  42.3137927 128.3440314  66.8122163
  41.9850634 127.4637692  66.6297269  42.6677298 128.2887982  67.6998552
  51.5617506 139.9795216  71.3217148  51.4142469 139.0511924  71.5024718
  52.3871000 140.0015307  70.8374223  45.4279751 128.6313283  67.1797640
  45.7675823 129.1599205  66.4576249  45.8751871 128.9693689  67.9556207
  55.1651628 140.8023775  72.4082021  56.0898176 140.5966636  72.2706472
  54.9966931 140.5540176  73.3171362  48.1223191 127.0150334  76.6300708
  47.7820012 126.2158147  77.0321388  47.4162198 127.3152045  76.0577542
  48.7739663 124.0999646  75.0828031  49.5965733 123.6260125  74.9606922
  49.0177727 124.8790130  75.5826718  47.4147898 127.1287905  65.3790933
  48.1356260 127.5069158  64.8754650  46.7913202 127.8476782  65.4825911
  51.5579021 127.8333054  66.3149265  51.7742635 128.7157692  66.0138094
  51.0773088 127.4419267  65.5854907  46.2978242 130.7918767  72.8920010
  46.1522823 131.1059070  73.7844291  45.8203446 131.4103667  72.3390909
  48.1574625 127.7821315  72.9400900  48.1436194 126.8862408  72.6033197
  48.8747053 127.7891979  73.5739186  50.0100756 128.2158655  74.9854027
  49.7518533 129.1375726  74.9838357  49.4785796 127.8189090  75.6754491
  54.9546944 141.3209442  67.7644112  55.1283822 140.7555865  67.0117965
  55.4475836 142.1210337  67.5823602  40.7723904 133.3324112  75.8307671
  40.2277372 134.1083919  75.9627945  41.6503254 133.6794916  75.6726793
  47.5611521 126.6635695  68.2088470  47.6827432 125.7352342  68.4079357
  47.2713563 126.6774381  67.2966785  50.4302711 124.3490606  71.3455189
  50.4524408 124.4129939  70.3907169  50.8470770 123.5095114  71.5395696
  60.8086335 134.0845865  69.3834412  61.2517482 133.3353191  68.9853535
  59.9312846 134.0756002  69.0008144  55.9422117 140.6376207  64.8641011
  56.6373021 141.2582900  65.0828325  56.2845267 139.7871558  65.1393388
  41.5589926 132.4594008  78.7237828  40.8171662 132.6076643  79.3102458
  41.2382670 132.7202273  77.8604577  57.8413540 138.0875912  66.3928341
  58.3664864 138.4263185  65.6677661  57.7535892 137.1522928  66.2091476
  47.0452600 128.1767693  82.4178402  47.0940756 129.0529816  82.0356172
  47.5875115 127.6345086  81.8450045  57.5307446 138.7208816  81.6979539
  56.7402990 138.7032955  81.1584039  57.2940801 139.2597110  82.4528576
  57.6505321 135.5701282  79.0112268  57.7003326 135.4051290  79.9527791
  57.5419244 134.7028541  78.6210149  46.5341580 138.2489828  66.3004357
  46.6829700 138.9325292  65.6471030  47.3408023 138.2294918  66.8153812
  54.9409083 131.5532210  80.3271575  55.8418946 131.4138675  80.0355572
  55.0157058 131.7186665  81.2669752  49.2751889 128.9299065  79.1724761
  48.4055198 129.2232631  78.9007349  49.5111369 129.5139510  79.8932025
  59.1523518 137.9898224  79.2554289  58.8608326 138.3528204  80.0917750
  58.5395649 137.2765232  79.0767621  60.3519200 135.5551104  71.7756860
  61.1866092 135.9940908  71.9394420  60.4878329 135.0789757  70.9565105
  57.4010706 133.1130839  77.7234347  57.8764828 133.3058485  76.9153199
  56.4776271 133.1690024  77.4777731  44.2894213 134.2755006  67.3065426
  44.0440255 133.3717336  67.5045636  44.4590127 134.2772156  66.3644904
  51.9790923 125.1478682  76.6890181  52.4972866 125.8839709  76.3636670
  51.6246055 125.4542675  77.5236940  43.5589860 130.0083363  64.8051587
  42.8659105 130.0827718  64.1491623  43.3141612 129.2443707  65.3273104
  52.2303517 121.5678965  72.2091078  52.5105271 120.9002154  72.8351504
  53.0154124 121.7608060  71.6965742  56.1012375 129.9896599  75.9562653
  57.0529798 130.0894696  75.9774877  55.9315826 129.1974867  76.4660737
  54.1226755 127.0752182  76.1422054  53.5276687 127.3557195  75.4468543
  53.8376451 127.5646083  76.9138795  55.8822262 140.3440979  61.8628634
  55.8035893 140.0100843  62.7564392  56.7031929 140.8362747  61.8620106
  58.5800453 133.2102718  75.0704953  58.5476773 132.2718719  75.2564636
  59.1901077 133.2886755  74.3370778  50.4183784 132.0798771  61.1132157
  51.3642888 131.9504979  61.1820575  50.0398029 131.3413433  61.5901585
  58.7294941 130.0013762  75.1163236  58.2133990 129.2172218  74.9293165
  59.6134890 129.6732478  75.2809755  56.3905668 123.7454777  71.0759049
  56.1930489 123.4369865  71.9602380  57.0005374 124.4716416  71.2056978
  64.3977003 134.2718725  74.2110989  65.1280391 134.0104013  74.7718693
  63.7883948 133.5347447  74.2513057  62.4792300 132.4126588  74.8085441
  61.7525463 132.2782553  74.2001932  62.0639587 132.7203416  75.6142159
  50.3022476 136.1316517  82.5732814  51.2225486 136.3095116  82.7672860
  50.2672059 135.1872563  82.4212513  48.6026701 130.0048748  61.0487042
  47.6958156 129.7081860  61.1249756  48.8802682 129.7078566  60.1821328
  39.5204641 131.3255111  71.4986088  39.2007426 130.4720419  71.2060462
  38.9738069 131.5403689  72.2544056  43.2984549 134.0417552  75.2155595
  43.5170559 134.9734660  75.2343629  43.7110323 133.6825526  76.0010399
  50.2188767 124.5485637  67.2031283  49.4089495 124.2032722  67.5786529
  50.9073184 124.2393181  67.7918895  52.1479315 123.6263684  68.8255580
  52.7010354 124.0459138  69.4845603  52.3849401 122.6999432  68.8678536
  48.1712414 129.6150758  84.6058344  48.0709141 130.5645115  84.5370435
  47.9533956 129.2868997  83.7334414  47.3725486 126.8635683  61.1899021
  48.2344650 127.1890581  61.4494838  47.5575830 126.0767179  60.6772087
  39.3892901 134.9458023  73.4679210  38.6956373 134.5311975  72.9549164
  40.1365892 134.9878559  72.8712629  55.5258122 125.7364209  68.3334244
  54.9456791 126.3949013  67.9512297  55.2594055 124.9141554  67.9221662
  53.9761688 125.1369267  70.5355564  54.4761467 125.2485802  69.7269883
  54.6197296 124.8330320  71.1756373  48.0343684 133.0447897  83.4223405
  47.5510766 133.8448257  83.6287294  48.1204623 133.0555842  82.4690849
  41.3029644 134.8776276  71.3445225  41.2800332 134.9763964  70.3927108
  41.6130280 135.7241427  71.6662391  43.9617022 136.9352431  75.4591839
  44.9160275 136.9036374  75.3921771  43.7629545 136.4743055  76.2742065
  44.5516404 135.5053547  78.0262637  45.3709293 135.9997626  78.0497474
  44.8253212 134.5885516  77.9980204  54.3083000 127.8964300  67.3890592
  53.4208855 128.1813950  67.1710787  54.7236989 127.7358063  66.5417869
  57.6597536 127.9210821  71.1044932  58.4357926 128.4107273  71.3769548
  56.9345670 128.3468875  71.5616801  60.0970095 128.6338440  72.1618872
  60.6914586 128.3934176  71.4512180  60.1696679 127.9145570  72.7892409
  53.4526214 137.6608974  61.4838612  54.1562064 137.8658977  62.0996268
  52.7288862 138.2285736  61.7487696  54.2824024 133.4118836  67.6040883
  54.2259225 133.8687387  66.7648515  54.8352366 132.6509520  67.4263725
  58.0928830 129.2008568  68.4291002  57.8365764 128.8005203  69.2599210
  57.4681698 129.9152361  68.3041141  62.4041168 131.9404641  70.9362293
  61.8440726 132.0097830  71.7093855  61.7984671 131.7645625  70.2161790
  55.3612911 138.0991504  63.5337072  56.1958515 137.6672702  63.3514547
  55.1997254 137.9273517  64.4613967  55.0158803 134.6023617  64.8993412
  54.9607607 134.4367888  63.9581856  54.3904858 135.3099650  65.0555601
  39.8051318 129.8391681  78.7254834  40.4510182 129.3290635  79.2142059
  39.5968469 130.5760363  79.2998259  52.3304710 136.9072529  84.2246974
  53.1995870 137.0813181  83.8633609  51.8511462 137.7266946  84.1022704
  48.3254929 124.1031726  64.4778730  48.3133598 125.0473566  64.6347001
  49.2178350 123.9201871  64.1838191  52.1407048 120.6974503  68.7324667
  51.3739444 120.1432989  68.8781349  52.5517753 120.7696371  69.5938819
  44.1448809 126.9859298  82.8229848  45.0080271 126.6296103  83.0333173
  43.5714220 126.6473193  83.5105252  68.9446882 146.2787842  71.6078436
  69.6772054 145.7087059  71.8416265  68.1886237 145.8909442  72.0484941
  66.4672302 139.9909416  76.0673044  66.1355627 140.8604827  75.8434259
  65.8717915 139.6745700  76.7467075  66.3600965 144.7104502  73.1466394
  65.4517843 144.6419910  72.8525155  66.3088561 145.1876447  73.9748220
  68.2262612 142.9120940  74.9244268  67.5836992 143.2053474  74.2784063
  67.7217540 142.7973861  75.7297465  63.6674058 143.6785717  78.2806151
  63.4234990 144.4327777  77.7440426  63.9433989 144.0571064  79.1153398
  63.2238750 142.8342150  73.8619988  62.3623229 143.1323403  74.1536726
  63.2501185 143.0512548  72.9301021  56.7030310 140.3940015  83.8159820
  56.3097255 139.8406214  84.4907464  57.5196450 140.7050593  84.2066337
  59.6198271 141.8097894  81.4080076  60.3607984 142.4105047  81.3284539
  59.8516194 141.0675532  80.8498119  63.5655434 137.8378997  75.6844358
  63.2219703 138.7280639  75.6083469  63.9334396 137.6480655  74.8213943
  61.1152828 142.6737309  69.2502031  60.2594424 142.2844159  69.0707670
  61.5279779 142.7529270  68.3901817  62.6451974 140.2083652  73.6493591
  62.1416770 140.1713787  72.8361396  62.9382581 141.1176395  73.7090248
  58.8894860 140.2922382  72.6559773  59.7547857 140.0965191  72.2965662
  58.9572369 140.0632734  73.5829130  56.4957179 142.5224590  70.0276140
  57.0700931 142.2999771  69.2949333  57.0828162 142.5913284  70.7804741
  58.7979847 139.3965839  68.7551209  58.1444259 139.0814856  68.1307824
  58.7560321 138.7741579  69.4811032  65.2631472 144.3196304  70.1920326
  64.5254229 143.8073690  70.5230569  65.5158246 143.8796686  69.3803603
  65.3643099 137.0972556  70.7862096  65.6701976 136.2369920  70.4988011
  66.0895704 137.6890176  70.5861090  61.4449728 141.5921788  78.6327373
  60.7977643 142.2911737  78.5391849  62.2150743 142.0257932  79.0003621
  63.1925723 142.5597198  71.1366658  63.6894422 141.8067160  70.8167728
  62.4212704 142.5961515  70.5709867  65.6344717 139.5266792  73.2846017
  64.7207797 139.7571018  73.4528223  66.0637819 139.6105236  74.1360049
  57.7564401 141.4028557  78.9451038  58.2798803 141.6490853  79.7077347
  57.5376734 142.2348591  78.5254175  58.9616946 142.3442252  76.6300708
  58.6213766 141.5450065  77.0321388  58.2555952 142.6443963  76.0577542
  59.6133418 139.4291564  75.0828031  60.4359487 138.9552042  74.9606922
  59.8571481 140.2082048  75.5826718  62.3972775 143.1624972  66.3149265
  62.6136389 144.0449609  66.0138094  61.9166842 142.7711185  65.5854907
  58.9968379 143.1113233  72.9400900  58.9829948 142.2154326  72.6033197
  59.7140807 143.1183897  73.5739186  58.4005275 141.9927613  68.2088470
  58.5221186 141.0644259  68.4079357  58.1107318 142.0066299  67.2966785
  61.2696466 139.6782523  71.3455189  61.2918162 139.7421857  70.3907169
  61.6864525 138.8387032  71.5395696  62.8184677 140.4770600  76.6890181
  63.3366621 141.2131627  76.3636670  62.4639810 140.7834593  77.5236940
  63.0697271 136.8970882  72.2091078  63.3499025 136.2294071  72.8351504
  63.8547878 137.0899978  71.6965742  66.9406130 145.3188516  75.9562653
  67.8923553 145.4186614  75.9774877  66.7709580 144.5266785  76.4660737
  64.9620509 142.4044100  76.1422054  64.3670441 142.6849112  75.4468543
  64.6770206 142.8938000  76.9138795  69.5688696 145.3305679  75.1163236
  69.0527745 144.5464136  74.9293165  70.4528644 145.0024396  75.2809755
  67.2299423 139.0746695  71.0759049  67.0324244 138.7661783  71.9602380
  67.8399128 139.8008334  71.2056978  73.3186054 147.7418505  74.8085441
  72.5919218 147.6074470  74.2001932  72.9033341 148.0495334  75.6142159
  61.0582521 139.8777555  67.2031283  60.2483249 139.5324640  67.5786529
  61.7466938 139.5685099  67.7918895  62.9873069 138.9555602  68.8255580
  63.5404108 139.3751055  69.4845603  63.2243156 138.0291350  68.8678536
  58.2119240 142.1927601  61.1899021  59.0738404 142.5182499  61.4494838
  58.3969584 141.4059096  60.6772087  66.3651877 141.0656127  68.3334244
  65.7850546 141.7240931  67.9512297  66.0987809 140.2433472  67.9221662
  64.8155443 140.4661185  70.5355564  65.3155221 140.5777719  69.7269883
  65.4591051 140.1622238  71.1756373  65.1476755 143.2256217  67.3890592
  64.2602610 143.5105868  67.1710787  65.5630744 143.0649981  66.5417869
  68.4991291 143.2502738  71.1044932  69.2751681 143.7399191  71.3769548
  67.7739425 143.6760793  71.5616801  70.9363849 143.9630358  72.1618872
  71.5308340 143.7226094  71.4512180  71.0090433 143.2437488  72.7892409
  68.9322584 144.5300485  68.4291002  68.6759518 144.1297121  69.2599210
  68.3075452 145.2444279  68.3041141  73.2434922 147.2696558  70.9362293
  72.6834480 147.3389748  71.7093855  72.6378425 147.0937543  70.2161790
  59.1648683 139.4323644  64.4778730  59.1527353 140.3765484  64.6347001
  60.0572105 139.2493789  64.1838191  62.9800802 136.0266420  68.7324667
  62.2133198 135.4724907  68.8781349  63.3911507 136.0988289  69.5938819
   3.9084356  31.3098458  58.3323742   4.6409528  30.7397675  58.5661572
   3.1523712  30.9220059  58.7730248   1.4309776  25.0220032  62.7918351
   1.0993101  25.8915443  62.5679566   0.8355390  24.7056316  63.4712381
   1.3238440  29.7415119  59.8711701   0.4155317  29.6730527  59.5770462
   1.2726035  30.2187064  60.6993526   3.1900086  27.9431557  61.6489575
   2.5474466  28.2364090  61.0029370   2.6855015  27.8284477  62.4542772
   0.8440250  31.6894730  52.3375434   1.7558106  31.9222117  52.1623132
   0.3349897  32.2731774  51.7750513   3.3299064  37.6074986  57.0833379
   2.6450102  37.9873888  56.5330413   3.4142913  38.2170313  57.8165327
   0.5849995  35.2534945  63.6828723   0.7966891  35.8966705  63.0063104
   0.5379744  34.4197262  63.2150653   1.6995823  38.1306901  61.8551080
   2.5213267  37.7287088  61.5733762   1.6958226  38.0275135  62.8067196
   9.7901816  34.4745649  58.2036052   9.0365525  33.9053047  58.0480056
   9.9249358  34.4408314  59.1506686   3.4677465  35.6130579  52.8515273
   2.6906908  35.2741739  52.4070435   4.1468946  35.6183202  52.1770238
   1.7068772  35.0864561  59.5081881   1.0492446  35.7763822  59.5962010
   2.5109171  35.4760993  59.8515868   0.5174231  33.4408933  57.5585823
   1.0306112  34.0738925  58.0607533   1.1675455  32.8410129  57.1929183
   1.2836027  38.4214935  55.6864966   0.8298354  37.5805845  55.7430156
   0.6529994  39.0576333  56.0239746   0.3280574  22.1283173  57.5107402
   0.6339451  21.2680536  57.2233317   1.0533179  22.7200793  57.3106396
   3.8665962  34.6274286  55.3138195   3.7283861  34.8175882  54.3859384
   3.5102181  35.3893669  55.7706246   3.8935342  36.6950813  60.3249467
   4.3271848  36.6026102  61.1732521   4.6066922  36.6708313  59.6869483
   4.7550891  36.7374514  62.8582352   4.9486781  37.6420324  63.1041627
   4.6551509  36.2781933  63.6920937   1.5258207  39.9200379  66.5099714
   1.4670753  39.2359599  65.8430298   1.9277725  40.6619369  66.0580340
   1.5275614  37.8839963  64.7413694   0.6402393  37.5465885  64.8640093
   2.0974165  37.1522994  64.9782460   6.0092954  33.2948180  59.5030256
   5.9982831  34.1772896  59.1324189   5.1410334  32.9419731  59.3084793
   2.6265529  32.1896821  55.9700422   3.0925981  33.0224813  55.8960725
   3.0773029  31.7241803  56.6745680   0.9682857  41.1626309  59.1327328
   1.8929404  40.9569171  58.9951779   0.7998160  40.9142710  60.0416669
   0.7578173  41.6811977  54.4889419   0.9315051  41.1158399  53.7363271
   1.2507064  42.4812872  54.3068909   6.6117564  34.4448400  56.1079719
   7.0548710  33.6955725  55.7098842   5.7344075  34.4358536  55.7253451
   1.7453346  40.9978741  51.5886317   2.4404250  41.6185434  51.8073632
   2.0876496  40.1474092  51.8638695   3.6444769  38.4478447  53.1173648
   4.1696093  38.7865719  52.3922968   3.5567121  37.5125462  52.9336783
   3.3338675  39.0811350  68.4224846   2.5434219  39.0635489  67.8829345
   3.0972029  39.6199644  69.1773883   3.4536550  35.9303817  65.7357575
   3.5034555  35.7653824  66.6773097   3.3450473  35.0631076  65.3455455
   0.7440312  31.9134745  67.0516881   1.6450175  31.7741209  66.7600879
   0.8188287  32.0789199  67.9915059   4.9554747  38.3500758  65.9799596
   4.6639555  38.7130739  66.8163057   4.3426878  37.6367766  65.8012928
   6.1550429  35.9153638  58.5002166   6.9897320  36.3543442  58.6639727
   6.2909558  35.4392291  57.6810412   3.2041935  33.4733373  64.4479654
   3.6796057  33.6661019  63.6398505   2.2807500  33.5292559  64.2023038
   1.9043604  30.3499133  62.6807960   2.8561027  30.4497230  62.7020184
   1.7347054  29.5577401  63.1906044   1.6853491  40.7043513  48.5873941
   1.6067122  40.3703377  49.4809699   2.5063157  41.1965281  48.5865413
   4.3831682  33.5705253  61.7950259   4.3508002  32.6321253  61.9809943
   4.9932305  33.6489289  61.0616084   4.5326170  30.3616296  61.8408542
   4.0165219  29.5774753  61.6538471   5.4166119  30.0335013  62.0055062
   2.1936897  24.1057312  57.8004355   1.9961718  23.7972400  58.6847687
   2.8036603  24.8318950  57.9302285  10.2008232  34.6321259  60.9356296
  10.9311620  34.3706547  61.4963999   9.5915177  33.8949981  60.9758364
   8.2823529  32.7729122  61.5330747   7.5556692  32.6385087  60.9247239
   7.8670816  33.0805951  62.3387465   1.3289351  26.0966744  55.0579551
   0.7488020  26.7551548  54.6757603   1.0625284  25.2744088  54.6466968
   3.4628765  28.2813355  57.8290238   4.2389155  28.7709807  58.1014855
   2.7376899  28.7071409  58.2862108   5.9001324  28.9940974  58.8864179
   6.4945814  28.7536710  58.1757487   5.9727907  28.2748105  59.5137715
   3.8960059  29.5611102  55.1536309   3.6396993  29.1607737  55.9844516
   3.2712927  30.2754896  55.0286448   8.2072396  32.3007175  57.6607600
   7.6471954  32.3700364  58.4339162   7.6015900  32.1248160  56.9407096
   1.1644140  38.4594038  50.2582379   1.9989744  38.0275236  50.0759854
   1.0028483  38.2876051  51.1859274   9.7928415  48.9763689  60.3537556
  10.4306825  48.8570436  59.6500896   9.6749258  49.9244533  60.4125508
   6.6018121  48.9291117  60.2899081   6.2636633  48.8132182  59.4019615
   7.4707889  48.5282282  60.2700087   2.4604937  50.7826593  56.2795971
   1.8969802  50.6916530  55.5112259   2.3457332  49.9626498  56.7598464
   7.0837904  50.0825969  66.2485286   7.0726545  49.6878767  65.3765790
   7.2458544  49.3492041  66.8419057   8.0404496  54.4497561  51.5910436
   7.3892475  55.0351642  51.2044450   8.8348858  54.9803756  51.6505474
   1.9660123  51.5386698  51.9897571   2.7390999  50.9915685  51.8510447
   2.3185522  52.4030948  52.2012032   3.8045165  52.8663081  65.1964470
   3.5135031  53.7708711  65.0811136   4.4402150  52.9079608  65.9108540
   4.7301372  50.2439929  61.7865830   5.3264944  50.0195951  61.0722793
   4.7876344  49.5024675  62.3891278   4.3026400  47.6979364  49.6216021
   4.5551921  47.1760886  48.8599484   3.3650960  47.5345510  49.7242704
   9.3469683  46.7015143  57.4290764  10.1332773  46.2834566  57.0781181
   9.6108388  47.6061235  57.5972412   9.5179761  52.1387993  52.1279421
   8.8825594  52.2122620  52.8400325   9.1877167  52.7281592  51.4498500
  14.7478110  46.6390376  58.3323742  15.4803282  46.0689593  58.5661572
  13.9917466  46.2511976  58.7730248   4.0222689  49.6007470  51.8240396
   3.9058947  48.9252374  52.4921480   4.1324949  49.1139844  51.0072549
   6.3654230  49.0617617  55.5287085   6.0012437  48.5348238  56.2400006
   7.2221346  48.6716087  55.3553570  12.2703531  40.3511950  62.7918351
  11.9386856  41.2207361  62.5679566  11.6749144  40.0348234  63.4712381
   6.0059717  44.0907517  50.5248433   6.1734119  44.9587754  50.8918904
   5.8156886  44.2534799  49.6009723   8.7635050  52.5524496  62.1914264
   8.4635773  53.4549535  62.0830071   8.4186110  52.2856679  63.0435417
   2.2147532  49.0038293  58.2250968   1.2898028  48.8714507  58.4328660
   2.4631945  49.7832512  58.7220911  12.1632194  45.0707036  59.8711701
  11.2549071  45.0022445  59.5770462  12.1119790  45.5478981  60.6993526
   5.9848938  46.5465175  51.5095100   5.8648563  46.9922225  52.3480580
   5.2901526  46.8950492  50.9508638   3.7455830  59.3168816  55.1585231
   3.6679860  60.2676641  55.2373712   3.1417474  58.9714689  55.8160158
   6.2373060  46.4896682  67.8146598   5.4606394  47.0490602  67.8049463
   6.8763623  46.9753465  68.3361468  14.0293841  43.2723475  61.6489575
  13.3868221  43.5656008  61.0029370  13.5248769  43.1576395  62.4542772
  11.6834004  47.0186648  52.3375434  12.5951860  47.2514035  52.1623132
  11.1743651  47.6023692  51.7750513   4.4919432  49.2982135  67.3764565
   5.2334117  49.8367179  67.0999389   3.7856418  49.9248424  67.5336117
   9.9674772  51.4411276  65.9736727  10.3758128  50.9993686  65.2291359
   9.2452033  50.8663903  66.2270920   6.3205842  46.3783882  63.3470284
   7.1667037  46.8023296  63.4904933   6.2604480  45.7217507  64.0408847
  10.2903586  52.0012466  59.7289016   9.6612449  52.1658180  59.0265084
   9.9029249  52.4154076  60.4999980  14.1692818  52.9366904  57.0833379
  13.4843857  53.3165806  56.5330413  14.2536668  53.5462231  57.8165327
   9.4705287  44.0388251  65.0051457   9.2266219  44.7930311  64.4685733
   9.7465218  44.4173598  65.8398704  11.4243750  50.5826863  63.6828723
  11.6360645  51.2258623  63.0063104  11.3773498  49.7489180  63.2150653
   9.0269979  43.1944684  60.5865295   8.1654458  43.4925937  60.8782033
   9.0532414  43.4115083  59.6546328   5.8431548  51.7386874  56.9939101
   6.3069894  52.0174577  56.2043723   5.5788346  50.8370319  56.8112191
   2.7355629  51.2858356  59.9318864   3.3056986  51.7145624  59.2936349
   3.3263741  51.0040941  60.6303050   4.7800434  47.8610027  53.8028666
   5.4824478  48.3131070  54.2702592   4.4481063  47.2193846  54.4308559
   3.2280796  46.4521783  68.1779875   2.5979457  47.1338064  68.4115272
   3.1216884  46.3404865  67.2333014  12.5389578  53.4598819  61.8551080
  13.3607022  53.0579006  61.5733762  12.5351981  53.3567053  62.8067196
   6.3046181  53.0082862  64.0111791   6.3690614  53.4703269  64.8469963
   5.5957105  52.3780227  64.1394101  20.6295571  49.8037567  58.2036052
  19.8759279  49.2344965  58.0480056  20.7643112  49.7700232  59.1506686
   6.0194199  54.6750969  53.8790771   5.8839874  55.5202505  54.3075619
   6.5604012  54.8770247  53.1156705   2.5061539  40.7542549  70.5405126
   2.1128484  40.2008748  71.2152771   3.3227679  41.0653128  70.9311644
   1.2818481  55.3092164  56.5341449   1.4585109  56.2310128  56.3462433
   2.0775315  54.9950583  56.9635829   5.4229500  42.1700428  68.1325383
   6.1639213  42.7707581  68.0529845   5.6547422  41.4278066  67.5743425
   7.6462675  55.2974536  68.0091113   7.2026530  54.5110914  67.6912018
   8.3079889  55.4853686  67.3435004   2.4049797  56.8270337  62.5351792
   2.9557222  56.6987401  61.7628786   1.5661272  57.1265226  62.1846684
   9.7443913  55.5777336  66.0372514   9.7262389  56.3986217  65.5452784
  10.6663834  55.4531411  66.2622656   6.2016968  53.0921465  66.8796023
   6.7345304  52.3309753  66.6495331   5.6731049  52.7995117  67.6220177
   9.3686663  38.1981531  62.4089665   9.0250932  39.0883173  62.3328775
   9.7365625  38.0083189  61.5459250   9.3336945  48.1890142  50.9162100
   8.8183569  48.9594747  51.1550487   9.0614254  47.5155279  51.5395161
   6.9184056  43.0339843  55.9747338   6.0625653  42.6446694  55.7952977
   7.3311008  43.1131804  55.1147124   8.4483203  40.5686186  60.3738898
   7.9447999  40.5316322  59.5606703   8.7413810  41.4778929  60.4335554
   4.6926089  40.6524916  59.3805080   5.5579086  40.4567725  59.0210969
   4.7603598  40.4235268  60.3074436  14.3071219  50.9422497  52.8515273
  13.5300662  50.6033657  52.4070435  14.9862700  50.9475120  52.1770238
   9.1223248  46.0617234  52.7421881   8.8173384  46.3763384  53.5932024
  10.0753691  46.1398654  52.7849214   7.5669680  52.2207458  54.3914835
   7.0391042  51.4860217  54.0788072   7.0657183  52.9982134  54.1454803
  12.5462526  50.4156478  59.5081881  11.8886201  51.1055740  59.5962010
  13.3502926  50.8052910  59.8515868   2.2988408  42.8827124  56.7521446
   2.8732160  42.6602306  56.0194639   2.8859390  42.9515819  57.5050048
  11.3567985  48.7700851  57.5585823  11.8699867  49.4030843  58.0607533
  12.0069209  48.1702046  57.1929183   2.6257995  44.9131585  50.7717332
   1.7895307  45.2506272  51.0926606   2.4862765  44.7780565  49.8344469
   4.6011076  39.7568373  55.4796516   3.9475488  39.4417390  54.8553131
   4.5591550  39.1344113  56.2056339   5.7122281  50.0387668  47.3949808
   4.8049342  49.8076921  47.5940957   6.2093312  49.2425287  47.5823789
   8.6190359  58.7485175  50.3146494   7.9452058  59.0516872  50.9231452
   9.0056181  59.5514256  49.9651951   7.8348816  46.2450306  59.8044163
   6.9171377  46.4665254  59.6465851   8.2508960  46.3196617  58.9455871
   8.6183864  47.6441722  54.9346844   9.3655683  48.1563119  54.6253966
   8.8875453  47.3225775  55.7951237   6.8910514  50.1400263  51.9173798
   5.9821733  49.8559296  52.0146268   6.9205598  50.5599341  51.0577105
  12.1229781  53.7506852  55.6864966  11.6692108  52.9097762  55.7430156
  11.4923748  54.3868251  56.0239746  11.0662701  44.6798838  56.9165633
  10.3285458  44.1676225  57.2475876  11.3189474  44.2399220  56.1048910
  10.5662721  55.5883349  56.6214784  10.8585695  56.1488406  55.9027149
  11.0761341  55.8811910  57.3767943  11.1674328  37.4575090  57.5107402
  11.4733205  36.5972454  57.2233317  11.8926933  38.0492711  57.3106396
   5.4395408  47.7528884  58.0183593   5.4944018  46.8002720  57.9426070
   4.6286610  47.9088323  58.5024892   6.5886602  51.6809007  49.2561877
   6.1506032  50.9644866  48.7967514   7.3297043  51.9085121  48.6946968
   3.3787768  46.3705943  55.7773972   2.5655633  46.6700114  56.1839164
   3.8746762  45.9761632  56.4948454   5.5296346  56.3663700  57.7108237
   5.4872525  56.5924546  56.7816769   6.4459045  56.1327075  57.8594038
   8.9761980  46.8347768  64.6088866   9.3311367  47.0619241  65.4683332
   9.6234111  47.1666145  63.9866121  14.7059717  49.9566204  55.3138195
  14.5677615  50.1467800  54.3859384  14.3495935  50.7185586  55.7706246
   2.8701843  43.9424299  61.3935207   3.5101222  43.8013058  60.6958170
   2.0379373  43.6558812  61.0173809  14.7329096  52.0242731  60.3249467
  15.1665603  51.9318020  61.1732521  15.4460677  52.0000231  59.6869483
   3.6462147  53.2426729  57.5070200   4.4402745  52.7477049  57.3052775
   2.9353839  52.7144592  57.1437905   8.4656991  55.6244825  61.8582567
   8.5194013  56.1935761  62.6260283   7.5971772  55.7946710  61.4936604
   1.3455384  45.3262381  63.3407018   2.0178438  45.1179743  62.6919667
   0.5185171  45.1284467  62.9012251  15.5944646  52.0666431  62.8582352
  15.7880536  52.9712242  63.1041627  15.4945264  51.6073850  63.6920937
   7.2480956  41.9524322  65.3572679   6.6008871  42.6514272  65.2637156
   8.0181972  42.3860466  65.7248928  10.6559754  52.2173174  68.4323233
  10.5045261  51.9883726  67.5153316  10.6464434  53.1743775  68.4454578
   7.4245091  49.7905087  63.4169499   8.3537151  49.9416246  63.2438466
   7.0036121  49.8789108  62.5618146   6.2233423  53.8155751  61.1868037
   6.0844508  53.4474536  62.0593975   5.4348019  54.3303391  61.0151994
   6.8181575  58.9164848  52.5293573   6.9933330  58.4452891  53.3439196
   6.1314363  59.5430614  52.7574834   7.7738638  53.1937354  58.5756874
   7.4388470  53.1538124  59.4714524   7.2742583  52.5282070  58.1027285
   1.7482882  48.6004984  64.1009456   1.6102680  47.8685223  64.7020995
   2.6587805  48.5113884  63.8193643  10.7097829  50.5393388  48.8493934
  10.0927000  49.8140216  48.7526987  10.2414318  51.3002748  48.5061008
   4.3765182  48.3124943  63.5893135   5.0864801  47.6718135  63.5479754
   4.3334491  48.5637838  64.5119316  12.3651961  55.2492297  66.5099714
  12.3064507  54.5651517  65.8430298  12.7671479  55.9911287  66.0580340
   3.0894116  45.2990161  65.4088775   2.5531473  44.8480900  66.0610371
   2.5010825  45.4336070  64.6659239   1.3842660  62.0654210  59.3033433
   1.6239258  62.6972735  59.9812452   0.5411856  61.7142250  59.5898793
   2.4996375  44.7578813  47.9715238   1.6225842  44.6367613  47.6077485
   2.9754128  43.9664891  47.7194127  12.3669368  53.2131881  64.7413694
  11.4796147  52.8757802  64.8640093  12.9367919  52.4814912  64.9782460
   5.8970522  57.8733333  61.7074937   5.8240693  58.6788304  62.2194242
   5.4547915  58.0725299  60.8822959   5.6860301  57.1105103  55.2177759
   4.9027823  57.6526783  55.3115983   6.3853046  57.6279083  55.6172000
   8.9956951  42.9199732  57.8611964   9.4925651  42.1669695  57.5413035
   8.2243933  42.9564049  57.2955174  16.8486709  48.6240098  59.5030256
  16.8376585  49.5064813  59.1324189  15.9804088  48.2711649  59.3084793
   8.3569205  57.7720167  63.8633096   9.0697177  58.4067632  63.7908997
   7.8659234  57.8684033  63.0473098  10.0786732  51.6771420  55.4350388
   9.1443011  51.7972882  55.2655092  10.2563401  50.7743886  55.1710398
   5.5791920  45.0617115  57.5883649   5.2089708  44.5088156  58.2764554
   6.0751013  44.4575249  57.0358649  13.4659283  47.5188739  55.9700422
  13.9319736  48.3516730  55.8960725  13.9166784  47.0533720  56.6745680
   3.4081119  55.5214610  64.6838667   4.1090578  56.1551093  64.8368061
   2.9376234  55.8629342  63.9234306  11.5335515  53.8632560  52.9686574
  11.8095358  53.7489155  53.8780448  10.6640013  53.4650045  52.9298747
  11.4375946  39.8869326  60.0091323  10.5239026  40.1173553  60.1773530
  11.8669048  39.9707770  60.8605356  11.2082405  48.0759218  62.5091217
  10.5553855  48.3235125  61.8543670  11.5862785  47.2623356  62.1753694
   8.1689579  58.1118911  56.6119388   8.3511973  57.2940567  57.0747140
   8.9922565  58.3286603  56.1744277   8.5031744  57.0387096  53.8734436
   9.0319511  56.5279551  53.2604598   8.7659964  56.7229626  54.7379969
   7.2569978  48.8179029  68.9957254   6.5810615  48.7173158  69.6659630
   8.0797612  48.6618243  69.4593252   1.8587492  58.0902213  56.6332212
   1.1897867  58.5748340  56.1496252   1.7200362  58.3371433  57.5475590
   5.9992761  60.1245956  63.2314870   6.5511069  60.2877578  63.9963956
   6.3398954  60.7150394  62.5594895   0.9757254  42.4721106  63.8336755
   1.0398580  43.3335937  63.4214153   0.9124374  41.8595108  63.1009114
  10.8503635  54.9507214  69.0863525  11.3943539  55.5637172  68.5918480
  10.2690480  55.5086792  69.6030538   9.1361148  58.0727932  60.2178552
   9.0112287  57.2717672  59.7089498   9.7940239  58.5674125  59.7292522
  11.1996056  55.8736952  61.8458103  10.2526392  55.7542303  61.7736429
  11.5478829  54.9859450  61.9284364   3.5595630  41.7631091  65.6696344
   4.0830031  42.0093387  66.4322654   3.3407963  42.5951126  65.2499482
   8.2042490  55.6689668  58.0462455   8.0567452  54.7406376  58.2270025
   9.0295983  55.6909759  57.5619530   2.0704734  44.3207735  53.9042947
   2.4100806  44.8493656  53.1821555   2.5176854  44.6588141  54.6801513
  11.8076611  56.4918227  59.1327328  12.7323159  56.2861088  58.9951779
  11.6391915  56.2434628  60.0416669   4.7648175  42.7044786  63.3546015
   4.4244995  41.9052599  63.7566695   4.0587181  43.0046497  62.7822848
   5.4164646  39.7894098  61.8073338   6.2390716  39.3154577  61.6852228
   5.6602710  40.5684582  62.3072024   4.0572881  42.8182357  52.1036240
   4.7781243  43.1963610  51.5999957   3.4338185  43.5371234  52.2071218
   8.2004004  43.5227506  53.0394572   8.4167618  44.4052144  52.7383400
   7.7198071  43.1313719  52.3100214   2.9403225  46.4813219  59.6165317
   2.7947806  46.7953522  60.5089598   2.4628429  47.0998119  59.0636215
   4.7999608  43.4715767  59.6646206   4.7861177  42.5756860  59.3278504
   5.5172036  43.4786431  60.2984492   6.6525739  43.9053107  61.7099334
   6.3943517  44.8270178  61.7083664   6.1210779  43.5083542  62.3999798
  11.5971928  57.0103894  54.4889419  11.7708805  56.4450317  53.7363271
  12.0900819  57.8104789  54.3068909   4.2036504  42.3530147  54.9333776
   4.3252415  41.4246793  55.1324664   3.9138546  42.3668833  54.0212092
   7.0727694  40.0385058  58.0700496   7.0949391  40.1024391  57.1152476
   7.4895753  39.1989566  58.2641002  17.4511319  49.7740317  56.1079719
  17.8942465  49.0247642  55.7098842  16.5737829  49.7650454  55.7253451
  12.5847100  56.3270659  51.5886317  13.2798005  56.9477351  51.8073632
  12.9270250  55.4766010  51.8638695  14.4838523  53.7770364  53.1173648
  15.0089847  54.1157637  52.3922968  14.3960876  52.8417380  52.9336783
   6.1458572  57.6904438  65.2463525   6.4545698  57.4453585  66.1186224
   6.9434054  57.8951076  64.7582395   6.1679184  59.8442348  57.4768901
   5.7284174  59.3518726  58.1701758   6.9187301  59.3015315  57.2360976
   3.6153056  55.3880357  59.5491203   2.9933065  54.7251062  59.2493431
   4.2857923  55.4141489  58.8664851   3.6877584  43.8662145  69.1423709
   3.7365739  44.7424267  68.7601478   4.2300098  43.3239538  68.5695352
  14.1732429  54.4103268  68.4224846  13.3827973  54.3927407  67.8829345
  13.9365784  54.9491562  69.1773883  14.2930304  51.2595734  65.7357575
  14.3428309  51.0945742  66.6773097  14.1844228  50.3922993  65.3455455
   3.1766563  53.9384280  53.0249663   3.3254683  54.6219744  52.3716336
   3.9833006  53.9189370  53.5399119  11.5834067  47.2426662  67.0516881
  12.4843929  47.1033127  66.7600879  11.6582041  47.4081117  67.9915059
   5.9176872  44.6193517  65.8970068   5.0480181  44.9127083  65.6252656
   6.1536352  45.2033962  66.6177331  15.7948501  53.6792676  65.9799596
  15.5033309  54.0422656  66.8163057  15.1820632  52.9659684  65.8012928
  16.9944183  51.2445556  58.5002166  17.8291075  51.6835360  58.6639727
  17.1303312  50.7684209  57.6810412  14.0435689  48.8025290  64.4479654
  14.5189811  48.9952937  63.6398505  13.1201255  48.8584476  64.2023038
   0.9319196  49.9649458  54.0310732   0.6865238  49.0611788  54.2290942
   1.1015111  49.9666608  53.0890210   8.6215906  40.8373134  63.4135488
   9.1397850  41.5734161  63.0881977   8.2671039  41.1437127  64.2482247
   8.8728500  37.2573417  58.9336385   9.1530254  36.5896606  59.5596811
   9.6579107  37.4502512  58.4211048   6.6761969  56.4332410  50.4961411
   6.1035936  57.0522598  50.0431883   7.2494762  56.9831772  51.0301333
  12.7437358  45.6791050  62.6807960  13.6954781  45.7789148  62.7020184
  12.5740809  44.8869319  63.1906044  10.7651738  42.7646634  62.8667361
  10.1701670  43.0451646  62.1713849  10.4801435  43.2540535  63.6384102
   9.8959228  56.7169561  51.6269993  10.8289902  56.6515122  51.8302869
   9.8082441  57.5525827  51.1684526  12.5247245  56.0335431  48.5873941
  12.4460877  55.6995294  49.4809699  13.3456912  56.5257199  48.5865413
  15.2225436  48.8997170  61.7950259  15.1901756  47.9613171  61.9809943
  15.8326060  48.9781207  61.0616084   7.0608767  47.7693223  47.8377463
   8.0067872  47.6399431  47.9065881   6.6823012  47.0307885  48.3146892
  15.3719925  45.6908214  61.8408542  14.8558973  44.9066670  61.6538471
  16.2559873  45.3626930  62.0055062  13.0330652  39.4349229  57.8004355
  12.8355473  39.1264317  58.6847687  13.6430357  40.1610868  57.9302285
  21.0401986  49.9613177  60.9356296  21.7705375  49.6998465  61.4963999
  20.4308932  49.2241899  60.9758364  19.1217283  48.1021040  61.5330747
  18.3950447  47.9677005  60.9247239  18.7064570  48.4097868  62.3387465
   6.9447460  51.8210969  69.2978120   7.8650469  51.9989568  69.4918167
   6.9097043  50.8767015  69.1457820   5.2451684  45.6943200  47.7732349
   4.3383140  45.3976312  47.8495062   5.5227665  45.3973018  46.9066635
   6.8613750  40.2380089  53.9276590   6.0514478  39.8927174  54.3031836
   7.5498167  39.9287633  54.5164201   8.7904298  39.3158136  55.5500886
   9.3435337  39.7353589  56.2090910   9.0274385  38.3893884  55.5923843
   4.8137397  45.3045210  71.3303650   4.7134124  46.2539567  71.2615741
   4.5958940  44.9763449  70.4579720   4.0150469  42.5530135  47.9144328
   4.8769633  42.8785033  48.1740145   4.2000813  41.7661631  47.4017394
  12.1683105  41.4258661  55.0579551  11.5881774  42.0843465  54.6757603
  11.9019038  40.6036006  54.6466968  10.6186672  40.8263719  57.2600871
  11.1186450  40.9380253  56.4515190  11.2622280  40.5224772  57.9001680
   4.6768668  48.7342349  70.1468712   4.1935749  49.5342709  70.3532601
   4.7629607  48.7450293  69.1936156   0.6042005  52.6246883  62.1837146
   1.5585259  52.5930826  62.1167077   0.4054529  52.1637507  62.9987372
   1.1941387  51.1947999  64.7507944   2.0134276  51.6892078  64.7742781
   1.4678195  50.2779967  64.7225511  10.9507983  43.5858752  54.1135899
  10.0633838  43.8708402  53.8956094  11.3661972  43.4252515  53.2663176
  14.3022519  43.6105273  57.8290238  15.0782910  44.1001725  58.1014855
  13.5770654  44.0363327  58.2862108  16.7395078  44.3232892  58.8864179
  17.3339569  44.0828628  58.1757487  16.8121662  43.6040022  59.5137715
  10.0951197  53.3503426  48.2083919  10.7987047  53.5553429  48.8241575
   9.3713846  53.9180188  48.4733003  10.9249007  49.1013288  54.3286189
  10.8684208  49.5581839  53.4893822  11.4777350  48.3403972  54.1509032
  14.7353813  44.8903019  55.1536309  14.4790747  44.4899655  55.9844516
  14.1106681  45.6046813  55.0286448  19.0466151  47.6299093  57.6607600
  18.4865709  47.6992282  58.4339162  18.4409654  47.4540077  56.9407096
   2.1161360  59.0635820  59.4125786   1.9993744  60.0081252  59.3104477
   1.2953806  58.7609381  59.8011586  12.0037894  53.7885955  50.2582379
  12.8383498  53.3567154  50.0759854  11.8422237  53.6167969  51.1859274
  11.6583786  50.2918069  51.6238718  11.6032590  50.1262340  50.6827162
  11.0329842  50.9994102  51.7800908   8.9729694  52.5966981  70.9492281
   9.8420853  52.7707633  70.5878916   8.4936445  53.4161397  70.8268010
   4.9679912  39.7926178  51.2024037   4.9558582  40.7368018  51.3592308
   5.8603334  39.6096323  50.9083498   3.1415874  59.7164082  62.6281715
   4.0443121  59.7487692  62.9448210   2.9153244  58.7864533  62.6428051
   4.8969476  58.4695068  59.2891793   3.9465107  58.4696930  59.1756166
   5.2001962  57.7227803  58.7727828   8.7832031  36.3868954  55.4569974
   8.0164427  35.8327441  55.6026656   9.1942736  36.4590823  56.3184125
  20.6322169  64.3055607  60.3537556  21.2700579  64.1862354  59.6500896
  20.5143012  65.2536451  60.4125508  17.4411876  64.2583035  60.2899081
  17.1030387  64.1424099  59.4019615  18.3101644  63.8574200  60.2700087
  13.2998691  66.1118511  56.2795971  12.7363556  66.0208448  55.5112259
  13.1851086  65.2918416  56.7598464  17.9231659  65.4117886  66.2485286
  17.9120299  65.0170685  65.3765790  18.0852298  64.6783959  66.8419057
  10.8463123  67.6069703  59.1180192  11.6384415  67.2660527  58.7026491
  11.0859773  67.7164678  60.0382345  18.8798250  69.7789479  51.5910436
  18.2286230  70.3643559  51.2044450  19.6742613  70.3095674  51.6505474
  12.8053877  66.8678616  51.9897571  13.5784753  66.3207603  51.8510447
  13.1579276  67.7322865  52.2012032  14.6438920  68.1954998  65.1964470
  14.3528786  69.1000629  65.0811136  15.2795904  68.2371526  65.9108540
  15.5695127  65.5731847  61.7865830  16.1658699  65.3487869  61.0722793
  15.6270098  64.8316592  62.3891278  15.1420155  63.0271282  49.6216021
  15.3945676  62.5052803  48.8599484  14.2044714  62.8637428  49.7242704
  20.1863438  62.0307060  57.4290764  20.9726527  61.6126484  57.0781181
  20.4502142  62.9353153  57.5972412  20.3573515  67.4679911  52.1279421
  19.7219348  67.5414537  52.8400325  20.0270922  68.0573510  51.4498500
  25.5871865  61.9682294  58.3323742  26.3197037  61.3981510  58.5661572
  24.8311221  61.5803894  58.7730248  14.8616444  64.9299388  51.8240396
  14.7452702  64.2544291  52.4921480  14.9718704  64.4431762  51.0072549
  17.2047985  64.3909535  55.5287085  16.8406192  63.8640156  56.2400006
  18.0615101  64.0008004  55.3553570  23.1097285  55.6803868  62.7918351
  22.7780610  56.5499279  62.5679566  22.5142899  55.3640152  63.4712381
  16.8453472  59.4199435  50.5248433  17.0127874  60.2879671  50.8918904
  16.6550641  59.5826717  49.6009723  19.6028805  67.8816414  62.1914264
  19.3029528  68.7841453  62.0830071  19.2579864  67.6148597  63.0435417
  13.0541286  64.3330211  58.2250968  12.1291783  64.2006425  58.4328660
  13.3025699  65.1124430  58.7220911  23.0025949  60.3998954  59.8711701
  22.0942826  60.3314362  59.5770462  22.9513544  60.8770899  60.6993526
  16.8242692  61.8757092  51.5095100  16.7042318  62.3214143  52.3480580
  16.1295281  62.2242410  50.9508638  10.4150097  63.9763484  59.0594757
  10.5442478  64.2297963  59.9734169   9.7347549  64.5691192  58.7399412
  14.5849585  74.6460734  55.1585231  14.5073614  75.5968559  55.2373712
  13.9811228  74.3006607  55.8160158  17.0766814  61.8188600  67.8146598
  16.3000148  62.3782520  67.8049463  17.7157377  62.3045382  68.3361468
  24.8687595  58.6015392  61.6489575  24.2261975  58.8947925  61.0029370
  24.3642524  58.4868313  62.4542772  22.5227759  62.3478566  52.3375434
  23.4345615  62.5805952  52.1623132  22.0137406  62.9315610  51.7750513
  15.3313187  64.6274053  67.3764565  16.0727871  65.1659097  67.0999389
  14.6250172  65.2540342  67.5336117  20.8068526  66.7703193  65.9736727
  21.2151882  66.3285604  65.2291359  20.0845788  66.1955821  66.2270920
  17.1599596  61.7075800  63.3470284  18.0060792  62.1315214  63.4904933
  17.0998234  61.0509424  64.0408847  21.1297341  67.3304384  59.7289016
  20.5006203  67.4950098  59.0265084  20.7423003  67.7445994  60.4999980
  25.0086573  68.2658822  57.0833379  24.3237611  68.6457723  56.5330413
  25.0930422  68.8754148  57.8165327  20.3099042  59.3680168  65.0051457
  20.0659974  60.1222229  64.4685733  20.5858972  59.7465516  65.8398704
  22.2637504  65.9118781  63.6828723  22.4754400  66.5550541  63.0063104
  22.2167253  65.0781097  63.2150653  19.8663733  58.5236601  60.5865295
  19.0048212  58.8217855  60.8782033  19.8926168  58.7407000  59.6546328
  16.6825303  67.0678792  56.9939101  17.1463648  67.3466495  56.2043723
  16.4182101  66.1662237  56.8112191  13.5749384  66.6150274  59.9318864
  14.1450741  67.0437542  59.2936349  14.1657496  66.3332858  60.6303050
  15.6194189  63.1901944  53.8028666  16.3218232  63.6422988  54.2702592
  15.2874817  62.5485763  54.4308559  14.0674550  61.7813701  68.1779875
  13.4373211  62.4629982  68.4115272  13.9610638  61.6696783  67.2333014
   9.3619523  61.4485497  59.1045799   8.5718577  61.7043026  58.6285910
   9.8530770  62.2633835  59.2097840  23.3783332  68.7890736  61.8551080
  24.2000776  68.3870924  61.5733762  23.3745735  68.6858970  62.8067196
  11.3134268  61.8130076  56.0629276  10.5165432  61.9248771  56.5812772
  11.0859860  62.1516729  55.1970167  17.1439936  68.3374780  64.0111791
  17.2084368  68.7995187  64.8469963  16.4350860  67.7072144  64.1394101
   7.6457226  61.7015988  61.5360790   7.8965264  62.5862997  61.8018366
   8.1816774  61.5220589  60.7635882  31.4689325  65.1329485  58.2036052
  30.7153034  64.5636883  58.0480056  31.6036867  65.0992149  59.1506686
  16.8587954  70.0042887  53.8790771  16.7233628  70.8494423  54.3075619
  17.3997766  70.2062165  53.1156705  13.3455293  56.0834467  70.5405126
  12.9522239  55.5300665  71.2152771  14.1621433  56.3945045  70.9311644
  10.3117351  67.5218325  54.4518696  10.8241871  68.3161575  54.6024261
  10.9640064  66.8244616  54.3852298  12.1212236  70.6384081  56.5341449
  12.2978864  71.5602046  56.3462433  12.9169069  70.3242501  56.9635829
  16.2623254  57.4992346  68.1325383  17.0032968  58.0999499  68.0529845
  16.4941177  56.7569984  67.5743425  11.4064592  62.6848713  66.4103613
  11.2918107  61.7833970  66.7110711  10.5509110  62.9312410  66.0588429
  18.4856430  70.6266454  68.0091113  18.0420284  69.8402832  67.6912018
  19.1473643  70.8145604  67.3435004  13.2443551  72.1562255  62.5351792
  13.7950976  72.0279319  61.7628786  12.4055027  72.4557144  62.1846684
  20.5837668  70.9069253  66.0372514  20.5656143  71.7278135  65.5452784
  21.5057588  70.7823329  66.2622656  17.0410722  68.4213383  66.8796023
  17.5739059  67.6601671  66.6495331  16.5124803  68.1287035  67.6220177
  20.2080417  53.5273449  62.4089665  19.8644686  54.4175091  62.3328775
  20.5759380  53.3375107  61.5459250   8.2766268  65.8506979  55.2278267
   9.1141490  66.2603988  55.0111974   8.4544535  64.9106422  55.1978461
  20.1730700  63.5182060  50.9162100  19.6577323  64.2886665  51.1550487
  19.9008008  62.8447196  51.5395161  17.7577811  58.3631761  55.9747338
  16.9019407  57.9738611  55.7952977  18.1704763  58.4423722  55.1147124
  19.2876957  55.8978104  60.3738898  18.7841753  55.8608239  59.5606703
  19.5807564  56.8070847  60.4335554  15.5319843  55.9816834  59.3805080
  16.3972840  55.7859642  59.0210969  15.5997352  55.7527186  60.3074436
  25.1464974  66.2714415  52.8515273  24.3694417  65.9325574  52.4070435
  25.8256455  66.2767038  52.1770238  19.9617003  61.3909152  52.7421881
  19.6567139  61.7055301  53.5932024  20.9147445  61.4690572  52.7849214
  18.4063435  67.5499375  54.3914835  17.8784796  66.8152135  54.0788072
  17.9050938  68.3274052  54.1454803  23.3856281  65.7448396  59.5081881
  22.7279955  66.4347657  59.5962010  24.1896680  66.1344828  59.8515868
  13.1382162  58.2119042  56.7521446  13.7125914  57.9894223  56.0194639
  13.7253145  58.2807736  57.5050048  22.1961740  64.0992769  57.5585823
  22.7093621  64.7322760  58.0607533  22.8462964  63.4993964  57.1929183
  13.4651750  60.2423503  50.7717332  12.6289062  60.5798189  51.0926606
  13.3256519  60.1072483  49.8344469  15.4404830  55.0860291  55.4796516
  14.7869242  54.7709308  54.8553131  15.3985304  54.4636031  56.2056339
  16.5516035  65.3679586  47.3949808  15.6443097  65.1368839  47.5940957
  17.0487067  64.5717205  47.5823789  19.4584114  74.0777093  50.3146494
  18.7845813  74.3808790  50.9231452  19.8449936  74.8806173  49.9651951
  18.6742570  61.5742224  59.8044163  17.7565132  61.7957171  59.6465851
  19.0902714  61.6488535  58.9455871  19.4577618  62.9733640  54.9346844
  20.2049437  63.4855037  54.6253966  19.7269208  62.6517693  55.7951237
  17.7304268  65.4692181  51.9173798  16.8215488  65.1851213  52.0146268
  17.7599352  65.8891259  51.0577105  22.9623536  69.0798770  55.6864966
  22.5085863  68.2389680  55.7430156  22.3317503  69.7160168  56.0239746
  21.9056455  60.0090756  56.9165633  21.1679212  59.4968142  57.2475876
  22.1583229  59.5691138  56.1048910  21.4056475  70.9175267  56.6214784
  21.6979449  71.4780324  55.9027149  21.9155096  71.2103828  57.3767943
  22.0068083  52.7867008  57.5107402  22.3126960  51.9264372  57.2233317
  22.7320688  53.3784628  57.3106396   8.2992439  63.1897695  55.8989000
   8.1016839  62.5967055  55.1740067   7.7439103  62.8849905  56.6164939
  16.2789162  63.0820801  58.0183593  16.3337772  62.1294638  57.9426070
  15.4680365  63.2380240  58.5024892  17.4280356  67.0100924  49.2561877
  16.9899786  66.2936783  48.7967514  18.1690797  67.2377039  48.6946968
  14.2181522  61.6997861  55.7773972  13.4049388  61.9992031  56.1839164
  14.7140517  61.3053550  56.4948454  16.3690100  71.6955618  57.7108237
  16.3266279  71.9216464  56.7816769  17.2852799  71.4618992  57.8594038
  19.8155734  62.1639685  64.6088866  20.1705122  62.3911159  65.4683332
  20.4627865  62.4958062  63.9866121  25.5453471  65.2858121  55.3138195
  25.4071370  65.4759717  54.3859384  25.1889690  66.0477504  55.7706246
  13.7095597  59.2716216  61.3935207  14.3494976  59.1304976  60.6958170
  12.8773128  58.9850730  61.0173809  25.5722851  67.3534648  60.3249467
  26.0059357  67.2609937  61.1732521  26.2854431  67.3292149  59.6869483
  14.4855901  68.5718647  57.5070200  15.2796500  68.0768967  57.3052775
  13.7747593  68.0436510  57.1437905  19.3050746  70.9536742  61.8582567
  19.3587768  71.5227679  62.6260283  18.4365527  71.1238627  61.4936604
  10.7938665  62.7161729  53.5829952   9.8636253  62.6546184  53.7999914
  10.8896137  62.1937681  52.7866594  10.7124214  59.2416541  56.1708194
  10.9731031  60.1561875  56.0617354  11.5341386  58.7740984  56.3204807
  12.1849139  60.6554299  63.3407018  12.8572192  60.4471661  62.6919667
  11.3578925  60.4576385  62.9012251  26.4338400  67.3958349  62.8582352
  26.6274290  68.3004159  63.1041627  26.3339018  66.9365768  63.6920937
  18.0874711  57.2816240  65.3572679  17.4402626  57.9806189  65.2637156
  18.8575726  57.7152383  65.7248928  21.4953509  67.5465092  68.4323233
  21.3439015  67.3175643  67.5153316  21.4858188  68.5035693  68.4454578
  18.2638845  65.1197004  63.4169499  19.1930905  65.2708164  63.2438466
  17.8429875  65.2081025  62.5618146  17.0627177  69.1447669  61.1868037
  16.9238263  68.7766453  62.0593975  16.2741773  69.6595308  61.0151994
  17.6575329  74.2456765  52.5293573  17.8327085  73.7744809  53.3439196
  16.9708117  74.8722532  52.7574834  18.6132392  68.5229272  58.5756874
  18.2782225  68.4830042  59.4714524  18.1136338  67.8573987  58.1027285
  12.5876636  63.9296902  64.1009456  12.4496434  63.1977140  64.7020995
  13.4981560  63.8405802  63.8193643  21.5491584  65.8685306  48.8493934
  20.9320754  65.1432134  48.7526987  21.0808072  66.6294666  48.5061008
  15.2158937  63.6416861  63.5893135  15.9258555  63.0010053  63.5479754
  15.1728245  63.8929756  64.5119316  23.2045716  70.5784214  66.5099714
  23.1458262  69.8943434  65.8430298  23.6065234  71.3203204  66.0580340
  13.9287871  60.6282079  65.4088775  13.3925228  60.1772817  66.0610371
  13.3404579  60.7627988  64.6659239  12.2236414  77.3946128  59.3033433
  12.4633013  78.0264652  59.9812452  11.3805611  77.0434168  59.5898793
  13.3390130  60.0870730  47.9715238  12.4619596  59.9659531  47.6077485
  13.8147883  59.2956809  47.7194127  23.2063123  68.5423798  64.7413694
  22.3189902  68.2049720  64.8640093  23.7761674  67.8106829  64.9782460
   4.8592270  64.8747890  58.0656746   5.5463310  64.5609620  57.4777761
   4.7040399  65.7789255  57.7923997   9.6626992  59.7638086  62.4941769
   9.5785181  59.1563756  61.7592179   8.8409698  60.2547105  62.4951266
  16.7364276  73.2025251  61.7074937  16.6634448  74.0080222  62.2194242
  16.2941669  73.4017216  60.8822959  16.5254056  72.4397021  55.2177759
  15.7421578  72.9818701  55.3115983  17.2246801  72.9571000  55.6172000
  19.8350706  58.2491650  57.8611964  20.3319405  57.4961612  57.5413035
  19.0637687  58.2855967  57.2955174  27.6880463  63.9532016  59.5030256
  27.6770340  64.8356731  59.1324189  26.8197843  63.6003566  59.3084793
  19.1962960  73.1012085  63.8633096  19.9090932  73.7359549  63.7908997
  18.7052988  73.1975951  63.0473098  20.9180487  67.0063337  55.4350388
  19.9836765  67.1264800  55.2655092  21.0957155  66.1035804  55.1710398
  16.4185675  60.3909033  57.5883649  16.0483462  59.8380073  58.2764554
  16.9144767  59.7867166  57.0358649  24.3053038  62.8480657  55.9700422
  24.7713490  63.6808648  55.8960725  24.7560538  62.3825638  56.6745680
  14.2474873  70.8506528  64.6838667  14.9484333  71.4843011  64.8368061
  13.7769988  71.1921260  63.9234306  22.3729269  69.1924478  52.9686574
  22.6489113  69.0781072  53.8780448  21.5033768  68.7941963  52.9298747
  22.2769701  55.2161244  60.0091323  21.3632780  55.4465470  60.1773530
  22.7062802  55.2999688  60.8605356  22.0476159  63.4051135  62.5091217
  21.3947609  63.6527043  61.8543670  22.4256539  62.5915274  62.1753694
  19.0083333  73.4410829  56.6119388  19.1905728  72.6232485  57.0747140
  19.8316319  73.6578521  56.1744277  19.3425499  72.3679014  53.8734436
  19.8713265  71.8571468  53.2604598  19.6053718  72.0521544  54.7379969
  18.0963732  64.1470947  68.9957254  17.4204369  64.0465076  69.6659630
  18.9191366  63.9910160  69.4593252   9.8442591  70.3842883  61.6169770
  10.4296028  69.6386571  61.7497674   9.6467430  70.6946840  62.5006433
  12.6981247  73.4194130  56.6332212  12.0291622  73.9040258  56.1496252
  12.5594116  73.6663351  57.5475590   4.4360246  62.9548483  60.3374213
   4.4744346  62.4212074  61.1311331   3.9300539  62.4283689  59.7185190
  16.8386515  75.4537874  63.2314870  17.3904823  75.6169495  63.9963956
  17.1792709  76.0442312  62.5594895  11.8151008  57.8013024  63.8336755
  11.8792335  58.6627855  63.4214153  11.7518129  57.1887025  63.1009114
  11.2903281  59.8736156  67.4809789  11.9175320  59.4913234  68.0947314
  10.4331200  59.6550358  67.8465482  21.6897389  70.2799131  69.0863525
  22.2337293  70.8929090  68.5918480  21.1084234  70.8378710  69.6030538
   8.0668824  61.6812585  53.4128144   8.3622265  60.7723264  53.3595198
   7.1656859  61.6600325  53.0909146  19.9754902  73.4019850  60.2178552
  19.8506042  72.6009589  59.7089498  20.6333993  73.8966043  59.7292522
  11.5963071  59.7568582  59.3955693  10.8749656  60.3704550  59.2563166
  12.3856326  60.2926347  59.3172339  22.0389811  71.2028870  61.8458103
  21.0920146  71.0834221  61.7736429  22.3872584  70.3151368  61.9284364
  14.3989384  57.0923009  65.6696344  14.9223786  57.3385305  66.4322654
  14.1801717  57.9243043  65.2499482   9.7956665  59.3626683  53.5367469
   9.4669371  58.4824062  53.3542575  10.1496036  59.3074352  54.4243858
  19.0436244  70.9981586  58.0462455  18.8961206  70.0698293  58.2270025
  19.8689738  71.0201677  57.5619530  12.9098488  59.6499653  53.9042947
  13.2494561  60.1785574  53.1821555  13.3570609  59.9880059  54.6801513
  22.6470366  71.8210145  59.1327328  23.5716913  71.6153006  58.9951779
  22.4785669  71.5726546  60.0416669  15.6041929  58.0336704  63.3546015
  15.2638750  57.2344517  63.7566695  14.8980935  58.3338414  62.7822848
  16.2558401  55.1186016  61.8073338  17.0784470  54.6446494  61.6852228
  16.4996465  55.8976500  62.3072024  14.8966635  58.1474274  52.1036240
  15.6174998  58.5255527  51.5999957  14.2731940  58.8663151  52.2071218
  19.0397758  58.8519423  53.0394572  19.2561373  59.7344061  52.7383400
  18.5591826  58.4605637  52.3100214  13.7796980  61.8105137  59.6165317
  13.6341560  62.1245440  60.5089598  13.3022183  62.4290037  59.0636215
  15.6393363  58.8007685  59.6646206  15.6254931  57.9048778  59.3278504
  16.3565791  58.8078348  60.2984492  17.4919493  59.2345025  61.7099334
  17.2337271  60.1562096  61.7083664  16.9604534  58.8375459  62.3999798
  22.4365682  72.3395812  54.4889419  22.6102560  71.7742234  53.7363271
  22.9294573  73.1396707  54.3068909   8.2542642  64.3510481  62.5552978
   7.7096110  65.1270289  62.6873252   9.1321992  64.6981286  62.3972099
  15.0430259  57.6822065  54.9333776  15.1646170  56.7538711  55.1324664
  14.7532301  57.6960751  54.0212092  17.9121449  55.3676975  58.0700496
  17.9343146  55.4316308  57.1152476  18.3289508  54.5281484  58.2641002
  28.2905073  65.1032235  56.1079719  28.7336219  64.3539560  55.7098842
  27.4131584  65.0942371  55.7253451  23.4240855  71.6562576  51.5886317
  24.1191759  72.2769269  51.8073632  23.7664005  70.8057928  51.8638695
   9.0408664  63.4780377  65.4483135   8.2990400  63.6263013  66.0347765
   8.7201408  63.7388643  64.5849884  25.3232278  69.1062282  53.1173648
  25.8483602  69.4449555  52.3922968  25.2354630  68.1709297  52.9336783
  16.9852326  73.0196356  65.2463525  17.2939453  72.7745502  66.1186224
  17.7827808  73.2242994  64.7582395  17.0072938  75.1734265  57.4768901
  16.5677929  74.6810644  58.1701758  17.7581055  74.6307233  57.2360976
   9.4865277  71.3645806  57.4793529  10.3123297  71.0649578  57.0992173
   9.1359329  70.5953429  57.9283318  14.4546811  70.7172274  59.5491203
  13.8326820  70.0542979  59.2493431  15.1251678  70.7433406  58.8664851
   7.6873882  69.2832133  58.4382463   6.8505791  68.8554307  58.2566464
   7.6597528  69.4764576  59.3753254  14.5271338  59.1954062  69.1423709
  14.5759494  60.0716185  68.7601478  15.0693852  58.6531455  68.5695352
  25.0126184  69.7395186  68.4224846  24.2221727  69.7219324  67.8829345
  24.7759538  70.2783479  69.1773883  25.1324059  66.5887652  65.7357575
  25.1822064  66.4237659  66.6773097  25.0237982  65.7214911  65.3455455
  14.0160318  69.2676198  53.0249663  14.1648438  69.9511662  52.3716336
  14.8226761  69.2481288  53.5399119  22.4227821  62.5718580  67.0516881
  23.3237684  62.4325045  66.7600879  22.4975796  62.7373035  67.9915059
  16.7570627  59.9485435  65.8970068  15.8873936  60.2419001  65.6252656
  16.9930107  60.5325880  66.6177331  26.6342256  69.0084593  65.9799596
  26.3427064  69.3714574  66.8163057  26.0214387  68.2951602  65.8012928
  27.8337938  66.5737473  58.5002166  28.6684829  67.0127277  58.6639727
  27.9697067  66.0976126  57.6810412  24.8829444  64.1317208  64.4479654
  25.3583566  64.3244854  63.6398505  23.9595009  64.1876394  64.2023038
  11.7712951  65.2941375  54.0310732  11.5258992  64.3903705  54.2290942
  11.9408865  65.2958526  53.0890210  19.4609660  56.1665052  63.4135488
  19.9791604  56.9026079  63.0881977  19.1064793  56.4729045  64.2482247
  11.0408598  61.0269733  51.5296894  10.3477843  61.1014088  50.8736930
  10.7960350  60.2630076  52.0518411  19.7122255  52.5865334  58.9336385
  19.9924008  51.9188523  59.5596811  20.4972861  52.7794430  58.4211048
  17.5155723  71.7624328  50.4961411  16.9429690  72.3814515  50.0431883
  18.0888517  72.3123690  51.0301333  23.5831113  61.0082968  62.6807960
  24.5348536  61.1081066  62.7020184  23.4134563  60.2161237  63.1906044
  21.6045492  58.0938551  62.8667361  21.0095424  58.3743564  62.1713849
  21.3195189  58.5832452  63.6384102  20.7352983  72.0461478  51.6269993
  21.6683656  71.9807040  51.8302869  20.6476196  72.8817745  51.1684526
  23.3641000  71.3627349  48.5873941  23.2854631  71.0287212  49.4809699
  24.1850666  71.8549116  48.5865413  26.0619191  64.2289088  61.7950259
  26.0295511  63.2905089  61.9809943  26.6719814  64.3073125  61.0616084
  17.9002522  63.0985141  47.8377463  18.8461626  62.9691349  47.9065881
  17.5216767  62.3599803  48.3146892  26.2113679  61.0200131  61.8408542
  25.6952728  60.2358588  61.6538471  27.0953628  60.6918848  62.0055062
  23.8724406  54.7641147  57.8004355  23.6749227  54.4556235  58.6847687
  24.4824112  55.4902786  57.9302285  31.8795741  65.2905095  60.9356296
  32.6099129  65.0290383  61.4963999  31.2702686  64.5533817  60.9758364
  29.9611038  63.4312957  61.5330747  29.2344201  63.2968922  60.9247239
  29.5458325  63.7389786  62.3387465  17.7841214  67.1502887  69.2978120
  18.7044224  67.3281486  69.4918167  17.7490797  66.2058932  69.1457820
  16.0845439  61.0235117  47.7732349  15.1776894  60.7268230  47.8495062
  16.3621420  60.7264935  46.9066635   7.0023379  62.3441481  58.2231395
   6.6826163  61.4906789  57.9305769   6.4556807  62.5590059  58.9789362
  10.7803287  65.0603922  61.9400901  10.9989296  65.9921029  61.9588935
  11.1929060  64.7011896  62.7255705  17.7007504  55.5672007  53.9276590
  16.8908233  55.2219092  54.3031836  18.3891921  55.2579551  54.5164201
  19.6298053  54.6450054  55.5500886  20.1829091  55.0645507  56.2090910
  19.8668139  53.7185802  55.5923843  15.6531152  60.6337127  71.3303650
  15.5527879  61.5831484  71.2615741  15.4352694  60.3055366  70.4579720
  14.8544223  57.8822052  47.9144328  15.7163387  58.2076951  48.1740145
  15.0394567  57.0953548  47.4017394   6.8711639  65.9644392  60.1924517
   6.1775111  65.5498345  59.6794471   7.6184630  66.0064929  59.5957935
  23.0076860  56.7550579  55.0579551  22.4275529  57.4135383  54.6757603
  22.7412792  55.9327924  54.6466968  21.4580426  56.1555637  57.2600871
  21.9580205  56.2672171  56.4515190  22.1016034  55.8516689  57.9001680
  15.5162422  64.0634266  70.1468712  15.0329504  64.8634626  70.3532601
  15.6023361  64.0742211  69.1936156   8.7848382  65.8962646  58.0690531
   8.7619070  65.9950333  57.1172415   9.0949018  66.7427797  58.3907698
  11.4435759  67.9538801  62.1837146  12.3979013  67.9222743  62.1167077
  11.2448283  67.4929425  62.9987372  12.0335142  66.5239917  64.7507944
  12.8528031  67.0183996  64.7742781  12.3071949  65.6071885  64.7225511
  21.7901738  58.9150669  54.1135899  20.9027593  59.2000320  53.8956094
  22.2055727  58.7544433  53.2663176  25.1416274  58.9397190  57.8290238
  25.9176664  59.4293643  58.1014855  24.4164408  59.3655244  58.2862108
  27.5788833  59.6524809  58.8864179  28.1733323  59.4120545  58.1757487
  27.6515416  58.9331940  59.5137715   9.7985988  73.4958420  59.2007344
   9.6640456  72.7358821  58.6345342   9.3818051  74.2199320  58.7336133
  20.9344951  68.6795344  48.2083919  21.6380801  68.8845346  48.8241575
  20.2107600  69.2472106  48.4733003  21.7642762  64.4305205  54.3286189
  21.7077963  64.8873757  53.4893822  22.3171104  63.6695890  54.1509032
  25.5747567  60.2194937  55.1536309  25.3184502  59.8191573  55.9844516
  24.9500436  60.9338731  55.0286448  29.8859905  62.9591010  57.6607600
  29.3259463  63.0284200  58.4339162  29.2803409  62.7831995  56.9407096
  12.9555114  74.3927737  59.4125786  12.8387498  75.3373170  59.3104477
  12.1347560  74.0901299  59.8011586  22.8431649  69.1177873  50.2582379
  23.6777253  68.6859072  50.0759854  22.6815992  68.9459887  51.1859274
  22.4977541  65.6209986  51.6238718  22.4426345  65.4554258  50.6827162
  21.8723596  66.3286019  51.7800908   7.2870056  60.8578051  65.4500141
   7.9328919  60.3477005  65.9387366   7.0787207  61.5946732  66.0243566
  19.8123448  67.9258898  70.9492281  20.6814608  68.0999551  70.5878916
  19.3330200  68.7453315  70.8268010  15.8073666  55.1218095  51.2024037
  15.7952336  56.0659935  51.3592308  16.6997088  54.9388241  50.9083498
  13.9809628  75.0455999  62.6281715  14.8836875  75.0779610  62.9448210
  13.7546998  74.1156450  62.6428051  15.7363230  73.7986986  59.2891793
  14.7858861  73.7988847  59.1756166  16.0395716  73.0519720  58.7727828
  19.6225786  51.7160872  55.4569974  18.8558182  51.1619359  55.6026656
  20.0336491  51.7882741  56.3184125  11.6267547  58.0045668  69.5475155
  12.4899008  57.6482473  69.7578479  11.0532958  57.6659563  70.2350559
  31.4715924  79.6347524  60.3537556  32.1094334  79.5154272  59.6500896
  31.3536767  80.5828368  60.4125508  28.2805630  79.5874952  60.2899081
  27.9424142  79.4716017  59.4019615  29.1495398  79.1866117  60.2700087
  24.1392446  81.4410429  56.2795971  23.5757311  81.3500366  55.5112259
  24.0244841  80.6210333  56.7598464  28.7625413  80.7409804  66.2485286
  28.7514054  80.3462602  65.3765790  28.9246053  80.0075877  66.8419057
  21.6856878  82.9361620  59.1180192  22.4778170  82.5952445  58.7026491
  21.9253528  83.0456595  60.0382345  29.7192004  85.1081396  51.5910436
  29.0679984  85.6935477  51.2044450  30.5136367  85.6387591  51.6505474
  23.6447632  82.1970534  51.9897571  24.4178508  81.6499521  51.8510447
  23.9973031  83.0614783  52.2012032  25.4832674  83.5246916  65.1964470
  25.1922540  84.4292547  65.0811136  26.1189659  83.5663444  65.9108540
  26.4088881  80.9023764  61.7865830  27.0052453  80.6779787  61.0722793
  26.4663853  80.1608510  62.3891278  25.9813909  78.3563200  49.6216021
  26.2339430  77.8344721  48.8599484  25.0438469  78.1929345  49.7242704
  31.0257192  77.3598978  57.4290764  31.8120282  76.9418401  57.0781181
  31.2895897  78.2645070  57.5972412  31.1967270  82.7971828  52.1279421
  30.5613103  82.8706455  52.8400325  30.8664676  83.3865427  51.4498500
  36.4265619  77.2974211  58.3323742  37.1590791  76.7273428  58.5661572
  35.6704975  76.9095812  58.7730248  25.7010198  80.2591306  51.8240396
  25.5846456  79.5836209  52.4921480  25.8112458  79.7723680  51.0072549
  28.0441739  79.7201453  55.5287085  27.6799946  79.1932074  56.2400006
  28.9008855  79.3299922  55.3553570  27.6847226  74.7491353  50.5248433
  27.8521628  75.6171589  50.8918904  27.4944395  74.9118634  49.6009723
  30.4422559  83.2108331  62.1914264  30.1423282  84.1133370  62.0830071
  30.0973619  82.9440515  63.0435417  23.8935041  79.6622128  58.2250968
  22.9685537  79.5298342  58.4328660  24.1419454  80.4416348  58.7220911
  33.8419703  75.7290872  59.8711701  32.9336580  75.6606280  59.5770462
  33.7907299  76.2062817  60.6993526  27.6636447  77.2049010  51.5095100
  27.5436072  77.6506061  52.3480580  26.9689035  77.5534328  50.9508638
  21.2543852  79.3055402  59.0594757  21.3836233  79.5589881  59.9734169
  20.5741303  79.8983110  58.7399412  25.4243339  89.9752652  55.1585231
  25.3467369  90.9260477  55.2373712  24.8204983  89.6298524  55.8160158
  27.9160569  77.1480517  67.8146598  27.1393903  77.7074437  67.8049463
  28.5551132  77.6337300  68.3361468  33.3621513  77.6770483  52.3375434
  34.2739369  77.9097870  52.1623132  32.8531160  78.2607527  51.7750513
  26.1706941  79.9565971  67.3764565  26.9121626  80.4951015  67.0999389
  25.4643927  80.5832259  67.5336117  31.6462281  82.0995111  65.9736727
  32.0545637  81.6577522  65.2291359  30.9239542  81.5247739  66.2270920
  27.9993351  77.0367718  63.3470284  28.8454546  77.4607131  63.4904933
  27.9391989  76.3801342  64.0408847  31.9691095  82.6596302  59.7289016
  31.3399958  82.8242016  59.0265084  31.5816758  83.0737911  60.4999980
  35.8480327  83.5950739  57.0833379  35.1631365  83.9749641  56.5330413
  35.9324177  84.2046066  57.8165327  31.1492796  74.6972086  65.0051457
  30.9053728  75.4514147  64.4685733  31.4252727  75.0757434  65.8398704
  33.1031259  81.2410699  63.6828723  33.3148154  81.8842458  63.0063104
  33.0561007  80.4073015  63.2150653  30.7057488  73.8528519  60.5865295
  29.8441967  74.1509773  60.8782033  30.7319923  74.0698918  59.6546328
  27.5219057  82.3970710  56.9939101  27.9857403  82.6758413  56.2043723
  27.2575855  81.4954154  56.8112191  24.4143138  81.9442191  59.9318864
  24.9844495  82.3729460  59.2936349  25.0051250  81.6624776  60.6303050
  26.4587943  78.5193862  53.8028666  27.1611987  78.9714906  54.2702592
  26.1268572  77.8777681  54.4308559  24.9068305  77.1105619  68.1779875
  24.2766965  77.7921900  68.4115272  24.8004393  76.9988700  67.2333014
  20.2013277  76.7777415  59.1045799  19.4112331  77.0334943  58.6285910
  20.6924525  77.5925753  59.2097840  34.2177087  84.1182654  61.8551080
  35.0394531  83.7162841  61.5733762  34.2139490  84.0150888  62.8067196
  22.1528023  77.1421994  56.0629276  21.3559186  77.2540688  56.5812772
  21.9253615  77.4808646  55.1970167  27.9833690  83.6666697  64.0111791
  28.0478123  84.1287104  64.8469963  27.2744614  83.0364062  64.1394101
  18.4850980  77.0307905  61.5360790  18.7359019  77.9154915  61.8018366
  19.0210529  76.8512507  60.7635882  42.3083080  80.4621402  58.2036052
  41.5546788  79.8928800  58.0480056  42.4430621  80.4284067  59.1506686
  27.6981708  85.3334805  53.8790771  27.5627383  86.1786340  54.3075619
  28.2391521  85.5354082  53.1156705  24.1849048  71.4126385  70.5405126
  23.7915993  70.8592583  71.2152771  25.0015188  71.7236963  70.9311644
  21.1511105  82.8510243  54.4518696  21.6635626  83.6453493  54.6024261
  21.8033818  82.1536533  54.3852298  22.9605990  85.9675999  56.5341449
  23.1372618  86.8893964  56.3462433  23.7562824  85.6534418  56.9635829
  27.1017009  72.8284264  68.1325383  27.8426722  73.4291417  68.0529845
  27.3334931  72.0861901  67.5743425  22.2458347  78.0140631  66.4103613
  22.1311862  77.1125888  66.7110711  21.3902864  78.2604328  66.0588429
  29.3250184  85.9558371  68.0091113  28.8814039  85.1694750  67.6912018
  29.9867398  86.1437522  67.3435004  24.0837306  87.4854173  62.5351792
  24.6344731  87.3571236  61.7628786  23.2448781  87.7849062  62.1846684
  31.4231422  86.2361171  66.0372514  31.4049898  87.0570052  65.5452784
  32.3451342  86.1115246  66.2622656  27.8804477  83.7505301  66.8796023
  28.4132813  82.9893589  66.6495331  27.3518558  83.4578952  67.6220177
  31.0474172  68.8565367  62.4089665  30.7038441  69.7467008  62.3328775
  31.4153134  68.6667024  61.5459250  19.1160022  81.1798897  55.2278267
  19.9535244  81.5895905  55.0111974  19.2938290  80.2398339  55.1978461
  31.0124454  78.8473978  50.9162100  30.4971078  79.6178582  51.1550487
  30.7401763  78.1739114  51.5395161  28.5971565  73.6923678  55.9747338
  27.7413162  73.3030529  55.7952977  29.0098517  73.7715639  55.1147124
  30.1270712  71.2270022  60.3738898  29.6235508  71.1900157  59.5606703
  30.4201319  72.1362764  60.4335554  26.3713598  71.3108751  59.3805080
  27.2366595  71.1151560  59.0210969  26.4391107  71.0819103  60.3074436
  35.9858728  81.6006332  52.8515273  35.2088171  81.2617492  52.4070435
  36.6650209  81.6058956  52.1770238  30.8010757  76.7201070  52.7421881
  30.4960893  77.0347219  53.5932024  31.7541200  76.7982490  52.7849214
  29.2457189  82.8791293  54.3914835  28.7178551  82.1444053  54.0788072
  28.7444692  83.6565969  54.1454803  34.2250035  81.0740314  59.5081881
  33.5673710  81.7639575  59.5962010  35.0290435  81.4636746  59.8515868
  23.9775917  73.5410959  56.7521446  24.5519669  73.3186141  56.0194639
  24.5646899  73.6099654  57.5050048  33.0355494  79.4284686  57.5585823
  33.5487376  80.0614678  58.0607533  33.6856718  78.8285882  57.1929183
  24.3045504  75.5715420  50.7717332  23.4682816  75.9090107  51.0926606
  24.1650274  75.4364400  49.8344469  26.2798585  70.4152208  55.4796516
  25.6262997  70.1001225  54.8553131  26.2379059  69.7927949  56.2056339
  27.3909789  80.6971503  47.3949808  26.4836851  80.4660757  47.5940957
  27.8880821  79.9009123  47.5823789  30.2977868  89.4069011  50.3146494
  29.6239567  89.7100707  50.9231452  30.6843690  90.2098091  49.9651951
  29.5136325  76.9034142  59.8044163  28.5958886  77.1249089  59.6465851
  29.9296469  76.9780452  58.9455871  30.2971373  78.3025558  54.9346844
  31.0443192  78.8146955  54.6253966  30.5662962  77.9809610  55.7951237
  28.5698023  80.7984098  51.9173798  27.6609242  80.5143131  52.0146268
  28.5993107  81.2183177  51.0577105  33.8017290  84.4090688  55.6864966
  33.3479617  83.5681598  55.7430156  33.1711257  85.0452086  56.0239746
  32.7450210  75.3382674  56.9165633  32.0072967  74.8260060  57.2475876
  32.9976983  74.8983055  56.1048910  32.2450230  86.2467184  56.6214784
  32.5373204  86.8072242  55.9027149  32.7548850  86.5395745  57.3767943
  32.8461837  68.1158926  57.5107402  33.1520714  67.2556289  57.2233317
  33.5714442  68.7076546  57.3106396  19.1386193  78.5189612  55.8989000
  18.9410593  77.9258973  55.1740067  18.5832857  78.2141823  56.6164939
  27.1182917  78.4112719  58.0183593  27.1731527  77.4586555  57.9426070
  26.3074119  78.5672158  58.5024892  28.2674111  82.3392842  49.2561877
  27.8293541  81.6228701  48.7967514  29.0084552  82.5668957  48.6946968
  25.0575277  77.0289779  55.7773972  24.2443142  77.3283949  56.1839164
  25.5534271  76.6345467  56.4948454  27.2083855  87.0247536  57.7108237
  27.1660034  87.2508382  56.7816769  28.1246554  86.7910910  57.8594038
  30.6549489  77.4931603  64.6088866  31.0098876  77.7203076  65.4683332
  31.3021620  77.8249980  63.9866121  36.3847226  80.6150039  55.3138195
  36.2465124  80.8051635  54.3859384  36.0283444  81.3769422  55.7706246
  24.5489352  74.6008134  61.3935207  25.1888731  74.4596893  60.6958170
  23.7166882  74.3142648  61.0173809  36.4116605  82.6826566  60.3249467
  36.8453112  82.5901855  61.1732521  37.1248186  82.6584066  59.6869483
  25.3249656  83.9010565  57.5070200  26.1190254  83.4060885  57.3052775
  24.6141348  83.3728428  57.1437905  30.1444500  86.2828660  61.8582567
  30.1981522  86.8519596  62.6260283  29.2759281  86.4530545  61.4936604
  21.6332419  78.0453646  53.5829952  20.7030007  77.9838102  53.7999914
  21.7289891  77.5229599  52.7866594  21.5517968  74.5708459  56.1708194
  21.8124785  75.4853792  56.0617354  22.3735140  74.1032902  56.3204807
  23.0242893  75.9846216  63.3407018  23.6965947  75.7763578  62.6919667
  22.1972680  75.7868302  62.9012251  37.2732155  82.7250267  62.8582352
  37.4668045  83.6296077  63.1041627  37.1732773  82.2657686  63.6920937
  28.9268465  72.6108157  65.3572679  28.2796380  73.3098107  65.2637156
  29.6969481  73.0444301  65.7248928  32.3347263  82.8757009  68.4323233
  32.1832770  82.6467561  67.5153316  32.3251943  83.8327611  68.4454578
  29.1032600  80.4488922  63.4169499  30.0324660  80.6000082  63.2438466
  28.6823630  80.5372943  62.5618146  27.9020932  84.4739587  61.1868037
  27.7632017  84.1058371  62.0593975  27.1135528  84.9887226  61.0151994
  28.4969084  89.5748683  52.5293573  28.6720839  89.1036726  53.3439196
  27.8101872  90.2014449  52.7574834  29.4526147  83.8521189  58.5756874
  29.1175979  83.8121959  59.4714524  28.9530092  83.1865905  58.1027285
  23.4270391  79.2588819  64.1009456  23.2890189  78.5269058  64.7020995
  24.3375314  79.1697719  63.8193643  32.3885338  81.1977224  48.8493934
  31.7714509  80.4724052  48.7526987  31.9201827  81.9586584  48.5061008
  26.0552691  78.9708779  63.5893135  26.7652310  78.3301971  63.5479754
  26.0121999  79.2221673  64.5119316  34.0439470  85.9076132  66.5099714
  33.9852016  85.2235352  65.8430298  34.4458988  86.6495122  66.0580340
  24.7681625  75.9573996  65.4088775  24.2318982  75.5064735  66.0610371
  24.1798334  76.0919905  64.6659239  23.0630169  92.7238046  59.3033433
  23.3026767  93.3556570  59.9812452  22.2199365  92.3726086  59.5898793
  24.1783884  75.4162648  47.9715238  23.3013351  75.2951449  47.6077485
  24.6541637  74.6248726  47.7194127  34.0456877  83.8715716  64.7413694
  33.1583656  83.5341638  64.8640093  34.6155428  83.1398747  64.9782460
  15.6986024  80.2039808  58.0656746  16.3857064  79.8901538  57.4777761
  15.5434153  81.1081172  57.7923997  20.5020747  75.0930004  62.4941769
  20.4178935  74.4855674  61.7592179  19.6803453  75.5839022  62.4951266
  27.5758031  88.5317168  61.7074937  27.5028202  89.3372140  62.2194242
  27.1335424  88.7309134  60.8822959  27.3647810  87.7688938  55.2177759
  26.5815332  88.3110618  55.3115983  28.0640555  88.2862918  55.6172000
  30.6744460  73.5783568  57.8611964  31.1713160  72.8253530  57.5413035
  29.9031442  73.6147884  57.2955174  38.5274218  79.2823933  59.5030256
  38.5164094  80.1648649  59.1324189  37.6591597  78.9295484  59.3084793
  30.0356714  88.4304002  63.8633096  30.7484686  89.0651467  63.7908997
  29.5446743  88.5267868  63.0473098  31.7574241  82.3355255  55.4350388
  30.8230520  82.4556717  55.2655092  31.9350910  81.4327722  55.1710398
  27.2579429  75.7200951  57.5883649  26.8877217  75.1671991  58.2764554
  27.7538522  75.1159084  57.0358649  35.1446792  78.1772574  55.9700422
  35.6107245  79.0100566  55.8960725  35.5954293  77.7117556  56.6745680
  25.0868628  86.1798446  64.6838667  25.7878087  86.8134929  64.8368061
  24.6163743  86.5213177  63.9234306  33.2123024  84.5216395  52.9686574
  33.4882867  84.4072990  53.8780448  32.3427522  84.1233880  52.9298747
  32.8869914  78.7343053  62.5091217  32.2341364  78.9818961  61.8543670
  33.2650294  77.9207191  62.1753694  29.8477088  88.7702746  56.6119388
  30.0299482  87.9524402  57.0747140  30.6710074  88.9870439  56.1744277
  30.1819253  87.6970931  53.8734436  30.7107019  87.1863386  53.2604598
  30.4447473  87.3813462  54.7379969  28.9357487  79.4762864  68.9957254
  28.2598124  79.3756994  69.6659630  29.7585121  79.3202078  69.4593252
  20.6836346  85.7134801  61.6169770  21.2689783  84.9678489  61.7497674
  20.4861184  86.0238757  62.5006433  23.5375001  88.7486048  56.6332212
  22.8685376  89.2332176  56.1496252  23.3987871  88.9955269  57.5475590
  15.2754001  78.2840401  60.3374213  15.3138100  77.7503992  61.1311331
  14.7694293  77.7575606  59.7185190  27.6780270  90.7829792  63.2314870
  28.2298578  90.9461413  63.9963956  28.0186463  91.3734229  62.5594895
  22.6544763  73.1304941  63.8336755  22.7186089  73.9919772  63.4214153
  22.5911883  72.5178943  63.1009114  22.1297035  75.2028074  67.4809789
  22.7569074  74.8205151  68.0947314  21.2724954  74.9842276  67.8465482
  32.5291144  85.6091049  69.0863525  33.0731048  86.2221007  68.5918480
  31.9477989  86.1670628  69.6030538  18.9062578  77.0104503  53.4128144
  19.2016019  76.1015182  53.3595198  18.0050614  76.9892243  53.0909146
  30.8148657  88.7311767  60.2178552  30.6899796  87.9301507  59.7089498
  31.4727748  89.2257961  59.7292522  22.4356825  75.0860500  59.3955693
  21.7143411  75.6996467  59.2563166  23.2250081  75.6218265  59.3172339
  32.8783565  86.5320787  61.8458103  31.9313901  86.4126138  61.7736429
  33.2266338  85.6443285  61.9284364  25.2383139  72.4214926  65.6696344
  25.7617540  72.6677223  66.4322654  25.0195472  73.2534961  65.2499482
  20.6350420  74.6918601  53.5367469  20.3063126  73.8115980  53.3542575
  20.9889790  74.6366269  54.4243858  29.8829999  86.3273503  58.0462455
  29.7354961  85.3990211  58.2270025  30.7083492  86.3493594  57.5619530
  23.7492243  74.9791571  53.9042947  24.0888315  75.5077492  53.1821555
  24.1964363  75.3171977  54.6801513  33.4864120  87.1502062  59.1327328
  34.4110668  86.9444924  58.9951779  33.3179424  86.9018463  60.0416669
  26.4435684  73.3628621  63.3546015  26.1032504  72.5636434  63.7566695
  25.7374690  73.6630332  62.7822848  27.0952155  70.4477934  61.8073338
  27.9178225  69.9738412  61.6852228  27.3390219  71.2268417  62.3072024
  25.7360390  73.4766192  52.1036240  26.4568752  73.8547445  51.5999957
  25.1125694  74.1955069  52.2071218  29.8791513  74.1811341  53.0394572
  30.0955127  75.0635979  52.7383400  29.3985580  73.7897555  52.3100214
  24.6190734  77.1397054  59.6165317  24.4735315  77.4537357  60.5089598
  24.1415938  77.7581955  59.0636215  26.4787117  74.1299602  59.6646206
  26.4648686  73.2340696  59.3278504  27.1959545  74.1370266  60.2984492
  28.3313248  74.5636943  61.7099334  28.0731026  75.4854013  61.7083664
  27.7998288  74.1667377  62.3999798  33.2759437  87.6687730  54.4889419
  33.4496314  87.1034152  53.7363271  33.7688328  88.4688625  54.3068909
  19.0936396  79.6802399  62.5552978  18.5489864  80.4562207  62.6873252
  19.9715746  80.0273203  62.3972099  25.8824013  73.0113983  54.9333776
  26.0039924  72.0830629  55.1324664  25.5926055  73.0252669  54.0212092
  28.7515203  70.6968893  58.0700496  28.7736900  70.7608226  57.1152476
  29.1683262  69.8573402  58.2641002  39.1298828  80.4324153  56.1079719
  39.5729974  79.6831478  55.7098842  38.2525338  80.4234289  55.7253451
  34.2634609  86.9854494  51.5886317  34.9585514  87.6061187  51.8073632
  34.6057759  86.1349845  51.8638695  19.8802418  78.8072295  65.4483135
  19.1384154  78.9554930  66.0347765  19.5595163  79.0680561  64.5849884
  36.1626032  84.4354200  53.1173648  36.6877356  84.7741472  52.3922968
  36.0748385  83.5001215  52.9336783  27.8246081  88.3488273  65.2463525
  28.1333207  88.1037420  66.1186224  28.6221563  88.5534912  64.7582395
  27.8466693  90.5026183  57.4768901  27.4071683  90.0102562  58.1701758
  28.5974810  89.9599151  57.2360976  20.3259032  86.6937724  57.4793529
  21.1517052  86.3941496  57.0992173  19.9753084  85.9245346  57.9283318
  25.2940565  86.0464192  59.5491203  24.6720574  85.3834897  59.2493431
  25.9645432  86.0725324  58.8664851  18.5267637  84.6124050  58.4382463
  17.6899545  84.1846225  58.2566464  18.4991282  84.8056494  59.3753254
  25.3665093  74.5245980  69.1423709  25.4153248  75.4008103  68.7601478
  25.9087607  73.9823373  68.5695352  35.8519938  85.0687103  68.4224846
  35.0615482  85.0511242  67.8829345  35.6153293  85.6075397  69.1773883
  35.9717813  81.9179570  65.7357575  36.0215818  81.7529577  66.6773097
  35.8631737  81.0506829  65.3455455  24.8554072  84.5968115  53.0249663
  25.0042192  85.2803580  52.3716336  25.6620515  84.5773205  53.5399119
  33.2621576  77.9010498  67.0516881  34.1631438  77.7616963  66.7600879
  33.3369550  78.0664952  67.9915059  27.5964381  75.2777352  65.8970068
  26.7267690  75.5710918  65.6252656  27.8323861  75.8617797  66.6177331
  37.4736010  84.3376511  65.9799596  37.1820818  84.7006492  66.8163057
  36.8608141  83.6243519  65.8012928  38.6731692  81.9029391  58.5002166
  39.5078584  82.3419195  58.6639727  38.8090821  81.4268044  57.6810412
  35.7223198  79.4609126  64.4479654  36.1977320  79.6536772  63.6398505
  34.7988764  79.5168312  64.2023038  22.6106705  80.6233293  54.0310732
  22.3652747  79.7195623  54.2290942  22.7802620  80.6250443  53.0890210
  30.3003415  71.4956969  63.4135488  30.8185359  72.2317996  63.0881977
  29.9458548  71.8020963  64.2482247  21.8802353  76.3561651  51.5296894
  21.1871597  76.4306006  50.8736930  21.6354104  75.5921994  52.0518411
  30.5516009  67.9157252  58.9336385  30.8317763  67.2480441  59.5596811
  31.3366616  68.1086347  58.4211048  28.3549478  87.0916246  50.4961411
  27.7823445  87.7106433  50.0431883  28.9282271  87.6415607  51.0301333
  34.4224867  76.3374886  62.6807960  35.3742290  76.4372984  62.7020184
  34.2528318  75.5453154  63.1906044  32.4439247  73.4230469  62.8667361
  31.8489179  73.7035482  62.1713849  32.1588944  73.9124370  63.6384102
  31.5746737  87.3753396  51.6269993  32.5077410  87.3098958  51.8302869
  31.4869950  88.2109663  51.1684526  34.2034754  86.6919266  48.5873941
  34.1248386  86.3579130  49.4809699  35.0244421  87.1841034  48.5865413
  36.9012945  79.5581006  61.7950259  36.8689265  78.6197006  61.9809943
  37.5113569  79.6365042  61.0616084  28.7396276  78.4277059  47.8377463
  29.6855381  78.2983267  47.9065881  28.3610521  77.6891720  48.3146892
  37.0507434  76.3492049  61.8408542  36.5346482  75.5650506  61.6538471
  37.9347382  76.0210766  62.0055062  34.7118161  70.0933065  57.8004355
  34.5142982  69.7848153  58.6847687  35.3217866  70.8194703  57.9302285
  42.7189495  80.6197012  60.9356296  43.4492884  80.3582301  61.4963999
  42.1096441  79.8825734  60.9758364  40.8004792  78.7604875  61.5330747
  40.0737956  78.6260840  60.9247239  40.3852079  79.0681704  62.3387465
  28.6234969  82.4794805  69.2978120  29.5437978  82.6573404  69.4918167
  28.5884552  81.5350850  69.1457820  26.9239193  76.3527035  47.7732349
  26.0170649  76.0560148  47.8495062  27.2015174  76.0556853  46.9066635
  17.8417134  77.6733398  58.2231395  17.5219918  76.8198707  57.9305769
  17.2950562  77.8881976  58.9789362  21.6197041  80.3895839  61.9400901
  21.8383051  81.3212947  61.9588935  22.0322815  80.0303814  62.7255705
  28.5401259  70.8963925  53.9276590  27.7301987  70.5511010  54.3031836
  29.2285676  70.5871468  54.5164201  30.4691807  69.9741971  55.5500886
  31.0222846  70.3937425  56.2090910  30.7061894  69.0477720  55.5923843
  26.4924906  75.9629045  71.3303650  26.3921633  76.9123402  71.2615741
  26.2746448  75.6347284  70.4579720  25.6937978  73.2113970  47.9144328
  26.5557142  73.5368868  48.1740145  25.8788322  72.4245466  47.4017394
  17.7105394  81.2936310  60.1924517  17.0168865  80.8790263  59.6794471
  18.4578385  81.3356846  59.5957935  33.8470614  72.0842497  55.0579551
  33.2669283  72.7427301  54.6757603  33.5806547  71.2619841  54.6466968
  32.2974181  71.4847554  57.2600871  32.7973959  71.5964089  56.4515190
  32.9409789  71.1808607  57.9001680  26.3556176  79.3926184  70.1468712
  25.8723258  80.1926544  70.3532601  26.4417116  79.4034129  69.1936156
  19.6242136  81.2254564  58.0690531  19.6012824  81.3242251  57.1172415
  19.9342773  82.0719714  58.3907698  22.2829514  83.2830719  62.1837146
  23.2372768  83.2514661  62.1167077  22.0842038  82.8221342  62.9987372
  22.8728896  81.8531835  64.7507944  23.6921785  82.3475913  64.7742781
  23.1465704  80.9363803  64.7225511  32.6295492  74.2442587  54.1135899
  31.7421347  74.5292238  53.8956094  33.0449481  74.0836350  53.2663176
  35.9810028  74.2689108  57.8290238  36.7570419  74.7585560  58.1014855
  35.2558163  74.6947162  58.2862108  38.4182587  74.9816727  58.8864179
  39.0127078  74.7412463  58.1757487  38.4909171  74.2623858  59.5137715
  20.6379743  88.8250338  59.2007344  20.5034211  88.0650739  58.6345342
  20.2211805  89.5491238  58.7336133  31.7738706  84.0087262  48.2083919
  32.4774556  84.2137264  48.8241575  31.0501355  84.5764024  48.4733003
  32.6036516  79.7597123  54.3286189  32.5471717  80.2165674  53.4893822
  33.1564859  78.9987807  54.1509032  36.4141322  75.5486855  55.1536309
  36.1578256  75.1483490  55.9844516  35.7894190  76.2630649  55.0286448
  40.7253660  78.2882928  57.6607600  40.1653218  78.3576117  58.4339162
  40.1197163  78.1123913  56.9407096  23.7948869  89.7219655  59.4125786
  23.6781253  90.6665088  59.3104477  22.9741315  89.4193217  59.8011586
  33.6825403  84.4469791  50.2582379  34.5171007  84.0150989  50.0759854
  33.5209746  84.2751805  51.1859274  33.3371295  80.9501904  51.6238718
  33.2820099  80.7846176  50.6827162  32.7117351  81.6577937  51.7800908
  18.1263810  76.1869969  65.4500141  18.7722674  75.6768923  65.9387366
  17.9180961  76.9238650  66.0243566  30.6517203  83.2550816  70.9492281
  31.5208362  83.4291468  70.5878916  30.1723954  84.0745233  70.8268010
  26.6467421  70.4510013  51.2024037  26.6346091  71.3951853  51.3592308
  27.5390843  70.2680159  50.9083498  24.8203383  90.3747917  62.6281715
  25.7230629  90.4071527  62.9448210  24.5940753  89.4448368  62.6428051
  26.5756985  89.1278904  59.2891793  25.6252616  89.1280765  59.1756166
  26.8789471  88.3811638  58.7727828  30.4619540  67.0452790  55.4569974
  29.6951936  66.4911276  55.6026656  30.8730245  67.1174659  56.3184125
  22.4661301  73.3337586  69.5475155  23.3292763  72.9774390  69.7578479
  21.8926712  72.9951480  70.2350559  42.3109678  94.9639442  60.3537556
  42.9488088  94.8446189  59.6500896  42.1930521  95.9120286  60.4125508
  39.1199385  94.9166870  60.2899081  38.7817896  94.8007935  59.4019615
  39.9889153  94.5158035  60.2700087  34.9786200  96.7702346  56.2795971
  34.4151065  96.6792283  55.5112259  34.8638595  95.9502251  56.7598464
  39.6019168  96.0701722  66.2485286  39.5907808  95.6754520  65.3765790
  39.7639807  95.3367794  66.8419057  32.5250632  98.2653538  59.1180192
  33.3171924  97.9244363  58.7026491  32.7647282  98.3748513  60.0382345
  40.5585759 100.4373314  51.5910436  39.9073739 101.0227395  51.2044450
  41.3530122 100.9679509  51.6505474  34.4841386  97.5262451  51.9897571
  35.2572262  96.9791438  51.8510447  34.8366785  98.3906701  52.2012032
  36.3226429  98.8538834  65.1964470  36.0316295  99.7584464  65.0811136
  36.9583413  98.8955361  65.9108540  37.2482636  96.2315682  61.7865830
  37.8446208  96.0071705  61.0722793  37.3057607  95.4900428  62.3891278
  36.8207664  93.6855117  49.6216021  37.0733185  93.1636639  48.8599484
  35.8832223  93.5221263  49.7242704  41.8650947  92.6890896  57.4290764
  42.6514036  92.2710319  57.0781181  42.1289651  93.5936988  57.5972412
  42.0361024  98.1263746  52.1279421  41.4006857  98.1998373  52.8400325
  41.7058431  98.7157345  51.4498500  47.2659374  92.6266129  58.3323742
  47.9984546  92.0565346  58.5661572  46.5098730  92.2387729  58.7730248
  36.5403953  95.5883223  51.8240396  36.4240211  94.9128127  52.4921480
  36.6506213  95.1015597  51.0072549  38.8835494  95.0493370  55.5287085
  38.5193701  94.5223991  56.2400006  39.7402610  94.6591840  55.3553570
  44.7884794  86.3387703  62.7918351  44.4568119  87.2083114  62.5679566
  44.1930408  86.0223987  63.4712381  38.5240981  90.0783270  50.5248433
  38.6915383  90.9463507  50.8918904  38.3338150  90.2410552  49.6009723
  41.2816314  98.5400249  62.1914264  40.9817037  99.4425288  62.0830071
  40.9367373  98.2732432  63.0435417  34.7328795  94.9914046  58.2250968
  33.8079292  94.8590260  58.4328660  34.9813208  95.7708265  58.7220911
  44.6813458  91.0582789  59.8711701  43.7730335  90.9898198  59.5770462
  44.6301053  91.5354734  60.6993526  38.5030201  92.5340928  51.5095100
  38.3829827  92.9797978  52.3480580  37.8082790  92.8826245  50.9508638
  32.0937606  94.6347319  59.0594757  32.2229987  94.8881798  59.9734169
  31.4135058  95.2275027  58.7399412  36.2637094 105.3044569  55.1585231
  36.1861123 106.2552395  55.2373712  35.6598737 104.9590442  55.8160158
  38.7554323  92.4772435  67.8146598  37.9787657  93.0366355  67.8049463
  39.3944886  92.9629218  68.3361468  44.2015268  93.0062401  52.3375434
  45.1133124  93.2389788  52.1623132  43.6924915  93.5899445  51.7750513
  37.0100696  95.2857888  67.3764565  37.7515380  95.8242932  67.0999389
  36.3037681  95.9124177  67.5336117  42.4856035  97.4287029  65.9736727
  42.8939391  96.9869439  65.2291359  41.7633297  96.8539656  66.2270920
  38.8387105  92.3659635  63.3470284  39.6848301  92.7899049  63.4904933
  38.7785743  91.7093260  64.0408847  42.8084850  97.9888219  59.7289016
  42.1793712  98.1533933  59.0265084  42.4210512  98.4029829  60.4999980
  46.6874082  98.9242657  57.0833379  46.0025120  99.3041559  56.5330413
  46.7717931  99.5337984  57.8165327  41.9886551  90.0264004  65.0051457
  41.7447483  90.7806064  64.4685733  42.2646481  90.4049351  65.8398704
  43.9425013  96.5702616  63.6828723  44.1541909  97.2134376  63.0063104
  43.8954762  95.7364933  63.2150653  41.5451242  89.1820437  60.5865295
  40.6835721  89.4801690  60.8782033  41.5713677  89.3990836  59.6546328
  38.3612812  97.7262627  56.9939101  38.8251157  98.0050330  56.2043723
  38.0969610  96.8246072  56.8112191  35.2536893  97.2734109  59.9318864
  35.8238250  97.7021377  59.2936349  35.8445005  96.9916694  60.6303050
  37.2981698  93.8485780  53.8028666  38.0005741  94.3006823  54.2702592
  36.9662326  93.2069599  54.4308559  35.7462059  92.4397536  68.1779875
  35.1160720  93.1213817  68.4115272  35.6398147  92.3280618  67.2333014
  31.0407032  92.1069332  59.1045799  30.2506086  92.3626861  58.6285910
  31.5318279  92.9217670  59.2097840  45.0570841  99.4474572  61.8551080
  45.8788285  99.0454759  61.5733762  45.0533244  99.3442806  62.8067196
  32.9921777  92.4713912  56.0629276  32.1952940  92.5832606  56.5812772
  32.7647369  92.8100564  55.1970167  38.8227445  98.9958615  64.0111791
  38.8871877  99.4579022  64.8469963  38.1138369  98.3655980  64.1394101
  29.3244735  92.3599823  61.5360790  29.5752773  93.2446833  61.8018366
  29.8604283  92.1804424  60.7635882  53.1476834  95.7913320  58.2036052
  52.3940543  95.2220718  58.0480056  53.2824376  95.7575985  59.1506686
  38.5375462 100.6626722  53.8790771  38.4021137 101.5078258  54.3075619
  39.0785275 100.8646000  53.1156705  35.0242802  86.7418302  70.5405126
  34.6309748  86.1884501  71.2152771  35.8408942  87.0528881  70.9311644
  31.9904860  98.1802160  54.4518696  32.5029380  98.9745411  54.6024261
  32.6427573  97.4828451  54.3852298  33.7999745 101.2967917  56.5341449
  33.9766373 102.2185881  56.3462433  34.5956578 100.9826336  56.9635829
  37.9410763  88.1576181  68.1325383  38.6820476  88.7583334  68.0529845
  38.1728686  87.4153819  67.5743425  33.0852101  93.3432549  66.4103613
  32.9705616  92.4417806  66.7110711  32.2296619  93.5896245  66.0588429
  40.1643939 101.2850289  68.0091113  39.7207793 100.4986667  67.6912018
  40.8261152 101.4729439  67.3435004  34.9231060 102.8146091  62.5351792
  35.4738485 102.6863154  61.7628786  34.0842536 103.1140980  62.1846684
  42.2625177 101.5653089  66.0372514  42.2443652 102.3861970  65.5452784
  43.1845097 101.4407164  66.2622656  38.7198231  99.0797218  66.8796023
  39.2526568  98.3185507  66.6495331  38.1912312  98.7870870  67.6220177
  41.8867926  84.1857284  62.4089665  41.5432195  85.0758926  62.3328775
  42.2546889  83.9958942  61.5459250  29.9553777  96.5090815  55.2278267
  30.7928999  96.9187823  55.0111974  30.1332044  95.5690257  55.1978461
  41.8518209  94.1765895  50.9162100  41.3364832  94.9470500  51.1550487
  41.5795517  93.5031032  51.5395161  39.4365320  89.0215596  55.9747338
  38.5806916  88.6322447  55.7952977  39.8492272  89.1007557  55.1147124
  40.9664466  86.5561939  60.3738898  40.4629262  86.5192075  59.5606703
  41.2595073  87.4654682  60.4335554  37.2107352  86.6400669  59.3805080
  38.0760349  86.4443478  59.0210969  37.2784861  86.4111021  60.3074436
  46.8252483  96.9298250  52.8515273  46.0481926  96.5909410  52.4070435
  47.5043964  96.9350873  52.1770238  41.6404512  92.0492987  52.7421881
  41.3354648  92.3639137  53.5932024  42.5934954  92.1274407  52.7849214
  40.0850944  98.2083211  54.3914835  39.5572305  97.4735970  54.0788072
  39.5838447  98.9857887  54.1454803  45.0643790  96.4032231  59.5081881
  44.4067464  97.0931493  59.5962010  45.8684189  96.7928663  59.8515868
  34.8169671  88.8702877  56.7521446  35.3913423  88.6478059  56.0194639
  35.4040654  88.9391572  57.5050048  43.8749249  94.7576604  57.5585823
  44.3881130  95.3906596  58.0607533  44.5250473  94.1577799  57.1929183
  35.1439259  90.9007338  50.7717332  34.3076571  91.2382025  51.0926606
  35.0044028  90.7656318  49.8344469  37.1192339  85.7444126  55.4796516
  36.4656751  85.4293143  54.8553131  37.0772813  85.1219866  56.2056339
  38.2303544  96.0263421  47.3949808  37.3230606  95.7952675  47.5940957
  38.7274576  95.2301040  47.5823789  41.1371623 104.7360928  50.3146494
  40.4633322 105.0392625  50.9231452  41.5237445 105.5390009  49.9651951
  40.3530079  92.2326060  59.8044163  39.4352641  92.4541007  59.6465851
  40.7690223  92.3072370  58.9455871  41.1365127  93.6317475  54.9346844
  41.8836946  94.1438872  54.6253966  41.4056717  93.3101528  55.7951237
  39.4091777  96.1276016  51.9173798  38.5002997  95.8435049  52.0146268
  39.4386861  96.5475094  51.0577105  44.6411045  99.7382605  55.6864966
  44.1873372  98.8973515  55.7430156  44.0105012 100.3744004  56.0239746
  43.5843964  90.6674591  56.9165633  42.8466721  90.1551978  57.2475876
  43.8370738  90.2274973  56.1048910  43.0843984 101.5759102  56.6214784
  43.3766958 102.1364159  55.9027149  43.5942605 101.8687663  57.3767943
  43.6855592  83.4450843  57.5107402  43.9914469  82.5848207  57.2233317
  44.4108197  84.0368464  57.3106396  29.9779948  93.8481530  55.8989000
  29.7804348  93.2550891  55.1740067  29.4226612  93.5433740  56.6164939
  37.9576671  93.7404637  58.0183593  38.0125281  92.7878473  57.9426070
  37.1467873  93.8964076  58.5024892  39.1067865  97.6684760  49.2561877
  38.6687295  96.9520619  48.7967514  39.8478306  97.8960874  48.6946968
  35.8969031  92.3581696  55.7773972  35.0836897  92.6575867  56.1839164
  36.3928026  91.9637385  56.4948454  38.0477609 102.3539453  57.7108237
  38.0053788 102.5800300  56.7816769  38.9640308 102.1202828  57.8594038
  41.4943243  92.8223521  64.6088866  41.8492631  93.0494994  65.4683332
  42.1415374  93.1541898  63.9866121  47.2240980  95.9441957  55.3138195
  47.0858879  96.1343553  54.3859384  46.8677199  96.7061339  55.7706246
  35.3883106  89.9300052  61.3935207  36.0282485  89.7888811  60.6958170
  34.5560637  89.6434565  61.0173809  47.2510360  98.0118484  60.3249467
  47.6846866  97.9193773  61.1732521  47.9641940  97.9875984  59.6869483
  36.1643410  99.2302482  57.5070200  36.9584009  98.7352802  57.3052775
  35.4535102  98.7020345  57.1437905  40.9838255 101.6120578  61.8582567
  41.0375277 102.1811514  62.6260283  40.1153036 101.7822463  61.4936604
  32.4726174  93.3745564  53.5829952  31.5423762  93.3130019  53.7999914
  32.5683645  92.8521517  52.7866594  32.3911723  89.9000377  56.1708194
  32.6518540  90.8145710  56.0617354  33.2128895  89.4324819  56.3204807
  33.8636648  91.3138134  63.3407018  34.5359701  91.1055496  62.6919667
  33.0366434  91.1160220  62.9012251  48.1125909  98.0542184  62.8582352
  48.3061799  98.9587995  63.1041627  48.0126527  97.5949603  63.6920937
  39.7662220  87.9400075  65.3572679  39.1190135  88.6390025  65.2637156
  40.5363235  88.3736219  65.7248928  43.1741018  98.2048927  68.4323233
  43.0226524  97.9759479  67.5153316  43.1645697  99.1619528  68.4454578
  39.9426354  95.7780840  63.4169499  40.8718414  95.9291999  63.2438466
  39.5217384  95.8664861  62.5618146  38.7414686  99.8031504  61.1868037
  38.6025772  99.4350289  62.0593975  37.9529282 100.3179144  61.0151994
  39.3362838 104.9040601  52.5293573  39.5114594 104.4328644  53.3439196
  38.6495626 105.5306367  52.7574834  40.2919901  99.1813107  58.5756874
  39.9569734  99.1413877  59.4714524  39.7923847  98.5157823  58.1027285
  34.2664145  94.5880737  64.1009456  34.1283943  93.8560976  64.7020995
  35.1769069  94.4989637  63.8193643  43.2279093  96.5269141  48.8493934
  42.6108263  95.8015969  48.7526987  42.7595581  97.2878502  48.5061008
  36.8946446  94.3000696  63.5893135  37.6046064  93.6593888  63.5479754
  36.8515754  94.5513591  64.5119316  44.8833224 101.2368050  66.5099714
  44.8245771 100.5527270  65.8430298  45.2852743 101.9787040  66.0580340
  35.6075380  91.2865914  65.4088775  35.0712737  90.8356653  66.0610371
  35.0192088  91.4211823  64.6659239  33.9023923 108.0529963  59.3033433
  34.1420522 108.6848488  59.9812452  33.0593120 107.7018003  59.5898793
  35.0177639  90.7454566  47.9715238  34.1407105  90.6243366  47.6077485
  35.4935392  89.9540644  47.7194127  44.8850632  99.2007634  64.7413694
  43.9977411  98.8633555  64.8640093  45.4549183  98.4690665  64.9782460
  26.5379779  95.5331725  58.0656746  27.2250819  95.2193455  57.4777761
  26.3827908  96.4373090  57.7923997  31.3414501  90.4221922  62.4941769
  31.2572690  89.8147591  61.7592179  30.5197207  90.9130940  62.4951266
  38.4151785 103.8609086  61.7074937  38.3421957 104.6664057  62.2194242
  37.9729178 104.0601052  60.8822959  38.2041565 103.0980856  55.2177759
  37.4209087 103.6402536  55.3115983  38.9034310 103.6154836  55.6172000
  41.5138215  88.9075485  57.8611964  42.0106914  88.1545448  57.5413035
  40.7425196  88.9439802  57.2955174  49.3667972  94.6115851  59.5030256
  49.3557849  95.4940566  59.1324189  48.4985352  94.2587402  59.3084793
  40.8750469 103.7595920  63.8633096  41.5878441 104.3943385  63.7908997
  40.3840497 103.8559786  63.0473098  42.5967996  97.6647173  55.4350388
  41.6624274  97.7848635  55.2655092  42.7744664  96.7619639  55.1710398
  38.0973184  91.0492868  57.5883649  37.7270971  90.4963909  58.2764554
  38.5932276  90.4451002  57.0358649  45.9840547  93.5064492  55.9700422
  46.4500999  94.3392483  55.8960725  46.4348047  93.0409473  56.6745680
  35.9262382 101.5090363  64.6838667  36.6271842 102.1426846  64.8368061
  35.4557497 101.8505095  63.9234306  44.0516778  99.8508313  52.9686574
  44.3276622  99.7364908  53.8780448  43.1821277  99.4525798  52.9298747
  43.9557210  85.8745079  60.0091323  43.0420289  86.1049306  60.1773530
  44.3850311  85.9583523  60.8605356  43.7263668  94.0634971  62.5091217
  43.0735118  94.3110878  61.8543670  44.1044048  93.2499109  62.1753694
  40.6870842 104.0994664  56.6119388  40.8693237 103.2816320  57.0747140
  41.5103828 104.3162356  56.1744277  41.0213008 103.0262849  53.8734436
  41.5500774 102.5155304  53.2604598  41.2841227 102.7105379  54.7379969
  39.7751241  94.8054782  68.9957254  39.0991878  94.7048911  69.6659630
  40.5978875  94.6493996  69.4593252  31.5230100 101.0426718  61.6169770
  32.1083537 100.2970406  61.7497674  31.3254939 101.3530675  62.5006433
  34.3768755 104.0777966  56.6332212  33.7079131 104.5624093  56.1496252
  34.2381625 104.3247186  57.5475590  26.1147755  93.6132319  60.3374213
  26.1531855  93.0795909  61.1311331  25.6088048  93.0867524  59.7185190
  38.5174024 106.1121709  63.2314870  39.0692332 106.2753331  63.9963956
  38.8580218 106.7026147  62.5594895  33.4938517  88.4596859  63.8336755
  33.5579844  89.3211690  63.4214153  33.4305638  87.8470861  63.1009114
  32.9690790  90.5319992  67.4809789  33.5962829  90.1497069  68.0947314
  32.1118709  90.3134194  67.8465482  43.3684898 100.9382967  69.0863525
  43.9124802 101.5512925  68.5918480  42.7871743 101.4962545  69.6030538
  29.7456333  92.3396421  53.4128144  30.0409774  91.4307099  53.3595198
  28.8444368  92.3184160  53.0909146  41.6542411 104.0603685  60.2178552
  41.5293551 103.2593425  59.7089498  42.3121502 104.5549878  59.7292522
  33.2750580  90.4152417  59.3955693  32.5537165  91.0288385  59.2563166
  34.0643835  90.9510182  59.3172339  43.7177320 101.8612705  61.8458103
  42.7707655 101.7418056  61.7736429  44.0660093 100.9735203  61.9284364
  36.0776893  87.7506844  65.6696344  36.6011295  87.9969140  66.4322654
  35.8589226  88.5826879  65.2499482  31.4744174  90.0210518  53.5367469
  31.1456880  89.1407897  53.3542575  31.8283545  89.9658187  54.4243858
  40.7223753 101.6565421  58.0462455  40.5748715 100.7282129  58.2270025
  41.5477247 101.6785512  57.5619530  34.5885997  90.3083488  53.9042947
  34.9282070  90.8369410  53.1821555  35.0358118  90.6463894  54.6801513
  44.3257875 102.4793980  59.1327328  45.2504422 102.2736841  58.9951779
  44.1573178 102.2310381  60.0416669  37.2829438  88.6920539  63.3546015
  36.9426259  87.8928352  63.7566695  36.5768444  88.9922250  62.7822848
  37.9345910  85.7769851  61.8073338  38.7571979  85.3030330  61.6852228
  38.1783974  86.5560335  62.3072024  36.5754144  88.8058110  52.1036240
  37.2962507  89.1839363  51.5999957  35.9519449  89.5246987  52.2071218
  40.7185267  89.5103259  53.0394572  40.9348882  90.3927897  52.7383400
  40.2379335  89.1189472  52.3100214  35.4584489  92.4688972  59.6165317
  35.3129069  92.7829275  60.5089598  34.9809692  93.0873872  59.0636215
  37.3180872  89.4591520  59.6646206  37.3042440  88.5632613  59.3278504
  38.0353300  89.4662184  60.2984492  39.1707002  89.8928860  61.7099334
  38.9124780  90.8145931  61.7083664  38.6392043  89.4959295  62.3999798
  44.1153191 102.9979647  54.4889419  44.2890069 102.4326070  53.7363271
  44.6082082 103.7980542  54.3068909  29.9330151  95.0094316  62.5552978
  29.3883619  95.7854124  62.6873252  30.8109501  95.3565121  62.3972099
  36.7217768  88.3405900  54.9333776  36.8433679  87.4122546  55.1324664
  36.4319810  88.3544586  54.0212092  39.5908958  86.0260811  58.0700496
  39.6130655  86.0900144  57.1152476  40.0077017  85.1865319  58.2641002
  49.9692582  95.7616070  56.1079719  50.4123728  95.0123395  55.7098842
  49.0919093  95.7526207  55.7253451  45.1028364 102.3146412  51.5886317
  45.7979268 102.9353104  51.8073632  45.4451514 101.4641763  51.8638695
  30.7196173  94.1364213  65.4483135  29.9777909  94.2846848  66.0347765
  30.3988917  94.3972478  64.5849884  47.0019787  99.7646117  53.1173648
  47.5271111 100.1033390  52.3922968  46.9142139  98.8293133  52.9336783
  38.6639835 103.6780191  65.2463525  38.9726962 103.4329338  66.1186224
  39.4615317 103.8826829  64.7582395  38.6860447 105.8318101  57.4768901
  38.2465438 105.3394479  58.1701758  39.4368564 105.2891068  57.2360976
  31.1652786 102.0229641  57.4793529  31.9910806 101.7233413  57.0992173
  30.8146838 101.2537264  57.9283318  36.1334320 101.3756110  59.5491203
  35.5114329 100.7126815  59.2493431  36.8039186 101.4017242  58.8664851
  29.3661391  99.9415968  58.4382463  28.5293300  99.5138142  58.2566464
  29.3385037 100.1348411  59.3753254  36.2058847  89.8537898  69.1423709
  36.2547003  90.7300020  68.7601478  36.7481361  89.3115291  68.5695352
  46.6913693 100.3979021  68.4224846  45.9009236 100.3803160  67.8829345
  46.4547047 100.9367315  69.1773883  46.8111568  97.2471487  65.7357575
  46.8609573  97.0821495  66.6773097  46.7025491  96.3798746  65.3455455
  35.6947827  99.9260033  53.0249663  35.8435947 100.6095497  52.3716336
  36.5014270  99.9065123  53.5399119  44.1015330  93.2302415  67.0516881
  45.0025193  93.0908880  66.7600879  44.1763305  93.3956870  67.9915059
  38.4358136  90.6069270  65.8970068  37.5661445  90.9002836  65.6252656
  38.6717616  91.1909715  66.6177331  48.3129765  99.6668429  65.9799596
  48.0214573 100.0298409  66.8163057  47.7001896  98.9535437  65.8012928
  49.5125447  97.2321309  58.5002166  50.3472338  97.6711113  58.6639727
  49.6484576  96.7559962  57.6810412  33.4500459  95.9525211  54.0310732
  33.2046501  95.0487541  54.2290942  33.6196374  95.9542361  53.0890210
  41.1397169  86.8248887  63.4135488  41.6579113  87.5609914  63.0881977
  40.7852302  87.1312880  64.2482247  32.7196107  91.6853568  51.5296894
  32.0265352  91.7597923  50.8736930  32.4747859  90.9213912  52.0518411
  41.3909764  83.2449170  58.9336385  41.6711517  82.5772359  59.5596811
  42.1760370  83.4378265  58.4211048  39.1943232 102.4208163  50.4961411
  38.6217199 103.0398351  50.0431883  39.7676026 102.9707525  51.0301333
  45.2618622  91.6666804  62.6807960  46.2136045  91.7664901  62.7020184
  45.0922072  90.8745072  63.1906044  43.2833001  88.7522387  62.8667361
  42.6882933  89.0327399  62.1713849  42.9982698  89.2416288  63.6384102
  42.4140492 102.7045314  51.6269993  43.3471165 102.6390875  51.8302869
  42.3263705 103.5401580  51.1684526  45.0428508 102.0211184  48.5873941
  44.9642140 101.6871048  49.4809699  45.8638175 102.5132952  48.5865413
  39.5790031  93.7568976  47.8377463  40.5249135  93.6275184  47.9065881
  39.2004275  93.0183638  48.3146892  45.5511915  85.4224982  57.8004355
  45.3536736  85.1140070  58.6847687  46.1611621  86.1486621  57.9302285
  53.5583250  95.9488930  60.9356296  54.2886638  95.6874218  61.4963999
  52.9490195  95.2117652  60.9758364  39.4628723  97.8086722  69.2978120
  40.3831733  97.9865321  69.4918167  39.4278306  96.8642768  69.1457820
  37.7632948  91.6818953  47.7732349  36.8564403  91.3852065  47.8495062
  38.0408929  91.3848771  46.9066635  28.6810888  93.0025316  58.2231395
  28.3613672  92.1490624  57.9305769  28.1344316  93.2173894  58.9789362
  32.4590796  95.7187757  61.9400901  32.6776805  96.6504865  61.9588935
  32.8716569  95.3595731  62.7255705  39.3795013  86.2255842  53.9276590
  38.5695742  85.8802927  54.3031836  40.0679430  85.9163386  54.5164201
  41.3085562  85.3033889  55.5500886  41.8616600  85.7229343  56.2090910
  41.5455648  84.3769637  55.5923843  37.3318661  91.2920963  71.3303650
  37.2315388  92.2415320  71.2615741  37.1140203  90.9639202  70.4579720
  36.5331732  88.5405888  47.9144328  37.3950896  88.8660786  48.1740145
  36.7182076  87.7537384  47.4017394  28.5499148  96.6228227  60.1924517
  27.8562619  96.2082180  59.6794471  29.2972139  96.6648764  59.5957935
  44.6864369  87.4134414  55.0579551  44.1063038  88.0719218  54.6757603
  44.4200301  86.5911759  54.6466968  43.1367935  86.8139472  57.2600871
  43.6367714  86.9256006  56.4515190  43.7803543  86.5100525  57.9001680
  37.1949931  94.7218102  70.1468712  36.7117013  95.5218462  70.3532601
  37.2810870  94.7326046  69.1936156  30.4635891  96.5546481  58.0690531
  30.4406579  96.6534169  57.1172415  30.7736527  97.4011632  58.3907698
  33.1223268  98.6122636  62.1837146  34.0766522  98.5806579  62.1167077
  32.9235792  98.1513260  62.9987372  33.7122651  97.1823752  64.7507944
  34.5315540  97.6767831  64.7742781  33.9859458  96.2655720  64.7225511
  43.4689247  89.5734505  54.1135899  42.5815102  89.8584155  53.8956094
  43.8843236  89.4128268  53.2663176  46.8203783  89.5981026  57.8290238
  47.5964173  90.0877478  58.1014855  46.0951917  90.0239080  58.2862108
  49.2576342  90.3108645  58.8864179  49.8520832  90.0704381  58.1757487
  49.3302925  89.5915775  59.5137715  31.4773497 104.1542256  59.2007344
  31.3427965 103.3942657  58.6345342  31.0605560 104.8783156  58.7336133
  42.6132460  99.3379179  48.2083919  43.3168310  99.5429182  48.8241575
  41.8895109  99.9055941  48.4733003  43.4430271  95.0889041  54.3286189
  43.3865472  95.5457592  53.4893822  43.9958613  94.3279725  54.1509032
  47.2535076  90.8778772  55.1536309  46.9972011  90.4775408  55.9844516
  46.6287944  91.5922566  55.0286448  51.5647414  93.6174846  57.6607600
  51.0046972  93.6868035  58.4339162  50.9590918  93.4415830  56.9407096
  34.6342623 105.0511573  59.4125786  34.5175007 105.9957005  59.3104477
  33.8135069 104.7485134  59.8011586  44.5219158  99.7761709  50.2582379
  45.3564762  99.3442907  50.0759854  44.3603501  99.6043722  51.1859274
  44.1765050  96.2793822  51.6238718  44.1213854  96.1138093  50.6827162
  43.5511105  96.9869855  51.7800908  28.9657565  91.5161886  65.4500141
  29.6116428  91.0060840  65.9387366  28.7574716  92.2530568  66.0243566
  41.4910957  98.5842734  70.9492281  42.3602117  98.7583386  70.5878916
  41.0117709  99.4037151  70.8268010  37.4861175  85.7801931  51.2024037
  37.4739845  86.7243771  51.3592308  38.3784597  85.5972076  50.9083498
  35.6597137 105.7039835  62.6281715  36.5624384 105.7363445  62.9448210
  35.4334507 104.7740286  62.6428051  37.4150739 104.4570821  59.2891793
  36.4646370 104.4572683  59.1756166  37.7183225 103.7103556  58.7727828
  41.3013295  82.3744707  55.4569974  40.5345691  81.8203194  55.6026656
  41.7124000  82.4466576  56.3184125  33.3055056  88.6629503  69.5475155
  34.1686517  88.3066308  69.7578479  32.7320466  88.3243398  70.2350559
  53.1503433 110.2931360  60.3537556  53.7881843 110.1738107  59.6500896
  53.0324276 111.2412204  60.4125508  49.9593139 110.2458788  60.2899081
  49.6211651 110.1299852  59.4019615  50.8282907 109.8449953  60.2700087
  45.8179955 112.0994264  56.2795971  45.2544820 112.0084201  55.5112259
  45.7032350 111.2794169  56.7598464  50.4412922 111.3993639  66.2485286
  50.4301563 111.0046438  65.3765790  50.6033562 110.6659712  66.8419057
  43.3644387 113.5945456  59.1180192  44.1565679 113.2536280  58.7026491
  43.6041037 113.7040431  60.0382345  51.3979513 115.7665232  51.5910436
  50.7467493 116.3519312  51.2044450  52.1923876 116.2971427  51.6505474
  45.3235141 112.8554369  51.9897571  46.0966017 112.3083356  51.8510447
  45.6760539 113.7198618  52.2012032  47.1620183 114.1830751  65.1964470
  46.8710049 115.0876382  65.0811136  47.7977168 114.2247279  65.9108540
  48.0876390 111.5607600  61.7865830  48.6839962 111.3363622  61.0722793
  48.1451362 110.8192345  62.3891278  47.6601418 109.0147035  49.6216021
  47.9126939 108.4928556  48.8599484  46.7225978 108.8513181  49.7242704
  52.7044701 108.0182813  57.4290764  53.4907790 107.6002237  57.0781181
  52.9683406 108.9228906  57.5972412  52.8754779 113.4555664  52.1279421
  52.2400612 113.5290290  52.8400325  52.5452185 114.0449263  51.4498500
  58.1053128 107.9558047  58.3323742  58.8378300 107.3857263  58.5661572
  57.3492484 107.5679647  58.7730248  47.3797707 110.9175141  51.8240396
  47.2633965 110.2420044  52.4921480  47.4899967 110.4307515  51.0072549
  49.7229248 110.3785288  55.5287085  49.3587455 109.8515909  56.2400006
  50.5796364 109.9883757  55.3553570  55.6278549 101.6679621  62.7918351
  55.2961874 102.5375032  62.5679566  55.0324162 101.3515905  63.4712381
  49.3634735 105.4075188  50.5248433  49.5309137 106.2755424  50.8918904
  49.1731904 105.5702470  49.6009723  52.1210068 113.8692167  62.1914264
  51.8210791 114.7717206  62.0830071  51.7761128 113.6024350  63.0435417
  45.5722550 110.3205964  58.2250968  44.6473046 110.1882178  58.4328660
  45.8206963 111.1000183  58.7220911  55.5207212 106.3874707  59.8711701
  54.6124089 106.3190115  59.5770462  55.4694808 106.8646652  60.6993526
  49.3423956 107.8632845  51.5095100  49.2223581 108.3089896  52.3480580
  48.6476544 108.2118163  50.9508638  42.9331361 109.9639237  59.0594757
  43.0623742 110.2173716  59.9734169  42.2528812 110.5566945  58.7399412
  47.1030848 120.6336487  55.1585231  47.0254878 121.5844312  55.2373712
  46.4992492 120.2882360  55.8160158  49.5948078 107.8064353  67.8146598
  48.8181412 108.3658273  67.8049463  50.2338641 108.2921136  68.3361468
  57.3868858 104.5891145  61.6489575  56.7443239 104.8823679  61.0029370
  56.8823787 104.4744066  62.4542772  55.0409022 108.3354319  52.3375434
  55.9526878 108.5681705  52.1623132  54.5318669 108.9191363  51.7750513
  47.8494450 110.6149806  67.3764565  48.5909135 111.1534850  67.0999389
  47.1431436 111.2416095  67.5336117  53.3249790 112.7578946  65.9736727
  53.7333146 112.3161357  65.2291359  52.6027051 112.1831574  66.2270920
  49.6780860 107.6951553  63.3470284  50.5242055 108.1190967  63.4904933
  49.6179498 107.0385177  64.0408847  53.6478604 113.3180137  59.7289016
  53.0187467 113.4825851  59.0265084  53.2604267 113.7321747  60.4999980
  57.5267836 114.2534575  57.0833379  56.8418874 114.6333476  56.5330413
  57.6111686 114.8629902  57.8165327  52.8280305 105.3555922  65.0051457
  52.5841237 106.1097982  64.4685733  53.1040236 105.7341269  65.8398704
  54.7818768 111.8994534  63.6828723  54.9935663 112.5426294  63.0063104
  54.7348516 111.0656850  63.2150653  52.3844997 104.5112355  60.5865295
  51.5229476 104.8093608  60.8782033  52.4107432 104.7282753  59.6546328
  49.2006566 113.0554545  56.9939101  49.6644912 113.3342248  56.2043723
  48.9363364 112.1537990  56.8112191  46.0930647 112.6026027  59.9318864
  46.6632004 113.0313295  59.2936349  46.6838759 112.3208611  60.6303050
  48.1375452 109.1777697  53.8028666  48.8399496 109.6298741  54.2702592
  47.8056081 108.5361516  54.4308559  46.5855814 107.7689454  68.1779875
  45.9554474 108.4505735  68.4115272  46.4791902 107.6572536  67.2333014
  41.8800786 107.4361250  59.1045799  41.0899840 107.6918779  58.6285910
  42.3712034 108.2509588  59.2097840  55.8964596 114.7766489  61.8551080
  56.7182040 114.3746677  61.5733762  55.8926999 114.6734723  62.8067196
  43.8315532 107.8005829  56.0629276  43.0346695 107.9124524  56.5812772
  43.6041124 108.1392482  55.1970167  49.6621199 114.3250533  64.0111791
  49.7265632 114.7870940  64.8469963  48.9532123 113.6947898  64.1394101
  40.1638489 107.6891741  61.5360790  40.4146528 108.5738750  61.8018366
  40.6998038 107.5096342  60.7635882  63.9870589 111.1205238  58.2036052
  63.2334297 110.5512636  58.0480056  64.1218130 111.0867902  59.1506686
  49.3769217 115.9918640  53.8790771  49.2414892 116.8370176  54.3075619
  49.9179029 116.1937918  53.1156705  45.8636557 102.0710220  70.5405126
  45.4703502 101.5176418  71.2152771  46.6802697 102.3820798  70.9311644
  42.8298614 113.5094078  54.4518696  43.3423135 114.3037328  54.6024261
  43.4821327 112.8120369  54.3852298  44.6393499 116.6259834  56.5341449
  44.8160127 117.5477799  56.3462433  45.4350333 116.3118254  56.9635829
  48.7804518 103.4868099  68.1325383  49.5214231 104.0875252  68.0529845
  49.0122440 102.7445737  67.5743425  43.9245856 108.6724466  66.4103613
  43.8099371 107.7709724  66.7110711  43.0690373 108.9188163  66.0588429
  51.0037693 116.6142207  68.0091113  50.5601548 115.8278585  67.6912018
  51.6654907 116.8021357  67.3435004  45.7624815 118.1438008  62.5351792
  46.3132240 118.0155072  61.7628786  44.9236290 118.4432897  62.1846684
  53.1018931 116.8945007  66.0372514  53.0837407 117.7153888  65.5452784
  54.0238851 116.7699082  66.2622656  49.5591986 114.4089136  66.8796023
  50.0920322 113.6477424  66.6495331  49.0306067 114.1162788  67.6220177
  52.7261681  99.5149202  62.4089665  52.3825950 100.4050844  62.3328775
  53.0940643  99.3250860  61.5459250  40.7947531 111.8382732  55.2278267
  41.6322753 112.2479741  55.0111974  40.9725799 110.8982175  55.1978461
  52.6911963 109.5057813  50.9162100  52.1758587 110.2762418  51.1550487
  52.4189272 108.8322949  51.5395161  50.2759074 104.3507514  55.9747338
  49.4200671 103.9614364  55.7952977  50.6886026 104.4299475  55.1147124
  51.8058221 101.8853857  60.3738898  51.3023017 101.8483992  59.5606703
  52.0988828 102.7946600  60.4335554  48.0501107 101.9692587  59.3805080
  48.9154104 101.7735396  59.0210969  48.1178616 101.7402939  60.3074436
  57.6646237 112.2590168  52.8515273  56.8875680 111.9201327  52.4070435
  58.3437718 112.2642791  52.1770238  52.4798266 107.3784905  52.7421881
  52.1748402 107.6931054  53.5932024  53.4328709 107.4566325  52.7849214
  50.9244698 113.5375128  54.3914835  50.3966060 112.8027888  54.0788072
  50.4232201 114.3149805  54.1454803  55.9037544 111.7324149  59.5081881
  55.2461219 112.4223410  59.5962010  56.7077944 112.1220581  59.8515868
  45.6563426 104.1994795  56.7521446  46.2307178 103.9769976  56.0194639
  46.2434408 104.2683489  57.5050048  54.7143003 110.0868522  57.5585823
  55.2274885 110.7198513  58.0607533  55.3644227 109.4869717  57.1929183
  45.9833013 106.2299256  50.7717332  45.1470325 106.5673942  51.0926606
  45.8437783 106.0948236  49.8344469  47.9586094 101.0736044  55.4796516
  47.3050506 100.7585061  54.8553131  47.9166568 100.4511784  56.2056339
  49.0697298 111.3555339  47.3949808  48.1624360 111.1244592  47.5940957
  49.5668330 110.5592958  47.5823789  51.9765377 120.0652846  50.3146494
  51.3027076 120.3684543  50.9231452  52.3631199 120.8681926  49.9651951
  51.1923834 107.5617977  59.8044163  50.2746395 107.7832924  59.6465851
  51.6083978 107.6364288  58.9455871  51.9758882 108.9609393  54.9346844
  52.7230701 109.4730790  54.6253966  52.2450471 108.6393446  55.7951237
  50.2485532 111.4567934  51.9173798  49.3396751 111.1726966  52.0146268
  50.2780616 111.8767012  51.0577105  55.4804799 115.0674523  55.6864966
  55.0267126 114.2265433  55.7430156  54.8498766 115.7035921  56.0239746
  54.4237719 105.9966509  56.9165633  53.6860476 105.4843895  57.2475876
  54.6764492 105.5566891  56.1048910  53.9237739 116.9051020  56.6214784
  54.2160713 117.4656077  55.9027149  54.4336359 117.1979581  57.3767943
  54.5249346  98.7742761  57.5107402  54.8308223  97.9140125  57.2233317
  55.2501951  99.3660381  57.3106396  40.8173702 109.1773448  55.8989000
  40.6198102 108.5842808  55.1740067  40.2620366 108.8725658  56.6164939
  48.7970426 109.0696554  58.0183593  48.8519036 108.1170391  57.9426070
  47.9861628 109.2255993  58.5024892  49.9461620 112.9976677  49.2561877
  49.5081050 112.2812536  48.7967514  50.6872061 113.2252792  48.6946968
  46.7362786 107.6873614  55.7773972  45.9230651 107.9867785  56.1839164
  47.2321780 107.2929303  56.4948454  48.8871364 117.6831371  57.7108237
  48.8447543 117.9092217  56.7816769  49.8034063 117.4494745  57.8594038
  52.3336998 108.1515438  64.6088866  52.6886385 108.3786912  65.4683332
  52.9809129 108.4833815  63.9866121  58.0634734 111.2733874  55.3138195
  57.9252633 111.4635470  54.3859384  57.7070953 112.0353257  55.7706246
  46.2276861 105.2591969  61.3935207  46.8676240 105.1180729  60.6958170
  45.3954391 104.9726483  61.0173809  58.0904114 113.3410401  60.3249467
  58.5240621 113.2485690  61.1732521  58.8035695 113.3167902  59.6869483
  47.0037165 114.5594400  57.5070200  47.7977763 114.0644720  57.3052775
  46.2928857 114.0312263  57.1437905  51.8232009 116.9412495  61.8582567
  51.8769031 117.5103432  62.6260283  50.9546790 117.1114380  61.4936604
  43.3119928 108.7037482  53.5829952  42.3817516 108.6421937  53.7999914
  43.4077400 108.1813434  52.7866594  43.2305477 105.2292294  56.1708194
  43.4912294 106.1437628  56.0617354  44.0522649 104.7616737  56.3204807
  44.7030402 106.6430052  63.3407018  45.3753456 106.4347414  62.6919667
  43.8760189 106.4452138  62.9012251  58.9519664 113.3834102  62.8582352
  59.1455554 114.2879912  63.1041627  58.8520282 112.9241521  63.6920937
  50.6055974 103.2691993  65.3572679  49.9583889 103.9681942  65.2637156
  51.3756990 103.7028136  65.7248928  54.0134772 113.5340845  68.4323233
  53.8620279 113.3051396  67.5153316  54.0039452 114.4911446  68.4454578
  50.7820109 111.1072757  63.4169499  51.7112169 111.2583917  63.2438466
  50.3611139 111.1956778  62.5618146  49.5808441 115.1323422  61.1868037
  49.4419526 114.7642206  62.0593975  48.7923037 115.6471061  61.0151994
  50.1756592 120.2332518  52.5293573  50.3508348 119.7620562  53.3439196
  49.4889381 120.8598285  52.7574834  51.1313656 114.5105025  58.5756874
  50.7963488 114.4705795  59.4714524  50.6317601 113.8449741  58.1027285
  45.1057900 109.9172655  64.1009456  44.9677698 109.1852893  64.7020995
  46.0162823 109.8281555  63.8193643  54.0672847 111.8561059  48.8493934
  53.4502018 111.1307887  48.7526987  53.5989336 112.6170419  48.5061008
  47.7340200 109.6292614  63.5893135  48.4439819 108.9885806  63.5479754
  47.6909508 109.8805509  64.5119316  55.7226979 116.5659967  66.5099714
  55.6639525 115.8819187  65.8430298  56.1246497 117.3078957  66.0580340
  46.4469134 106.6157832  65.4088775  45.9106491 106.1648570  66.0610371
  45.8585843 106.7503741  64.6659239  44.7417678 123.3821881  59.3033433
  44.9814276 124.0140405  59.9812452  43.8986874 123.0309921  59.5898793
  45.8571393 106.0746483  47.9715238  44.9800860 105.9535284  47.6077485
  46.3329146 105.2832562  47.7194127  55.7244386 114.5299551  64.7413694
  54.8371165 114.1925473  64.8640093  56.2942937 113.7982582  64.9782460
  37.3773533 110.8623643  58.0656746  38.0644573 110.5485373  57.4777761
  37.2221662 111.7665008  57.7923997  42.1808256 105.7513840  62.4941769
  42.0966444 105.1439509  61.7592179  41.3590962 106.2422858  62.4951266
  49.2545540 119.1901004  61.7074937  49.1815711 119.9955975  62.2194242
  48.8122933 119.3892969  60.8822959  49.0435319 118.4272774  55.2177759
  48.2602841 118.9694454  55.3115983  49.7428064 118.9446753  55.6172000
  52.3531969 104.2367403  57.8611964  52.8500669 103.4837365  57.5413035
  51.5818951 104.2731720  57.2955174  60.2061727 109.9407769  59.5030256
  60.1951603 110.8232484  59.1324189  59.3379106 109.5879319  59.3084793
  51.7144223 119.0887838  63.8633096  52.4272195 119.7235302  63.7908997
  51.2234252 119.1851704  63.0473098  53.4361750 112.9939090  55.4350388
  52.5018029 113.1140553  55.2655092  53.6138419 112.0911557  55.1710398
  48.9366938 106.3784786  57.5883649  48.5664726 105.8255826  58.2764554
  49.4326031 105.7742920  57.0358649  56.8234301 108.8356410  55.9700422
  57.2894754 109.6684401  55.8960725  57.2741802 108.3701391  56.6745680
  46.7656137 116.8382281  64.6838667  47.4665596 117.4718764  64.8368061
  46.2951252 117.1797013  63.9234306  54.8910533 115.1800231  52.9686574
  55.1670376 115.0656825  53.8780448  54.0215031 114.7817716  52.9298747
  54.7950964 101.2036997  60.0091323  53.8814044 101.4341223  60.1773530
  55.2244066 101.2875441  60.8605356  54.5657423 109.3926889  62.5091217
  53.9128873 109.6402796  61.8543670  54.9437803 108.5791027  62.1753694
  51.5264597 119.4286582  56.6119388  51.7086991 118.6108238  57.0747140
  52.3497583 119.6454274  56.1744277  51.8606762 118.3554767  53.8734436
  52.3894528 117.8447221  53.2604598  52.1234982 118.0397297  54.7379969
  50.6144996 110.1346700  68.9957254  49.9385633 110.0340829  69.6659630
  51.4372630 109.9785913  69.4593252  42.3623855 116.3718636  61.6169770
  42.9477292 115.6262324  61.7497674  42.1648693 116.6822593  62.5006433
  45.2162510 119.4069883  56.6332212  44.5472885 119.8916011  56.1496252
  45.0775380 119.6539104  57.5475590  36.9541509 108.9424236  60.3374213
  36.9925609 108.4087827  61.1311331  36.4481802 108.4159442  59.7185190
  49.3567779 121.4413627  63.2314870  49.9086087 121.6045249  63.9963956
  49.6973972 122.0318065  62.5594895  44.3332272 103.7888777  63.8336755
  44.3973598 104.6503608  63.4214153  44.2699392 103.1762778  63.1009114
  43.8084544 105.8611909  67.4809789  44.4356583 105.4788987  68.0947314
  42.9512463 105.6426111  67.8465482  54.2078653 116.2674885  69.0863525
  54.7518557 116.8804843  68.5918480  53.6265498 116.8254463  69.6030538
  40.5850087 107.6688338  53.4128144  40.8803528 106.7599017  53.3595198
  39.6838123 107.6476078  53.0909146  52.4936166 119.3895603  60.2178552
  52.3687305 118.5885342  59.7089498  53.1515257 119.8841796  59.7292522
  44.1144334 105.7444335  59.3955693  43.3930920 106.3580303  59.2563166
  44.9037590 106.2802100  59.3172339  54.5571074 117.1904623  61.8458103
  53.6101410 117.0709974  61.7736429  54.9053847 116.3027121  61.9284364
  46.9170648 103.0798762  65.6696344  47.4405049 103.3261058  66.4322654
  46.6982981 103.9118796  65.2499482  42.3137929 105.3502436  53.5367469
  41.9850635 104.4699815  53.3542575  42.6677299 105.2950105  54.4243858
  51.5617508 116.9857339  58.0462455  51.4142470 116.0574046  58.2270025
  52.3871001 117.0077430  57.5619530  45.4279752 105.6375406  53.9042947
  45.7675824 106.1661327  53.1821555  45.8751872 105.9755812  54.6801513
  55.1651629 117.8085898  59.1327328  56.0898177 117.6028759  58.9951779
  54.9966933 117.5602299  60.0416669  48.1223193 104.0212457  63.3546015
  47.7820013 103.2220270  63.7566695  47.4162199 104.3214167  62.7822848
  48.7739664 101.1061769  61.8073338  49.5965734 100.6322247  61.6852228
  49.0177728 101.8852253  62.3072024  47.4147899 104.1350028  52.1036240
  48.1356261 104.5131280  51.5999957  46.7913203 104.8538904  52.2071218
  51.5579022 104.8395176  53.0394572  51.7742636 105.7219814  52.7383400
  51.0773089 104.4481390  52.3100214  46.2978243 107.7980890  59.6165317
  46.1522824 108.1121193  60.5089598  45.8203447 108.4165790  59.0636215
  48.1574626 104.7883438  59.6646206  48.1436195 103.8924531  59.3278504
  48.8747054 104.7954101  60.2984492  50.0100757 105.2220778  61.7099334
  49.7518535 106.1437849  61.7083664  49.4785797 104.8251212  62.3999798
  54.9546946 118.3271565  54.4889419  55.1283823 117.7617988  53.7363271
  55.4475837 119.1272460  54.3068909  40.7723905 110.3386234  62.5552978
  40.2277373 111.1146042  62.6873252  41.6503255 110.6857039  62.3972099
  47.5611522 103.6697818  54.9333776  47.6827433 102.7414464  55.1324664
  47.2713564 103.6836504  54.0212092  50.4302712 101.3552728  58.0700496
  50.4524409 101.4192062  57.1152476  50.8470771 100.5157237  58.2641002
  60.8086337 111.0907988  56.1079719  61.2517483 110.3415313  55.7098842
  59.9312847 111.0818124  55.7253451  55.9422118 117.6438329  51.5886317
  56.6373023 118.2645022  51.8073632  56.2845268 116.7933681  51.8638695
  41.5589927 109.4656130  65.4483135  40.8171663 109.6138766  66.0347765
  41.2382672 109.7264396  64.5849884  57.8413541 115.0938035  53.1173648
  58.3664865 115.4325308  52.3922968  57.7535894 114.1585050  52.9336783
  49.5033590 119.0072109  65.2463525  49.8120716 118.7621255  66.1186224
  50.3009072 119.2118747  64.7582395  49.5254202 121.1610018  57.4768901
  49.0859192 120.6686397  58.1701758  50.2762319 120.6182986  57.2360976
  42.0046541 117.3521559  57.4793529  42.8304561 117.0525331  57.0992173
  41.6540593 116.5829182  57.9283318  46.9728074 116.7048027  59.5491203
  46.3508083 116.0418732  59.2493431  47.6432941 116.7309159  58.8664851
  40.2055146 115.2707886  58.4382463  39.3687054 114.8430060  58.2566464
  40.1778791 115.4640329  59.3753254  47.0452602 105.1829815  69.1423709
  47.0940757 106.0591938  68.7601478  47.5875116 104.6407208  68.5695352
  57.5307447 115.7270939  68.4224846  56.7402991 115.7095077  67.8829345
  57.2940802 116.2659232  69.1773883  57.6505322 112.5763405  65.7357575
  57.7003327 112.4113412  66.6773097  57.5419246 111.7090664  65.3455455
  46.5341581 115.2551951  53.0249663  46.6829701 115.9387415  52.3716336
  47.3408024 115.2357041  53.5399119  54.9409085 108.5594333  67.0516881
  55.8418947 108.4200798  66.7600879  55.0157059 108.7248788  67.9915059
  49.2751890 105.9361188  65.8970068  48.4055199 106.2294754  65.6252656
  49.5111370 106.5201633  66.6177331  59.1523519 114.9960346  65.9799596
  58.8608327 115.3590327  66.8163057  58.5395650 114.2827355  65.8012928
  60.3519201 112.5613226  58.5002166  61.1866093 113.0003030  58.6639727
  60.4878330 112.0851879  57.6810412  57.4010707 110.1192961  64.4479654
  57.8764829 110.3120607  63.6398505  56.4776273 110.1752147  64.2023038
  44.2894214 111.2817128  54.0310732  44.0440256 110.3779458  54.2290942
  44.4590129 111.2834279  53.0890210  51.9790924 102.1540805  63.4135488
  52.4972868 102.8901832  63.0881977  51.6246057 102.4604798  64.2482247
  43.5589862 107.0145486  51.5296894  42.8659106 107.0889841  50.8736930
  43.3141613 106.2505830  52.0518411  52.2303518  98.5741087  58.9336385
  52.5105272  97.9064276  59.5596811  53.0154125  98.7670183  58.4211048
  50.0336987 117.7500081  50.4961411  49.4610954 118.3690268  50.0431883
  50.6069780 118.2999443  51.0301333  56.1012376 106.9958721  62.6807960
  57.0529799 107.0956819  62.7020184  55.9315827 106.2036990  63.1906044
  54.1226756 104.0814304  62.8667361  53.5276688 104.3619317  62.1713849
  53.8376453 104.5708205  63.6384102  53.2534246 118.0337231  51.6269993
  54.1864919 117.9682793  51.8302869  53.1657459 118.8693498  51.1684526
  55.8822263 117.3503102  48.5873941  55.8035895 117.0162965  49.4809699
  56.7031930 117.8424869  48.5865413  58.5800454 110.2164841  61.7950259
  58.5476774 109.2780842  61.9809943  59.1901078 110.2948878  61.0616084
  50.4183785 109.0860894  47.8377463  51.3642890 108.9567102  47.9065881
  50.0398030 108.3475556  48.3146892  58.7294943 107.0075884  61.8408542
  58.2133991 106.2234341  61.6538471  59.6134891 106.6794601  62.0055062
  56.3905670 100.7516900  57.8004355  56.1930491 100.4431988  58.6847687
  57.0005375 101.4778539  57.9302285  64.3977004 111.2780848  60.9356296
  65.1280392 111.0166136  61.4963999  63.7883949 110.5409570  60.9758364
  62.4792301 109.4188710  61.5330747  61.7525465 109.2844675  60.9247239
  62.0639588 109.7265539  62.3387465  50.3022478 113.1378640  69.2978120
  51.2225487 113.3157239  69.4918167  50.2672061 112.1934685  69.1457820
  48.6026702 107.0110870  47.7732349  47.6958158 106.7143983  47.8495062
  48.8802683 106.7140688  46.9066635  39.5204643 108.3317234  58.2231395
  39.2007427 107.4782542  57.9305769  38.9738071 108.5465812  58.9789362
  43.2984550 111.0479675  61.9400901  43.5170560 111.9796782  61.9588935
  43.7110324 110.6887649  62.7255705  50.2188768 101.5547760  53.9276590
  49.4089496 101.2094845  54.3031836  50.9073185 101.2455304  54.5164201
  52.1479316 100.6325807  55.5500886  52.7010355 101.0521260  56.2090910
  52.3849403  99.7061555  55.5923843  48.1712415 106.6212880  71.3303650
  48.0709142 107.5707237  71.2615741  47.9533957 106.2931119  70.4579720
  47.3725487 103.8697805  47.9144328  48.2344651 104.1952704  48.1740145
  47.5575831 103.0829301  47.4017394  39.3892903 111.9520145  60.1924517
  38.6956374 111.5374098  59.6794471  40.1365894 111.9940682  59.5957935
  55.5258123 102.7426332  55.0579551  54.9456792 103.4011136  54.6757603
  55.2594056 101.9203677  54.6466968  53.9761690 102.1431390  57.2600871
  54.4761468 102.2547924  56.4515190  54.6197298 101.8392442  57.9001680
  48.0343685 110.0510019  70.1468712  47.5510767 110.8510379  70.3532601
  48.1204625 110.0617964  69.1936156  41.3029645 111.8838399  58.0690531
  41.2800333 111.9826086  57.1172415  41.6130282 112.7303550  58.3907698
  43.9617023 113.9414554  62.1837146  44.9160277 113.9098496  62.1167077
  43.7629547 113.4805178  62.9987372  44.5516405 112.5115670  64.7507944
  45.3709294 113.0059749  64.7742781  44.8253213 111.5947638  64.7225511
  54.3083001 104.9026422  54.1135899  53.4208856 105.1876073  53.8956094
  54.7236990 104.7420186  53.2663176  57.6597537 104.9272943  57.8290238
  58.4357928 105.4169396  58.1014855  56.9345672 105.3530997  58.2862108
  60.0970096 105.6400563  58.8864179  60.6914587 105.3996298  58.1757487
  60.1696680 104.9207693  59.5137715  42.3167252 119.4834173  59.2007344
  42.1821720 118.7234574  58.6345342  41.8999314 120.2075073  58.7336133
  53.4526215 114.6671097  48.2083919  54.1562065 114.8721099  48.8241575
  52.7288864 115.2347859  48.4733003  54.2824025 110.4180958  54.3286189
  54.2259226 110.8749510  53.4893822  54.8352368 109.6571643  54.1509032
  58.0928831 106.2070690  55.1536309  57.8365765 105.8067326  55.9844516
  57.4681699 106.9214484  55.0286448  62.4041169 108.9466763  57.6607600
  61.8440727 109.0159953  58.4339162  61.7984672 108.7707748  56.9407096
  45.4736378 120.3803490  59.4125786  45.3568762 121.3248923  59.3104477
  44.6528824 120.0777052  59.8011586  55.3612912 115.1053626  50.2582379
  56.1958516 114.6734825  50.0759854  55.1997255 114.9335640  51.1859274
  55.0158804 111.6085740  51.6238718  54.9607608 111.4430011  50.6827162
  54.3904860 112.3161772  51.7800908  39.8051319 106.8453804  65.4500141
  40.4510183 106.3352758  65.9387366  39.5968470 107.5822486  66.0243566
  52.3304712 113.9134651  70.9492281  53.1995871 114.0875304  70.5878916
  51.8511463 114.7329068  70.8268010  48.3254930 101.1093849  51.2024037
  48.3133600 102.0535688  51.3592308  49.2178352 100.9263994  50.9083498
  46.4990892 121.0331752  62.6281715  47.4018138 121.0655363  62.9448210
  46.2728262 120.1032203  62.6428051  48.2544494 119.7862739  59.2891793
  47.3040125 119.7864601  59.1756166  48.5576980 119.0395473  58.7727828
  52.1407049  97.7036625  55.4569974  51.3739445  97.1495112  55.6026656
  52.5517754  97.7758494  56.3184125  44.1448810 103.9921421  69.5475155
  45.0080272 103.6358226  69.7578479  43.5714221 103.6535316  70.2350559
  63.9897187 125.6223277  60.3537556  64.6275597 125.5030025  59.6500896
  63.8718030 126.5704121  60.4125508  60.7986894 125.5750705  60.2899081
  60.4605405 125.4591770  59.4019615  61.6676662 125.1741870  60.2700087
  56.6573709 127.4286182  56.2795971  56.0938574 127.3376119  55.5112259
  56.5426104 126.6086086  56.7598464  61.2806677 126.7285557  66.2485286
  61.2695317 126.3338355  65.3765790  61.4427316 125.9951630  66.8419057
  54.2038141 128.9237373  59.1180192  54.9959433 128.5828198  58.7026491
  54.4434791 129.0332348  60.0382345  62.2373268 131.0957150  51.5910436
  61.5861248 131.6811230  51.2044450  63.0317631 131.6263344  51.6505474
  56.1628895 128.1846287  51.9897571  56.9359771 127.6375274  51.8510447
  56.5154294 129.0490536  52.2012032  58.0013938 129.5122669  65.1964470
  57.7103804 130.4168300  65.0811136  58.6370922 129.5539197  65.9108540
  58.9270145 126.8899517  61.7865830  59.5233717 126.6655540  61.0722793
  58.9845116 126.1484263  62.3891278  58.4995173 124.3438953  49.6216021
  58.7520694 123.8220474  48.8599484  57.5619732 124.1805098  49.7242704
  63.5438456 123.3474731  57.4290764  64.3301545 122.9294154  57.0781181
  63.8077160 124.2520823  57.5972412  63.7148533 128.7847581  52.1279421
  63.0794366 128.8582208  52.8400325  63.3845940 129.3741180  51.4498500
  68.9446883 123.2849964  58.3323742  69.6772055 122.7149181  58.5661572
  68.1886239 122.8971565  58.7730248  58.2191462 126.2467059  51.8240396
  58.1027720 125.5711962  52.4921480  58.3293722 125.7599433  51.0072549
  60.5623003 125.7077206  55.5287085  60.1981210 125.1807827  56.2400006
  61.4190119 125.3175675  55.3553570  66.4672303 116.9971538  62.7918351
  66.1355628 117.8666949  62.5679566  65.8717917 116.6807822  63.4712381
  60.2028490 120.7367106  50.5248433  60.3702892 121.6047342  50.8918904
  60.0125659 120.8994387  49.6009723  62.9603823 129.1984084  62.1914264
  62.6604546 130.1009123  62.0830071  62.6154882 128.9316268  63.0435417
  56.4116304 125.6497881  58.2250968  55.4866801 125.5174095  58.4328660
  56.6600717 126.4292101  58.7220911  66.3600967 121.7166625  59.8711701
  65.4517844 121.6482033  59.5770462  66.3088562 122.1938570  60.6993526
  60.1817710 123.1924763  51.5095100  60.0617336 123.6381814  52.3480580
  59.4870299 123.5410081  50.9508638  53.7725115 125.2931155  59.0594757
  53.9017496 125.5465634  59.9734169  53.0922567 125.8858863  58.7399412
  57.9424603 135.9628405  55.1585231  57.8648632 136.9136230  55.2373712
  57.3386246 135.6174277  55.8160158  60.4341832 123.1356270  67.8146598
  59.6575166 123.6950190  67.8049463  61.0732395 123.6213053  68.3361468
  68.2262613 119.9183063  61.6489575  67.5836993 120.2115596  61.0029370
  67.7217541 119.8035983  62.4542772  65.8802777 123.6646236  52.3375434
  66.7920633 123.8973623  52.1623132  65.3712424 124.2483280  51.7750513
  58.6888205 125.9441724  67.3764565  59.4302889 126.4826768  67.0999389
  57.9825190 126.5708012  67.5336117  64.1643544 128.0870864  65.9736727
  64.5726900 127.6453275  65.2291359  63.4420806 127.5123492  66.2270920
  60.5174614 123.0243471  63.3470284  61.3635810 123.4482884  63.4904933
  60.4573252 122.3677095  64.0408847  64.4872359 128.6472055  59.7289016
  63.8581221 128.8117769  59.0265084  64.0998021 129.0613664  60.4999980
  68.3661591 129.5826493  57.0833379  67.6812629 129.9625394  56.5330413
  68.4505440 130.1921819  57.8165327  63.6674060 120.6847839  65.0051457
  63.4234992 121.4389900  64.4685733  63.9433990 121.0633187  65.8398704
  65.6212522 127.2286452  63.6828723  65.8329418 127.8718211  63.0063104
  65.5742271 126.3948768  63.2150653  63.2238751 119.8404272  60.5865295
  62.3623230 120.1385526  60.8782033  63.2501186 120.0574671  59.6546328
  60.0400321 128.3846463  56.9939101  60.5038666 128.6634166  56.2043723
  59.7757119 127.4829907  56.8112191  56.9324402 127.9317944  59.9318864
  57.5025759 128.3605213  59.2936349  57.5232514 127.6500529  60.6303050
  58.9769207 124.5069615  53.8028666  59.6793250 124.9590659  54.2702592
  58.6449835 123.8653434  54.4308559  57.4249568 123.0981372  68.1779875
  56.7948229 123.7797653  68.4115272  57.3185656 122.9864453  67.2333014
  52.7194541 122.7653168  59.1045799  51.9293595 123.0210696  58.6285910
  53.2105788 123.5801506  59.2097840  66.7358350 130.1058407  61.8551080
  67.5575794 129.7038594  61.5733762  66.7320753 130.0026641  62.8067196
  54.6709286 123.1297747  56.0629276  53.8740449 123.2416441  56.5812772
  54.4434878 123.4684399  55.1970167  60.5014954 129.6542450  64.0111791
  60.5659386 130.1162858  64.8469963  59.7925878 129.0239815  64.1394101
  51.0032244 123.0183658  61.5360790  51.2540282 123.9030668  61.8018366
  51.5391792 122.8388260  60.7635882  74.8264343 126.4497155  58.2036052
  74.0728052 125.8804554  58.0480056  74.9611885 126.4159820  59.1506686
  60.2162971 131.3210558  53.8790771  60.0808646 132.1662093  54.3075619
  60.7572784 131.5229835  53.1156705  56.7030311 117.4002138  70.5405126
  56.3097257 116.8468336  71.2152771  57.5196451 117.7112716  70.9311644
  53.6692369 128.8385996  54.4518696  54.1816889 129.6329246  54.6024261
  54.3215082 128.1412286  54.3852298  55.4787254 131.9551752  56.5341449
  55.6553882 132.8769717  56.3462433  56.2744087 131.6410171  56.9635829
  59.6198272 118.8160017  68.1325383  60.3607985 119.4167170  68.0529845
  59.8516195 118.0737654  67.5743425  54.7639610 124.0016384  66.4103613
  54.6493125 123.1001641  66.7110711  53.9084128 124.2480081  66.0588429
  61.8431448 131.9434124  68.0091113  61.3995302 131.1570503  67.6912018
  62.5048661 132.1313275  67.3435004  56.6018569 133.4729926  62.5351792
  57.1525994 133.3446989  61.7628786  55.7630045 133.7724815  62.1846684
  63.9412686 132.2236924  66.0372514  63.9231161 133.0445805  65.5452784
  64.8632606 132.0990999  66.2622656  60.3985740 129.7381054  66.8796023
  60.9314077 128.9769342  66.6495331  59.8699821 129.4454705  67.6220177
  63.5655435 114.8441120  62.4089665  63.2219704 115.7342761  62.3328775
  63.9334398 114.6542777  61.5459250  51.6341286 127.1674650  55.2278267
  52.4716508 127.5771658  55.0111974  51.8119553 126.2274092  55.1978461
  63.5305718 124.8349731  50.9162100  63.0152341 125.6054335  51.1550487
  63.2583026 124.1614867  51.5395161  61.1152829 119.6799432  55.9747338
  60.2594425 119.2906282  55.7952977  61.5279781 119.7591392  55.1147124
  62.6451975 117.2145775  60.3738898  62.1416771 117.1775910  59.5606703
  62.9382582 118.1238518  60.4335554  58.8894861 117.2984505  59.3805080
  59.7547858 117.1027313  59.0210969  58.9572370 117.0694856  60.3074436
  68.5039992 127.5882085  52.8515273  67.7269435 127.2493245  52.4070435
  69.1831473 127.5934709  52.1770238  63.3192021 122.7076823  52.7421881
  63.0142157 123.0222972  53.5932024  64.2722463 122.7858243  52.7849214
  61.7638453 128.8667046  54.3914835  61.2359814 128.1319806  54.0788072
  61.2625956 129.6441723  54.1454803  66.7431299 127.0616067  59.5081881
  66.0854973 127.7515328  59.5962010  67.5471698 127.4512499  59.8515868
  56.4957180 119.5286712  56.7521446  57.0700932 119.3061894  56.0194639
  57.0828163 119.5975407  57.5050048  65.5536758 125.4160439  57.5585823
  66.0668639 126.0490431  58.0607533  66.2037981 124.8161635  57.1929183
  56.8226767 121.5591173  50.7717332  55.9864080 121.8965860  51.0926606
  56.6831537 121.4240153  49.8344469  58.7979848 116.4027961  55.4796516
  58.1444260 116.0876979  54.8553131  58.7560322 115.7803702  56.2056339
  59.9091053 126.6847256  47.3949808  59.0018115 126.4536510  47.5940957
  60.4062085 125.8884876  47.5823789  62.8159132 135.3944764  50.3146494
  62.1420831 135.6976460  50.9231452  63.2024954 136.1973844  49.9651951
  62.0317588 122.8909895  59.8044163  61.1140150 123.1124842  59.6465851
  62.4477732 122.9656205  58.9455871  62.8152636 124.2901311  54.9346844
  63.5624455 124.8022708  54.6253966  63.0844226 123.9685363  55.7951237
  61.0879286 126.7859851  51.9173798  60.1790506 126.5018884  52.0146268
  61.1174370 127.2058930  51.0577105  66.3198554 130.3966441  55.6864966
  65.8660881 129.5557351  55.7430156  65.6892521 131.0327839  56.0239746
  65.2631473 121.3258427  56.9165633  64.5254230 120.8135813  57.2475876
  65.5158247 120.8858808  56.1048910  64.7631493 132.2342937  56.6214784
  65.0554467 132.7947995  55.9027149  65.2730114 132.5271498  57.3767943
  65.3643101 114.1034679  57.5107402  65.6701978 113.2432042  57.2233317
  66.0895706 114.6952299  57.3106396  51.6567457 124.5065365  55.8989000
  51.4591857 123.9134726  55.1740067  51.1014121 124.2017576  56.6164939
  59.6364180 124.3988472  58.0183593  59.6912790 123.4462308  57.9426070
  58.8255382 124.5547911  58.5024892  60.7855374 128.3268595  49.2561877
  60.3474804 127.6104454  48.7967514  61.5265815 128.5544710  48.6946968
  57.5756540 123.0165532  55.7773972  56.7624406 123.3159702  56.1839164
  58.0715535 122.6221220  56.4948454  59.7265118 133.0123289  57.7108237
  59.6841297 133.2384135  56.7816769  60.6427817 132.7786663  57.8594038
  63.1730752 123.4807356  64.6088866  63.5280140 123.7078829  65.4683332
  63.8202883 123.8125733  63.9866121  68.9028489 126.6025792  55.3138195
  68.7646388 126.7927388  54.3859384  68.5464708 127.3645175  55.7706246
  57.0670615 120.5883887  61.3935207  57.7069994 120.4472646  60.6958170
  56.2348146 120.3018401  61.0173809  68.9297869 128.6702319  60.3249467
  69.3634375 128.5777608  61.1732521  69.6429449 128.6459819  59.6869483
  57.8430919 129.8886318  57.5070200  58.6371518 129.3936638  57.3052775
  57.1322611 129.3604181  57.1437905  62.6625763 132.2704413  61.8582567
  62.7162786 132.8395349  62.6260283  61.7940545 132.4406298  61.4936604
  54.1513682 124.0329399  53.5829952  53.2211271 123.9713855  53.7999914
  54.2471154 123.5105352  52.7866594  54.0699232 120.5584212  56.1708194
  54.3306049 121.4729545  56.0617354  54.8916404 120.0908655  56.3204807
  55.5424157 121.9721969  63.3407018  56.2147210 121.7639331  62.6919667
  54.7153943 121.7744055  62.9012251  69.7913418 128.7126020  62.8582352
  69.9849308 129.6171830  63.1041627  69.6914036 128.2533439  63.6920937
  61.4449729 118.5983910  65.3572679  60.7977644 119.2973860  65.2637156
  62.2150744 119.0320054  65.7248928  64.8528527 128.8632762  68.4323233
  64.7014033 128.6343314  67.5153316  64.8433206 129.8203364  68.4454578
  61.6213863 126.4364675  63.4169499  62.5505923 126.5875835  63.2438466
  61.2004893 126.5248696  62.5618146  60.4202195 130.4615340  61.1868037
  60.2813281 130.0934124  62.0593975  59.6316791 130.9762979  61.0151994
  61.0150347 135.5624436  52.5293573  61.1902103 135.0912479  53.3439196
  60.3283135 136.1890202  52.7574834  61.9707410 129.8396942  58.5756874
  61.6357243 129.7997712  59.4714524  61.4711356 129.1741658  58.1027285
  55.9451654 125.2464572  64.1009456  55.8071452 124.5144811  64.7020995
  56.8556578 125.1573472  63.8193643  64.9066602 127.1852977  48.8493934
  64.2895772 126.4599805  48.7526987  64.4383090 127.9462337  48.5061008
  58.5733955 124.9584532  63.5893135  59.2833573 124.3177724  63.5479754
  58.5303263 125.2097426  64.5119316  66.5620733 131.8951885  66.5099714
  66.5033280 131.2111105  65.8430298  66.9640252 132.6370875  66.0580340
  57.2862889 121.9449749  65.4088775  56.7500246 121.4940488  66.0610371
  56.6979597 122.0795658  64.6659239  55.5811432 138.7113799  59.3033433
  55.8208030 139.3432323  59.9812452  54.7380629 138.3601839  59.5898793
  56.6965148 121.4038401  47.9715238  55.8194614 121.2827202  47.6077485
  57.1722901 120.6124479  47.7194127  66.5638141 129.8591469  64.7413694
  65.6764920 129.5217391  64.8640093  67.1336692 129.1274500  64.9782460
  48.2167288 126.1915561  58.0656746  48.9038328 125.8777291  57.4777761
  48.0615417 127.0956925  57.7923997  53.0202010 121.0805757  62.4941769
  52.9360199 120.4731427  61.7592179  52.1984716 121.5714776  62.4951266
  60.0939294 134.5192921  61.7074937  60.0209466 135.3247893  62.2194242
  59.6516687 134.7184887  60.8822959  59.8829074 133.7564691  55.2177759
  59.0996596 134.2986371  55.3115983  60.5821819 134.2738671  55.6172000
  63.1925724 119.5659321  57.8611964  63.6894423 118.8129283  57.5413035
  62.4212705 119.6023637  57.2955174  71.0455481 125.2699686  59.5030256
  71.0345358 126.1524402  59.1324189  70.1772861 124.9171237  59.3084793
  62.5537978 134.4179755  63.8633096  63.2665950 135.0527220  63.7908997
  62.0628006 134.5143621  63.0473098  64.2755505 128.3231008  55.4350388
  63.3411783 128.4432470  55.2655092  64.4532173 127.4203475  55.1710398
  59.7760693 121.7076704  57.5883649  59.4058480 121.1547744  58.2764554
  60.2719785 121.1034837  57.0358649  67.6628056 124.1648327  55.9700422
  68.1288508 124.9976319  55.8960725  68.1135556 123.6993309  56.6745680
  57.6049891 132.1674199  64.6838667  58.3059351 132.8010682  64.8368061
  57.1345006 132.5088930  63.9234306  65.7304287 130.5092149  52.9686574
  66.0064131 130.3948743  53.8780448  64.8608786 130.1109633  52.9298747
  65.6344719 116.5328914  60.0091323  64.7207798 116.7633141  60.1773530
  66.0637820 116.6167358  60.8605356  65.4051177 124.7218806  62.5091217
  64.7522627 124.9694714  61.8543670  65.7831557 123.9082944  62.1753694
  62.3658351 134.7578499  56.6119388  62.5480746 133.9400155  57.0747140
  63.1891337 134.9746192  56.1744277  62.7000517 133.6846684  53.8734436
  63.2288283 133.1739139  53.2604598  62.9628736 133.3689215  54.7379969
  61.4538750 125.4638617  68.9957254  60.7779387 125.3632747  69.6659630
  62.2766384 125.3077831  69.4593252  53.2017609 131.7010554  61.6169770
  53.7871046 130.9554242  61.7497674  53.0042448 132.0114510  62.5006433
  56.0556264 134.7361801  56.6332212  55.3866640 135.2207929  56.1496252
  55.9169134 134.9831022  57.5475590  47.7935264 124.2716154  60.3374213
  47.8319363 123.7379745  61.1311331  47.2875557 123.7451360  59.7185190
  60.1961533 136.7705545  63.2314870  60.7479841 136.9337166  63.9963956
  60.5367727 137.3609983  62.5594895  55.1726026 119.1180694  63.8336755
  55.2367353 119.9795525  63.4214153  55.1093147 118.5054696  63.1009114
  54.6478299 121.1903827  67.4809789  55.2750338 120.8080904  68.0947314
  53.7906218 120.9718029  67.8465482  65.0472407 131.5966802  69.0863525
  65.5912311 132.2096760  68.5918480  64.4659252 132.1546381  69.6030538
  51.4243842 122.9980256  53.4128144  51.7197283 122.0890935  53.3595198
  50.5231877 122.9767996  53.0909146  63.3329920 134.7187520  60.2178552
  63.2081060 133.9177260  59.7089498  63.9909011 135.2133714  59.7292522
  54.9538089 121.0736253  59.3955693  54.2324674 121.6872220  59.2563166
  55.7431344 121.6094018  59.3172339  65.3964829 132.5196540  61.8458103
  64.4495164 132.4001891  61.7736429  65.7447602 131.6319038  61.9284364
  57.7564402 118.4090679  65.6696344  58.2798804 118.6552976  66.4322654
  57.5376735 119.2410714  65.2499482  53.1531683 120.6794354  53.5367469
  52.8244389 119.7991733  53.3542575  53.5071054 120.6242023  54.4243858
  62.4011262 132.3149257  58.0462455  62.2536224 131.3865964  58.2270025
  63.2264756 132.3369347  57.5619530  56.2673506 120.9667324  53.9042947
  56.6069579 121.4953245  53.1821555  56.7145627 121.3047730  54.6801513
  66.0045384 133.1377815  59.1327328  66.9291931 132.9320677  58.9951779
  65.8360687 132.8894216  60.0416669  58.9616947 119.3504374  63.3546015
  58.6213767 118.5512187  63.7566695  58.2555953 119.6506085  62.7822848
  59.6133419 116.4353687  61.8073338  60.4359488 115.9614165  61.6852228
  59.8571482 117.2144171  62.3072024  58.2541653 119.4641945  52.1036240
  58.9750016 119.8423198  51.5999957  57.6306958 120.1830822  52.2071218
  62.3972776 120.1687094  53.0394572  62.6136391 121.0511732  52.7383400
  61.9166843 119.7773308  52.3100214  57.1371998 123.1272807  59.6165317
  56.9916578 123.4413110  60.5089598  56.6597201 123.7457708  59.0636215
  58.9968381 120.1175355  59.6646206  58.9829949 119.2216449  59.3278504
  59.7140809 120.1246019  60.2984492  60.8494511 120.5512696  61.7099334
  60.5912289 121.4729766  61.7083664  60.3179552 120.1543130  62.3999798
  65.7940700 133.6563483  54.4889419  65.9677578 133.0909905  53.7363271
  66.2869591 134.4564378  54.3068909  51.6117660 125.6678152  62.5552978
  51.0671128 126.4437960  62.6873252  52.4897010 126.0148956  62.3972099
  58.4005277 118.9989736  54.9333776  58.5221188 118.0706382  55.1324664
  58.1107319 119.0128422  54.0212092  61.2696467 116.6844646  58.0700496
  61.2918164 116.7483979  57.1152476  61.6864526 115.8449155  58.2641002
  71.6480091 126.4199906  56.1079719  72.0911237 125.6707231  55.7098842
  70.7706602 126.4110042  55.7253451  66.7815873 132.9730247  51.5886317
  67.4766777 133.5936940  51.8073632  67.1239023 132.1225598  51.8638695
  52.3983682 124.7948048  65.4483135  51.6565418 124.9430683  66.0347765
  52.0776426 125.0556314  64.5849884  68.6807296 130.4229953  53.1173648
  69.2058620 130.7617225  52.3922968  68.5929648 129.4876968  52.9336783
  60.3427344 134.3364026  65.2463525  60.6514471 134.0913173  66.1186224
  61.1402826 134.5410665  64.7582395  60.3647956 136.4901936  57.4768901
  59.9252947 135.9978315  58.1701758  61.1156073 135.9474904  57.2360976
  52.8440295 132.6813477  57.4793529  53.6698315 132.3817249  57.0992173
  52.4934347 131.9121099  57.9283318  57.8121829 132.0339945  59.5491203
  57.1901838 131.3710650  59.2493431  58.4826695 132.0601077  58.8664851
  51.0448900 130.5999803  58.4382463  50.2080809 130.1721978  58.2566464
  51.0172546 130.7932247  59.3753254  57.8846356 120.5121733  69.1423709
  57.9334512 121.3883856  68.7601478  58.4268870 119.9699126  68.5695352
  68.3701202 131.0562856  68.4224846  67.5796745 131.0386995  67.8829345
  68.1334556 131.5951150  69.1773883  68.4899077 127.9055323  65.7357575
  68.5397082 127.7405330  66.6773097  68.3813000 127.0382582  65.3455455
  57.3735335 130.5843868  53.0249663  57.5223456 131.2679333  52.3716336
  58.1801779 130.5648958  53.5399119  65.7802839 123.8886251  67.0516881
  66.6812702 123.7492716  66.7600879  65.8550814 124.0540706  67.9915059
  60.1145645 121.2653105  65.8970068  59.2448954 121.5586671  65.6252656
  60.3505125 121.8493550  66.6177331  69.9917274 130.3252264  65.9799596
  69.7002082 130.6882245  66.8163057  69.3789405 129.6119272  65.8012928
  71.1912956 127.8905144  58.5002166  72.0259847 128.3294948  58.6639727
  71.3272085 127.4143797  57.6810412  68.2404462 125.4484879  64.4479654
  68.7158583 125.6412525  63.6398505  67.3170027 125.5044065  64.2023038
  55.1287968 126.6109046  54.0310732  54.8834010 125.7071376  54.2290942
  55.2983883 126.6126196  53.0890210  62.8184678 117.4832722  63.4135488
  63.3366622 118.2193749  63.0881977  62.4639811 117.7896716  64.2482247
  54.3983616 122.3437404  51.5296894  53.7052861 122.4181759  50.8736930
  54.1535368 121.5797747  52.0518411  63.0697273 113.9033005  58.9336385
  63.3499026 113.2356194  59.5596811  63.8547879 114.0962101  58.4211048
  60.8730741 133.0791999  50.4961411  60.3004708 133.6982186  50.0431883
  61.4463535 133.6291360  51.0301333  66.9406131 122.3250639  62.6807960
  67.8923554 122.4248737  62.7020184  66.7709581 121.5328907  63.1906044
  64.9620510 119.4106222  62.8667361  64.3670442 119.6911235  62.1713849
  64.6770207 119.9000123  63.6384102  64.0928001 133.3629149  51.6269993
  65.0258674 133.2974711  51.8302869  64.0051214 134.1985416  51.1684526
  66.7216017 132.6795019  48.5873941  66.6429649 132.3454883  49.4809699
  67.5425684 133.1716787  48.5865413  69.4194209 125.5456759  61.7950259
  69.3870529 124.6072759  61.9809943  70.0294832 125.6240795  61.0616084
  61.2577540 124.4152812  47.8377463  62.2036644 124.2859020  47.9065881
  60.8791784 123.6767473  48.3146892  69.5688697 122.3367802  61.8408542
  69.0527746 121.5526259  61.6538471  70.4528646 122.0086519  62.0055062
  67.2299424 116.0808818  57.8004355  67.0324245 115.7723906  58.6847687
  67.8399130 116.8070456  57.9302285  75.2370759 126.6072765  60.9356296
  75.9674147 126.3458054  61.4963999  74.6277704 125.8701487  60.9758364
  73.3186056 124.7480628  61.5330747  72.5919219 124.6136593  60.9247239
  72.9033343 125.0557457  62.3387465  61.1416232 128.4670558  69.2978120
  62.0619242 128.6449157  69.4918167  61.1065815 127.5226603  69.1457820
  59.4420457 122.3402788  47.7732349  58.5351912 122.0435901  47.8495062
  59.7196438 122.0432606  46.9066635  50.3598397 123.6609151  58.2231395
  50.0401181 122.8074460  57.9305769  49.8131825 123.8757729  58.9789362
  54.1378305 126.3771592  61.9400901  54.3564314 127.3088700  61.9588935
  54.5504078 126.0179567  62.7255705  61.0582522 116.8839678  53.9276590
  60.2483251 116.5386763  54.3031836  61.7466939 116.5747221  54.5164201
  62.9873071 115.9617724  55.5500886  63.5404109 116.3813178  56.2090910
  63.2243157 115.0353473  55.5923843  59.0106170 121.9504798  71.3303650
  58.9102897 122.8999155  71.2615741  58.7927712 121.6223037  70.4579720
  58.2119241 119.1989723  47.9144328  59.0738405 119.5244621  48.1740145
  58.3969585 118.4121219  47.4017394  50.2286657 127.2812063  60.1924517
  49.5350128 126.8666016  59.6794471  50.9759648 127.3232599  59.5957935
  66.3651878 118.0718250  55.0579551  65.7850547 118.7303054  54.6757603
  66.0987810 117.2495594  54.6466968  64.8155444 117.4723307  57.2600871
  65.3155222 117.5839842  56.4515190  65.4591052 117.1684360  57.9001680
  58.8737440 125.3801937  70.1468712  58.3904522 126.1802297  70.3532601
  58.9598379 125.3909882  69.1936156  52.1423400 127.2130317  58.0690531
  52.1194088 127.3118004  57.1172415  52.4524036 128.0595467  58.3907698
  54.8010777 129.2706472  62.1837146  55.7554031 129.2390414  62.1167077
  54.6023301 128.8097095  62.9987372  55.3910160 127.8407588  64.7507944
  56.2103049 128.3351666  64.7742781  55.6646967 126.9239556  64.7225511
  65.1476756 120.2318340  54.1135899  64.2602611 120.5167991  53.8956094
  65.5630745 120.0712103  53.2663176  68.4991292 120.2564861  57.8290238
  69.2751682 120.7461313  58.1014855  67.7739426 120.6822915  58.2862108
  70.9363851 120.9692480  58.8864179  71.5308341 120.7288216  58.1757487
  71.0090434 120.2499611  59.5137715  53.1561006 134.8126091  59.2007344
  53.0215474 134.0526492  58.6345342  52.7393069 135.5366991  58.7336133
  64.2919969 129.9963015  48.2083919  64.9955819 130.2013017  48.8241575
  63.5682618 130.5639777  48.4733003  65.1217780 125.7472876  54.3286189
  65.0652981 126.2041427  53.4893822  65.6746122 124.9863561  54.1509032
  68.9322585 121.5362608  55.1536309  68.6759520 121.1359243  55.9844516
  68.3075453 122.2506402  55.0286448  73.2434923 124.2758681  57.6607600
  72.6834481 124.3451870  58.4339162  72.6378427 124.0999666  56.9407096
  56.3130132 135.7095408  59.4125786  56.1962516 136.6540841  59.3104477
  55.4922578 135.4068970  59.8011586  66.2006667 130.4345544  50.2582379
  67.0352271 130.0026742  50.0759854  66.0391010 130.2627558  51.1859274
  65.8552559 126.9377657  51.6238718  65.8001363 126.7721929  50.6827162
  65.2298614 127.6453690  51.7800908  50.6445074 122.1745722  65.4500141
  51.2903937 121.6644676  65.9387366  50.4362225 122.9114403  66.0243566
  63.1698466 129.2426569  70.9492281  64.0389626 129.4167221  70.5878916
  62.6905217 130.0620986  70.8268010  59.1648684 116.4385766  51.2024037
  59.1527354 117.3827606  51.3592308  60.0572106 116.2555912  50.9083498
  57.3384646 136.3623670  62.6281715  58.2411893 136.3947280  62.9448210
  57.1122016 135.4324121  62.6428051  59.0938248 135.1154657  59.2891793
  58.1433879 135.1156518  59.1756166  59.3970734 134.3687391  58.7727828
  62.9800804 113.0328543  55.4569974  62.2133200 112.4787030  55.6026656
  63.3911509 113.1050412  56.3184125  54.9842565 119.3213339  69.5475155
  55.8474026 118.9650143  69.7578479  54.4107975 118.9827233  70.2350559
  74.8290942 140.9515195  60.3537556  75.4669352 140.8321942  59.6500896
  74.7111785 141.8996039  60.4125508  71.6380648 140.9042623  60.2899081
  71.2999160 140.7883688  59.4019615  72.5070416 140.5033788  60.2700087
  67.4967464 142.7578099  56.2795971  66.9332329 142.6668036  55.5112259
  67.3819859 141.9378004  56.7598464  72.1200431 142.0577475  66.2485286
  72.1089072 141.6630273  65.3765790  72.2821070 141.3243547  66.8419057
  65.0431896 144.2529291  59.1180192  65.8353188 143.9120116  58.7026491
  65.2828546 144.3624266  60.0382345  73.0767022 146.4249067  51.5910436
  72.4255002 147.0103148  51.2044450  73.8711385 146.9555262  51.6505474
  67.0022650 143.5138204  51.9897571  67.7753526 142.9667191  51.8510447
  67.3548048 144.3782454  52.2012032  68.8407692 144.8414587  65.1964470
  68.5497558 145.7460217  65.0811136  69.4764677 144.8831114  65.9108540
  69.7663899 142.2191435  61.7865830  70.3627471 141.9947458  61.0722793
  69.8238871 141.4776181  62.3891278  69.3388927 139.6730870  49.6216021
  69.5914448 139.1512392  48.8599484  68.4013487 139.5097016  49.7242704
  74.3832210 138.6766649  57.4290764  75.1695299 138.2586072  57.0781181
  74.6470915 139.5812741  57.5972412  74.5542288 144.1139499  52.1279421
  73.9188121 144.1874126  52.8400325  74.2239694 144.7033098  51.4498500
  79.7840637 138.6141882  58.3323742  80.5165809 138.0441099  58.5661572
  79.0279993 138.2263482  58.7730248  69.0585216 141.5758976  51.8240396
  68.9421474 140.9003880  52.4921480  69.1687476 141.0891350  51.0072549
  71.4016757 141.0369124  55.5287085  71.0374964 140.5099744  56.2400006
  72.2583873 140.6467593  55.3553570  77.3066058 132.3263456  62.7918351
  76.9749383 133.1958867  62.5679566  76.7111671 132.0099740  63.4712381
  71.0422244 136.0659023  50.5248433  71.2096646 136.9339260  50.8918904
  70.8519413 136.2286305  49.6009723  73.7997577 144.5276002  62.1914264
  73.4998300 145.4301041  62.0830071  73.4548637 144.2608185  63.0435417
  67.2510059 140.9789799  58.2250968  66.3260555 140.8466013  58.4328660
  67.4994472 141.7584018  58.7220911  77.1994721 137.0458542  59.8711701
  76.2911598 136.9773951  59.5770462  77.1482317 137.5230487  60.6993526
  71.0211465 138.5216681  51.5095100  70.9011090 138.9673731  52.3480580
  70.3264053 138.8701998  50.9508638  64.6118870 140.6223073  59.0594757
  64.7411251 140.8757551  59.9734169  63.9316321 141.2150781  58.7399412
  71.2735587 138.4648188  67.8146598  70.4968921 139.0242108  67.8049463
  71.9126150 138.9504971  68.3361468  79.0656367 135.2474981  61.6489575
  78.4230748 135.5407514  61.0029370  78.5611296 135.1327901  62.4542772
  76.7196531 138.9938154  52.3375434  77.6314387 139.2265541  52.1623132
  76.2106178 139.5775198  51.7750513  69.5281959 141.2733641  67.3764565
  70.2696643 141.8118685  67.0999389  68.8218945 141.8999930  67.5336117
  75.0037299 143.4162782  65.9736727  75.4120655 142.9745192  65.2291359
  74.2814560 142.8415409  66.2270920  71.3568369 138.3535388  63.3470284
  72.2029564 138.7774802  63.4904933  71.2967006 137.6969013  64.0408847
  75.3266113 143.9763972  59.7289016  74.6974976 144.1409686  59.0265084
  74.9391775 144.3905582  60.4999980  79.2055345 144.9118410  57.0833379
  78.5206383 145.2917312  56.5330413  79.2899195 145.5213737  57.8165327
  74.5067814 136.0139757  65.0051457  74.2628746 136.7681817  64.4685733
  74.7827745 136.3925104  65.8398704  76.4606277 142.5578369  63.6828723
  76.6723172 143.2010129  63.0063104  76.4136025 141.7240686  63.2150653
  74.0632506 135.1696190  60.5865295  73.2016985 135.4677443  60.8782033
  74.0894941 135.3866589  59.6546328  70.8794075 143.7138380  56.9939101
  71.3432421 143.9926083  56.2043723  70.6150873 142.8121825  56.8112191
  67.7718156 143.2609862  59.9318864  68.3419513 143.6897130  59.2936349
  68.3626268 142.9792447  60.6303050  69.8162961 139.8361533  53.8028666
  70.5187005 140.2882576  54.2702592  69.4843590 139.1945352  54.4308559
  68.2643323 138.4273289  68.1779875  67.6341983 139.1089570  68.4115272
  68.1579411 138.3156371  67.2333014  63.5588295 138.0945085  59.1045799
  62.7687349 138.3502614  58.6285910  64.0499543 138.9093423  59.2097840
  77.5752105 145.4350325  61.8551080  78.3969549 145.0330512  61.5733762
  77.5714508 145.3318559  62.8067196  65.5103041 138.4589665  56.0629276
  64.7134204 138.5708359  56.5812772  65.2828633 138.7976317  55.1970167
  71.3408708 144.9834368  64.0111791  71.4053141 145.4454775  64.8469963
  70.6319632 144.3531733  64.1394101  61.8425998 138.3475576  61.5360790
  62.0934037 139.2322586  61.8018366  62.3785547 138.1680177  60.7635882
  85.6658098 141.7789073  58.2036052  84.9121806 141.2096471  58.0480056
  85.8005639 141.7451738  59.1506686  71.0556726 146.6502475  53.8790771
  70.9202401 147.4954011  54.3075619  71.5966538 146.8521753  53.1156705
  67.5424066 132.7294055  70.5405126  67.1491011 132.1760254  71.2152771
  68.3590206 133.0404634  70.9311644  64.5086123 144.1677913  54.4518696
  65.0210644 144.9621164  54.6024261  65.1608836 143.4704204  54.3852298
  70.4592027 134.1451934  68.1325383  71.2001740 134.7459088  68.0529845
  70.6909949 133.4029572  67.5743425  65.6033365 139.3308302  66.4103613
  65.4886880 138.4293559  66.7110711  64.7477882 139.5771998  66.0588429
  72.6825202 147.2726042  68.0091113  72.2389057 146.4862421  67.6912018
  73.3442416 147.4605192  67.3435004  74.7806440 147.5528842  66.0372514
  74.7624916 148.3737723  65.5452784  75.7026360 147.4282917  66.2622656
  71.2379495 145.0672971  66.8796023  71.7707831 144.3061260  66.6495331
  70.7093576 144.7746623  67.6220177  74.4049190 130.1733037  62.4089665
  74.0613459 131.0634679  62.3328775  74.7728152 129.9834695  61.5459250
  62.4735040 142.4966568  55.2278267  63.3110262 142.9063576  55.0111974
  62.6513308 141.5566010  55.1978461  74.3699472 140.1641648  50.9162100
  73.8546096 140.9346253  51.1550487  74.0976781 139.4906785  51.5395161
  71.9546583 135.0091349  55.9747338  71.0988180 134.6198200  55.7952977
  72.3673535 135.0883310  55.1147124  73.4845730 132.5437692  60.3738898
  72.9810526 132.5067828  59.5606703  73.7776337 133.4530435  60.4335554
  69.7288616 132.6276422  59.3805080  70.5941613 132.4319231  59.0210969
  69.7966125 132.3986774  60.3074436  79.3433746 142.9174003  52.8515273
  78.5663189 142.5785163  52.4070435  80.0225227 142.9226626  52.1770238
  74.1585775 138.0368741  52.7421881  73.8535911 138.3514890  53.5932024
  75.1116218 138.1150160  52.7849214  72.6032207 144.1958964  54.3914835
  72.0753569 143.4611723  54.0788072  72.1019710 144.9733640  54.1454803
  77.5825053 142.3907984  59.5081881  76.9248728 143.0807246  59.5962010
  78.3865453 142.7804416  59.8515868  67.3350935 134.8578630  56.7521446
  67.9094687 134.6353812  56.0194639  67.9221917 134.9267325  57.5050048
  76.3930512 140.7452357  57.5585823  76.9062394 141.3782349  58.0607533
  77.0431736 140.1453553  57.1929183  67.6620522 136.8883091  50.7717332
  66.8257834 137.2257778  51.0926606  67.5225292 136.7532071  49.8344469
  69.6373603 131.7319879  55.4796516  68.9838015 131.4168896  54.8553131
  69.5954077 131.1095619  56.2056339  70.7484807 142.0139174  47.3949808
  69.8411869 141.7828428  47.5940957  71.2455839 141.2176793  47.5823789
  72.8711343 138.2201813  59.8044163  71.9533904 138.4416760  59.6465851
  73.2871487 138.2948123  58.9455871  73.6546391 139.6193228  54.9346844
  74.4018210 140.1314625  54.6253966  73.9237980 139.2977281  55.7951237
  71.9273041 142.1151769  51.9173798  71.0184260 141.8310802  52.0146268
  71.9568125 142.5350848  51.0577105  77.1592308 145.7258358  55.6864966
  76.7054635 144.8849268  55.7430156  76.5286275 146.3619757  56.0239746
  76.1025228 136.6550344  56.9165633  75.3647985 136.1427731  57.2475876
  76.3552001 136.2150726  56.1048910  75.6025248 147.5634855  56.6214784
  75.8948222 148.1239912  55.9027149  76.1123868 147.8563416  57.3767943
  76.2036855 129.4326597  57.5107402  76.5095732 128.5723960  57.2233317
  76.9289460 130.0244217  57.3106396  62.4961211 139.8357283  55.8989000
  62.2985611 139.2426644  55.1740067  61.9407875 139.5309493  56.6164939
  70.4757935 139.7280390  58.0183593  70.5306545 138.7754226  57.9426070
  69.6649137 139.8839829  58.5024892  71.6249129 143.6560513  49.2561877
  71.1868559 142.9396372  48.7967514  72.3659570 143.8836627  48.6946968
  68.4150295 138.3457449  55.7773972  67.6018160 138.6451620  56.1839164
  68.9109289 137.9513138  56.4948454  74.0124507 138.8099274  64.6088866
  74.3673894 139.0370747  65.4683332  74.6596638 139.1417651  63.9866121
  79.7422243 141.9317710  55.3138195  79.6040142 142.1219306  54.3859384
  79.3858462 142.6937092  55.7706246  67.9064370 135.9175805  61.3935207
  68.5463749 135.7764564  60.6958170  67.0741900 135.6310318  61.0173809
  79.7691623 143.9994237  60.3249467  80.2028130 143.9069526  61.1732521
  80.4823204 143.9751737  59.6869483  68.6824674 145.2178235  57.5070200
  69.4765272 144.7228555  57.3052775  67.9716366 144.6896098  57.1437905
  73.5019518 147.5996331  61.8582567  73.5556540 148.1687267  62.6260283
  72.6334299 147.7698216  61.4936604  64.9907437 139.3621317  53.5829952
  64.0605025 139.3005772  53.7999914  65.0864909 138.8397270  52.7866594
  64.9092986 135.8876130  56.1708194  65.1699803 136.8021463  56.0617354
  65.7310158 135.4200572  56.3204807  66.3817911 137.3013887  63.3407018
  67.0540965 137.0931249  62.6919667  65.5547698 137.1035973  62.9012251
  80.6307173 144.0417937  62.8582352  80.8243063 144.9463748  63.1041627
  80.5307791 143.5825356  63.6920937  72.2843483 133.9275828  65.3572679
  71.6371398 134.6265778  65.2637156  73.0544499 134.3611972  65.7248928
  75.6922281 144.1924680  68.4323233  75.5407788 143.9635232  67.5153316
  75.6826961 145.1495282  68.4454578  72.4607618 141.7656593  63.4169499
  73.3899678 141.9167752  63.2438466  72.0398648 141.8540614  62.5618146
  71.2595950 145.7907257  61.1868037  71.1207035 145.4226042  62.0593975
  70.4710546 146.3054897  61.0151994  72.8101165 145.1688860  58.5756874
  72.4750997 145.1289630  59.4714524  72.3105110 144.5033576  58.1027285
  66.7845409 140.5756490  64.1009456  66.6465207 139.8436729  64.7020995
  67.6950332 140.4865390  63.8193643  75.7460356 142.5144894  48.8493934
  75.1289527 141.7891722  48.7526987  75.2776845 143.2754255  48.5061008
  69.4127709 140.2876449  63.5893135  70.1227328 139.6469641  63.5479754
  69.3697017 140.5389344  64.5119316  77.4014488 147.2243803  66.5099714
  77.3427034 146.5403023  65.8430298  77.8034006 147.9662793  66.0580340
  68.1256643 137.2741667  65.4088775  67.5894000 136.8232406  66.0610371
  67.5373352 137.4087576  64.6659239  67.5358902 136.7330319  47.9715238
  66.6588369 136.6119119  47.6077485  68.0116655 135.9416397  47.7194127
  77.4031895 145.1883387  64.7413694  76.5158674 144.8509308  64.8640093
  77.9730446 144.4566418  64.9782460  59.0561042 141.5207478  58.0656746
  59.7432082 141.2069208  57.4777761  58.9009171 142.4248843  57.7923997
  63.8595764 136.4097675  62.4941769  63.7753953 135.8023344  61.7592179
  63.0378471 136.9006693  62.4951266  74.0319478 134.8951238  57.8611964
  74.5288178 134.1421201  57.5413035  73.2606460 134.9315555  57.2955174
  81.8849236 140.5991604  59.5030256  81.8739112 141.4816319  59.1324189
  81.0166615 140.2463155  59.3084793  75.1149259 143.6522926  55.4350388
  74.1805538 143.7724388  55.2655092  75.2925928 142.7495392  55.1710398
  70.6154447 137.0368621  57.5883649  70.2452235 136.4839662  58.2764554
  71.1113540 136.4326755  57.0358649  78.5021810 139.4940245  55.9700422
  78.9682263 140.3268236  55.8960725  78.9529311 139.0285226  56.6745680
  76.5698042 145.8384066  52.9686574  76.8457885 145.7240661  53.8780448
  75.7002540 145.4401551  52.9298747  76.4738473 131.8620832  60.0091323
  75.5601553 132.0925059  60.1773530  76.9031575 131.9459276  60.8605356
  76.2444932 140.0510724  62.5091217  75.5916382 140.2986631  61.8543670
  76.6225312 139.2374862  62.1753694  72.2932505 140.7930535  68.9957254
  71.6173142 140.6924664  69.6659630  73.1160139 140.6369749  69.4593252
  58.6329018 139.6008072  60.3374213  58.6713118 139.0671662  61.1311331
  58.1269311 139.0743277  59.7185190  66.0119781 134.4472612  63.8336755
  66.0761107 135.3087443  63.4214153  65.9486901 133.8346614  63.1009114
  65.4872053 136.5195745  67.4809789  66.1144092 136.1372822  68.0947314
  64.6299972 136.3009947  67.8465482  75.8866162 146.9258720  69.0863525
  76.4306066 147.5388678  68.5918480  75.3053007 147.4838298  69.6030538
  62.2637596 138.3272174  53.4128144  62.5591037 137.4182852  53.3595198
  61.3625632 138.3059913  53.0909146  65.7931843 136.4028170  59.3955693
  65.0718429 137.0164138  59.2563166  66.5825099 136.9385935  59.3172339
  76.2358583 147.8488458  61.8458103  75.2888919 147.7293809  61.7736429
  76.5841356 146.9610956  61.9284364  68.5958157 133.7382597  65.6696344
  69.1192558 133.9844893  66.4322654  68.3770490 134.5702632  65.2499482
  63.9925438 136.0086271  53.5367469  63.6638144 135.1283650  53.3542575
  64.3464808 135.9533940  54.4243858  73.2405017 147.6441174  58.0462455
  73.0929979 146.7157882  58.2270025  74.0658510 147.6661265  57.5619530
  67.1067261 136.2959241  53.9042947  67.4463333 136.8245163  53.1821555
  67.5539381 136.6339647  54.6801513  76.8439138 148.4669733  59.1327328
  77.7685686 148.2612594  58.9951779  76.6754442 148.2186134  60.0416669
  69.8010702 134.6796292  63.3546015  69.4607522 133.8804105  63.7566695
  69.0949708 134.9798003  62.7822848  70.4527173 131.7645604  61.8073338
  71.2753243 131.2906083  61.6852228  70.6965237 132.5436088  62.3072024
  69.0935408 134.7933863  52.1036240  69.8143770 135.1715116  51.5999957
  68.4700712 135.5122740  52.2071218  73.2366531 135.4979012  53.0394572
  73.4530145 136.3803650  52.7383400  72.7560598 135.1065225  52.3100214
  67.9765752 138.4564725  59.6165317  67.8310333 138.7705028  60.5089598
  67.4990956 139.0749625  59.0636215  69.8362135 135.4467273  59.6646206
  69.8223704 134.5508366  59.3278504  70.5534563 135.4537937  60.2984492
  71.6888266 135.8804613  61.7099334  71.4306044 136.8021684  61.7083664
  71.1573306 135.4835048  62.3999798  76.6334455 148.9855400  54.4889419
  76.8071332 148.4201823  53.7363271  77.1263346 149.7856295  54.3068909
  62.4511414 140.9970069  62.5552978  61.9064882 141.7729877  62.6873252
  63.3290764 141.3440874  62.3972099  69.2399031 134.3281653  54.9333776
  69.3614942 133.3998300  55.1324664  68.9501073 134.3420339  54.0212092
  72.1090221 132.0136564  58.0700496  72.1311918 132.0775897  57.1152476
  72.5258280 131.1741072  58.2641002  82.4873846 141.7491823  56.1079719
  82.9304992 140.9999149  55.7098842  81.6100356 141.7401960  55.7253451
  77.6209627 148.3022165  51.5886317  78.3160532 148.9228857  51.8073632
  77.9632777 147.4517516  51.8638695  63.2377436 140.1239966  65.4483135
  62.4959172 140.2722601  66.0347765  62.9170181 140.3848231  64.5849884
  79.5201050 145.7521870  53.1173648  80.0452374 146.0909143  52.3922968
  79.4323403 144.8168886  52.9336783  68.7240111 135.8413651  69.1423709
  68.7728266 136.7175774  68.7601478  69.2662625 135.2991044  68.5695352
  79.2094956 146.3854774  68.4224846  78.4190500 146.3678913  67.8829345
  78.9728311 146.9243068  69.1773883  79.3292831 143.2347240  65.7357575
  79.3790836 143.0697248  66.6773097  79.2206755 142.3674499  65.3455455
  68.2129090 145.9135786  53.0249663  68.3617210 146.5971250  52.3716336
  69.0195533 145.8940876  53.5399119  76.6196594 139.2178168  67.0516881
  77.5206456 139.0784633  66.7600879  76.6944568 139.3832623  67.9915059
  70.9539399 136.5945023  65.8970068  70.0842708 136.8878589  65.6252656
  71.1898879 137.1785468  66.6177331  80.8311028 145.6544182  65.9799596
  80.5395836 146.0174162  66.8163057  80.2183159 144.9411190  65.8012928
  82.0306710 143.2197062  58.5002166  82.8653602 143.6586866  58.6639727
  82.1665839 142.7435715  57.6810412  79.0798216 140.7776796  64.4479654
  79.5552338 140.9704443  63.6398505  78.1563782 140.8335982  64.2023038
  65.9681723 141.9400964  54.0310732  65.7227765 141.0363294  54.2290942
  66.1377638 141.9418114  53.0890210  73.6578433 132.8124640  63.4135488
  74.1760377 133.5485667  63.0881977  73.3033566 133.1188633  64.2482247
  65.2377370 137.6729321  51.5296894  64.5446615 137.7473676  50.8736930
  64.9929122 136.9089665  52.0518411  73.9091027 129.2324923  58.9336385
  74.1892781 128.5648112  59.5596811  74.6941634 129.4254018  58.4211048
  77.7799885 137.6542557  62.6807960  78.7317308 137.7540654  62.7020184
  77.6103336 136.8620825  63.1906044  75.8014265 134.7398140  62.8667361
  75.2064197 135.0203152  62.1713849  75.5163962 135.2292041  63.6384102
  77.5609772 148.0086937  48.5873941  77.4823403 147.6746801  49.4809699
  78.3819439 148.5008705  48.5865413  80.2587963 140.8748676  61.7950259
  80.2264283 139.9364677  61.9809943  80.8688587 140.9532713  61.0616084
  72.0971294 139.7444729  47.8377463  73.0430399 139.6150937  47.9065881
  71.7185539 139.0059391  48.3146892  80.4082452 137.6659720  61.8408542
  79.8921500 136.8818176  61.6538471  81.2922400 137.3378436  62.0055062
  78.0693179 131.4100735  57.8004355  77.8718000 131.1015823  58.6847687
  78.6792884 132.1362374  57.9302285  86.0764513 141.9364683  60.9356296
  86.8067901 141.6749971  61.4963999  85.4671458 141.1993405  60.9758364
  84.1579810 140.0772546  61.5330747  83.4312974 139.9428511  60.9247239
  83.7427097 140.3849374  62.3387465  71.9809987 143.7962475  69.2978120
  72.9012996 143.9741074  69.4918167  71.9459570 142.8518521  69.1457820
  70.2814211 137.6694706  47.7732349  69.3745667 137.3727818  47.8495062
  70.5590192 137.3724524  46.9066635  61.1992152 138.9901069  58.2231395
  60.8794936 138.1366377  57.9305769  60.6525580 139.2049647  58.9789362
  64.9772059 141.7063510  61.9400901  65.1958069 142.6380618  61.9588935
  65.3897833 141.3471484  62.7255705  71.8976277 132.2131595  53.9276590
  71.0877005 131.8678680  54.3031836  72.5860694 131.9039139  54.5164201
  73.8266825 131.2909642  55.5500886  74.3797864 131.7105096  56.2090910
  74.0636912 130.3645390  55.5923843  69.8499924 137.2796716  71.3303650
  69.7496651 138.2291073  71.2615741  69.6321466 136.9514955  70.4579720
  69.0512996 134.5281641  47.9144328  69.9132160 134.8536539  48.1740145
  69.2363340 133.7413137  47.4017394  61.0680412 142.6103981  60.1924517
  60.3743883 142.1957933  59.6794471  61.8153403 142.6524517  59.5957935
  77.2045632 133.4010167  55.0579551  76.6244301 134.0594971  54.6757603
  76.9381565 132.5787512  54.6466968  75.6549199 132.8015225  57.2600871
  76.1548977 132.9131760  56.4515190  76.2984807 132.4976278  57.9001680
  69.7131194 140.7093855  70.1468712  69.2298276 141.5094215  70.3532601
  69.7992133 140.7201799  69.1936156  62.9817154 142.5422234  58.0690531
  62.9587842 142.6409922  57.1172415  63.2917791 143.3887385  58.3907698
  65.6404532 144.5998389  62.1837146  66.5947785 144.5682332  62.1167077
  65.4417056 144.1389013  62.9987372  66.2303914 143.1699505  64.7507944
  67.0496803 143.6643584  64.7742781  66.5040722 142.2531474  64.7225511
  75.9870510 135.5610258  54.1135899  75.0996365 135.8459908  53.8956094
  76.4024499 135.4004021  53.2663176  79.3385046 135.5856779  57.8290238
  80.1145437 136.0753231  58.1014855  78.6133181 136.0114833  58.2862108
  81.7757605 136.2984398  58.8864179  82.3702096 136.0580134  58.1757487
  81.8484189 135.5791528  59.5137715  75.1313724 145.3254932  48.2083919
  75.8349574 145.5304935  48.8241575  74.4076373 145.8931694  48.4733003
  75.9611534 141.0764794  54.3286189  75.9046735 141.5333345  53.4893822
  76.5139876 140.3155478  54.1509032  79.7716340 136.8654525  55.1536309
  79.5153274 136.4651161  55.9844516  79.1469208 137.5798319  55.0286448
  84.0828678 139.6050599  57.6607600  83.5228236 139.6743788  58.4339162
  83.4772181 139.4291583  56.9407096  77.0400421 145.7637462  50.2582379
  77.8746025 145.3318660  50.0759854  76.8784764 145.5919475  51.1859274
  76.6946313 142.2669575  51.6238718  76.6395117 142.1013846  50.6827162
  76.0692369 142.9745608  51.7800908  61.4838828 137.5037639  65.4500141
  62.1297692 136.9936593  65.9387366  61.2755979 138.2406321  66.0243566
  74.0092221 144.5718487  70.9492281  74.8783380 144.7459139  70.5878916
  73.5298972 145.3912904  70.8268010  70.0042439 131.7677684  51.2024037
  69.9921109 132.7119524  51.3592308  70.8965861 131.5847829  50.9083498
  73.8194558 128.3620460  55.4569974  73.0526954 127.8078947  55.6026656
  74.2305263 128.4342329  56.3184125  65.8236319 134.6505256  69.5475155
  66.6867781 134.2942061  69.7578479  65.2501730 134.3119151  70.2350559
  90.6234392 153.9433800  58.3323742  91.3559564 153.3733017  58.5661572
  89.8673748 153.5555400  58.7730248  88.1459812 147.6555374  62.7918351
  87.8143137 148.5250785  62.5679566  87.5505426 147.3391658  63.4712381
  88.0388476 152.3750460  59.8711701  87.1305353 152.3065868  59.5770462
  87.9876071 152.8522405  60.6993526  89.9050122 150.5766898  61.6489575
  89.2624502 150.8699432  61.0029370  89.4005050 150.4619819  62.4542772
  85.3461569 151.3431675  65.0051457  85.1022501 152.0973735  64.4685733
  85.6221499 151.7217022  65.8398704  84.9026260 150.4988108  60.5865295
  84.0410739 150.7969361  60.8782033  84.9288695 150.7158506  59.6546328
  78.3817820 148.0585973  70.5405126  77.9884766 147.5052172  71.2152771
  79.1983960 148.3696551  70.9311644  81.2985781 149.4743852  68.1325383
  82.0395494 150.0751005  68.0529845  81.5303704 148.7321490  67.5743425
  85.2442944 145.5024955  62.4089665  84.9007213 146.3926597  62.3328775
  85.6121907 145.3126613  61.5459250  82.7940338 150.3383267  55.9747338
  81.9381934 149.9490117  55.7952977  83.2067290 150.4175228  55.1147124
  84.3239484 147.8729610  60.3738898  83.8204280 147.8359745  59.5606703
  84.6170091 148.7822353  60.4335554  80.5682370 147.9568340  59.3805080
  81.4335367 147.7611149  59.0210969  80.6359879 147.7278692  60.3074436
  78.1744689 150.1870548  56.7521446  78.7488441 149.9645729  56.0194639
  78.7615672 150.2559242  57.5050048  80.4767357 147.0611797  55.4796516
  79.8231769 146.7460814  54.8553131  80.4347831 146.4387537  56.2056339
  86.9418982 151.9842262  56.9165633  86.2041739 151.4719648  57.2475876
  87.1945756 151.5442644  56.1048910  87.0430610 144.7618514  57.5107402
  87.3489486 143.9015878  57.2233317  87.7683214 145.3536134  57.3106396
  83.1237238 149.2567746  65.3572679  82.4765153 149.9557695  65.2637156
  83.8938253 149.6903890  65.7248928  84.8713233 150.2243156  57.8611964
  85.3681932 149.4713118  57.5413035  84.1000214 150.2607473  57.2955174
  87.3132228 147.1912750  60.0091323  86.3995307 147.4216976  60.1773530
  87.7425329 147.2751194  60.8605356  79.4351911 149.0674515  65.6696344
  79.9586313 149.3136811  66.4322654  79.2164244 149.8994549  65.2499482
  80.6404456 150.0088210  63.3546015  80.3001276 149.2096023  63.7566695
  79.9343462 150.3089921  62.7822848  81.2920928 147.0937522  61.8073338
  82.1146997 146.6198000  61.6852228  81.5358991 147.8728006  62.3072024
  84.0760285 150.8270930  53.0394572  84.2923900 151.7095567  52.7383400
  83.5954352 150.4357143  52.3100214  80.6755890 150.7759191  59.6646206
  80.6617458 149.8800284  59.3278504  81.3928318 150.7829854  60.2984492
  80.0792786 149.6573571  54.9333776  80.2008697 148.7290217  55.1324664
  79.7894828 149.6712257  54.0212092  82.9483976 147.3428481  58.0700496
  82.9705673 147.4067815  57.1152476  83.3652035 146.5032990  58.2641002
  84.4972187 148.1416558  63.4135488  85.0154131 148.8777585  63.0881977
  84.1427320 148.4480551  64.2482247  84.7484781 144.5616840  58.9336385
  85.0286535 143.8940029  59.5596811  85.5335388 144.7545936  58.4211048
  88.6193640 152.9834474  62.6807960  89.5711063 153.0832572  62.7020184
  88.4497090 152.1912743  63.1906044  86.6408019 150.0690057  62.8667361
  86.0457951 150.3495070  62.1713849  86.3557716 150.5583958  63.6384102
  91.2476206 152.9951637  61.8408542  90.7315255 152.2110094  61.6538471
  92.1316155 152.6670354  62.0055062  88.9086933 146.7392653  57.8004355
  88.7111754 146.4307741  58.6847687  89.5186639 147.4654292  57.9302285
  94.9973565 155.4064463  61.5330747  94.2706728 155.2720428  60.9247239
  94.5820851 155.7141292  62.3387465  82.7370031 147.5423513  53.9276590
  81.9270760 147.1970598  54.3031836  83.4254448 147.2331057  54.5164201
  84.6660580 146.6201560  55.5500886  85.2191618 147.0397013  56.2090910
  84.9030666 145.6937308  55.5923843  79.8906750 149.8573559  47.9144328
  80.7525914 150.1828457  48.1740145  80.0757094 149.0705054  47.4017394
  88.0439387 148.7302085  55.0579551  87.4638056 149.3886889  54.6757603
  87.7775319 147.9079430  54.6466968  86.4942953 148.1307143  57.2600871
  86.9942731 148.2423677  56.4515190  87.1378561 147.8268196  57.9001680
  86.8264265 150.8902175  54.1135899  85.9390120 151.1751826  53.8956094
  87.2418254 150.7295939  53.2663176  90.1778801 150.9148696  57.8290238
  90.9539191 151.4045149  58.1014855  89.4526935 151.3406751  58.2862108
  92.6151360 151.6276316  58.8864179  93.2095850 151.3872052  58.1757487
  92.6877943 150.9083446  59.5137715  90.6110094 152.1946443  55.1536309
  90.3547029 151.7943079  55.9844516  89.9862962 152.9090237  55.0286448
  94.9222432 154.9342516  57.6607600  94.3621990 155.0035706  58.4339162
  94.3165936 154.7583501  56.9407096  80.8436193 147.0969602  51.2024037
  80.8314863 148.0411441  51.3592308  81.7359615 146.9139747  50.9083498
  84.6588313 143.6912378  55.4569974  83.8920709 143.1370865  55.6026656
  85.0699018 143.7634247  56.3184125   9.7928416  25.9825812  47.0782862
  10.4306826  25.8632559  46.3746203   9.6749259  26.9306655  47.1370815
   6.6018122  25.9353240  47.0144387   6.2636634  25.8194304  46.1264922
   7.4707891  25.5344405  46.9945393   2.4604938  27.7888716  43.0041278
   1.8969803  27.6978653  42.2357566   2.3457333  26.9688620  43.4843771
   7.0837905  27.0888091  52.9730593   7.0726546  26.6940890  52.1011096
   7.2458545  26.3554164  53.5664364   8.0404497  31.4559684  38.3155743
   7.3892477  32.0413764  37.9289757   8.8348860  31.9865879  38.3750780
   1.9660124  28.5448821  38.7142877   2.7391000  27.9977808  38.5755753
   2.3185523  29.4093070  38.9257339   3.8045166  29.8725203  51.9209777
   3.5135032  30.7770834  51.8056443   4.4402151  29.9141731  52.6353846
   4.7301373  27.2502052  48.5111136   5.3264946  27.0258074  47.7968099
   4.7876345  26.5086797  49.1136584   9.3469685  23.7077265  44.1536070
  10.1332774  23.2896689  43.8026487   9.6108389  24.6123358  44.3217719
   9.5179762  29.1450116  38.8524727   8.8825595  29.2184742  39.5645632
   9.1877168  29.7343715  38.1743807  14.7478112  23.6452499  45.0569049
  15.4803284  23.0751715  45.2906878  13.9917467  23.2574099  45.4975555
   6.3654231  26.0679740  42.2532391   6.0012439  25.5410361  42.9645313
   7.2221347  25.6778209  42.0798877  12.2703532  17.3574073  49.5163658
  11.9386857  18.2269484  49.2924873  11.6749145  17.0410357  50.1957688
   8.7635052  29.5586619  48.9159570   8.4635775  30.4611657  48.8075378
   8.4186111  29.2918802  49.7680723   2.2147533  26.0100416  44.9496275
   1.2898030  25.8776630  45.1573967   2.4631946  26.7894635  45.4466217
  12.1632195  22.0769159  46.5957008  11.2549073  22.0084567  46.3015769
  12.1119791  22.5541104  47.4238833   3.7455831  36.3230939  41.8830538
   3.6679861  37.2738764  41.9619019   3.1417475  35.9776812  42.5405464
   6.2373061  23.4958804  54.5391905   5.4606395  24.0552725  54.5294770
   6.8763624  23.9815587  55.0606775  14.0293842  20.2785597  48.3734882
  13.3868222  20.5718130  47.7274676  13.5248770  20.1638518  49.1788078
  11.6834005  24.0248770  39.0620741  12.5951862  24.2576157  38.8868438
  11.1743652  24.6085815  38.4995819   4.4919433  26.3044258  54.1009872
   5.2334118  26.8429302  53.8244696   3.7856419  26.9310547  54.2581424
   9.9674773  28.4473398  52.6982033  10.3758129  28.0055809  51.9536666
   9.2452035  27.8726026  52.9516226   6.3205843  23.3846005  50.0715590
   7.1667038  23.8085419  50.2150239   6.2604481  22.7279629  50.7654153
  10.2903588  29.0074589  46.4534322   9.6612450  29.1720303  45.7510390
   9.9029250  29.4216198  47.2245286  14.1692820  29.9429027  43.8078686
  13.4843858  30.3227928  43.2575719  14.2536669  30.5524353  44.5410634
   9.4705288  21.0450373  51.7296764   9.2266220  21.7992434  51.1931040
   9.7465219  21.4235721  52.5644011  11.4243751  27.5888986  50.4074030
  11.6360646  28.2320746  49.7308411  11.3773499  26.7551302  49.9395960
   9.0269980  20.2006806  47.3110602   8.1654459  20.4988060  47.6027339
   9.0532415  20.4177205  46.3791634   5.8431550  28.7448997  43.7184407
   6.3069895  29.0236700  42.9289030   5.5788348  27.8432442  43.5357498
   2.7355631  28.2920479  46.6564171   3.3056988  28.7207747  46.0181655
   3.3263743  28.0103063  47.3548356   4.7800436  24.8672149  40.5273973
   5.4824479  25.3193193  40.9947899   4.4481064  24.2255968  41.1553866
   3.2280797  23.4583906  54.9025182   2.5979458  24.1400187  55.1360579
   3.1216885  23.3466988  53.9578320  12.5389579  30.4660941  48.5796387
  13.3607023  30.0641128  48.2979069  12.5351982  30.3629175  49.5312503
   6.3046183  30.0144984  50.7357097   6.3690615  30.4765392  51.5715269
   5.5957107  29.3842349  50.8639407  20.6295572  26.8099690  44.9281358
  19.8759281  26.2407088  44.7725363  20.7643113  26.7762354  45.8751993
   6.0194200  31.6813092  40.6036078   5.8839875  32.5264628  41.0320926
   6.5604013  31.8832370  39.8402012   1.2818482  32.3154286  43.2586756
   1.4585111  33.2372251  43.0707740   2.0775316  32.0012705  43.6881136
   5.4229501  19.1762551  54.8570690   6.1639214  19.7769704  54.7775152
   5.6547424  18.4340189  54.2988732   7.6462677  32.3036658  54.7336420
   7.2026531  31.5173037  54.4157324   8.3079890  32.4915809  54.0680311
   2.4049798  33.8332460  49.2597098   2.9557223  33.7049523  48.4874092
   1.5661274  34.1327349  48.9091991   9.7443915  32.5839458  52.7617821
   9.7262390  33.4048339  52.2698090  10.6663835  32.4593534  52.9867962
   6.2016969  30.0983588  53.6041329   6.7345306  29.3371876  53.3740637
   5.6731050  29.8057240  54.3465484   9.3686664  15.2043654  49.1334971
   9.0250933  16.0945296  49.0574082   9.7365626  15.0145311  48.2704556
   9.3336947  25.1952265  37.6407406   8.8183570  25.9656870  37.8795794
   9.0614255  24.5217401  38.2640468   6.9184058  20.0401966  42.6992645
   6.0625654  19.6508816  42.5198283   7.3311009  20.1193927  41.8392430
   8.4483204  17.5748309  47.0984204   7.9448000  17.5378444  46.2852010
   8.7413811  18.4841052  47.1580861  14.3071221  27.9484620  39.5760580
  13.5300663  27.6095779  39.1315742  14.9862702  27.9537243  38.9015545
   9.1223250  23.0679357  39.4667187   8.8173385  23.3825506  40.3177331
  10.0753692  23.1460777  39.5094520   7.5669682  29.2269580  41.1160141
   7.0391043  28.4922340  40.8033379   7.0657184  30.0044257  40.8700110
  12.5462528  27.4218601  46.2327188  11.8886202  28.1117862  46.3207316
  13.3502927  27.8115033  46.5761174  11.3567986  25.7762974  44.2831130
  11.8699868  26.4092965  44.7852839  12.0069210  25.1764169  43.9174490
   8.6190361  35.7547298  37.0391801   7.9452059  36.0578995  37.6476758
   9.0056183  36.5576378  36.6897258   7.8348817  23.2512429  46.5289470
   6.9171379  23.4727376  46.3711158   8.2508961  23.3258740  45.6701177
   8.6183865  24.6503845  41.6592150   9.3655684  25.1625242  41.3499272
   8.8875455  24.3287898  42.5196544   6.8910515  27.1462386  38.6419105
   5.9821734  26.8621418  38.7391574   6.9205599  27.5661464  37.7822411
  12.1229783  30.7568975  42.4110272  11.6692110  29.9159885  42.4675463
  11.4923749  31.3930373  42.7485052  11.0662702  21.6860961  43.6410940
  10.3285459  21.1738347  43.9721182  11.3189476  21.2461343  42.8294216
  10.5662722  32.5945472  43.3460090  10.8585696  33.1550529  42.6272456
  11.0761342  32.8874033  44.1013249  11.1674329  14.4637213  44.2352709
  11.4733206  13.6034576  43.9478624  11.8926934  15.0554833  44.0351703
   5.4395409  24.7591006  44.7428900   5.4944019  23.8064843  44.6671377
   4.6286611  24.9150445  45.2270198   3.3787769  23.3768066  42.5019279
   2.5655635  23.6762236  42.9084471   3.8746763  22.9823755  43.2193761
   5.5296347  33.3725823  44.4353544   5.4872526  33.5986669  43.5062076
   6.4459046  33.1389197  44.5839345   8.9761981  23.8409890  51.3334173
   9.3311369  24.0681363  52.1928638   9.6234112  24.1728267  50.7111428
  14.7059718  26.9628326  42.0383502  14.5677616  27.1529922  41.1104691
  14.3495937  27.7247709  42.4951553   2.8701844  20.9486421  48.1180514
   3.5101223  20.8075180  47.4203477   2.0379374  20.6620935  47.7419116
  14.7329097  29.0304853  47.0494773  15.1665604  28.9380142  47.8977827
  15.4460678  29.0062354  46.4114789   3.6462148  30.2488852  44.2315506
   4.4402746  29.7539172  44.0298081   2.9353840  29.7206715  43.8683212
   8.4656992  32.6306947  48.5827874   8.5194015  33.1997884  49.3505590
   7.5971774  32.8008832  48.2181911   1.3455386  22.3324504  50.0652325
   2.0178439  22.1241866  49.4164974   0.5185172  22.1346590  49.6257557
  15.5944647  29.0728554  49.5827659  15.7880537  29.9774364  49.8286934
  15.4945265  28.6135973  50.4166244   7.2480958  18.9586444  52.0817986
   6.6008873  19.6576394  51.9882462   8.0181973  19.3922588  52.4494234
  10.6559756  29.2235297  55.1568539  10.5045262  28.9945848  54.2398623
  10.6464435  30.1805898  55.1699884   7.4245092  26.7967209  50.1414806
   8.3537152  26.9478369  49.9683773   7.0036122  26.8851230  49.2863452
   6.2233424  30.8217874  47.9113343   6.0844510  30.4536658  48.7839281
   5.4348020  31.3365513  47.7397301   6.8181576  35.9226970  39.2538880
   6.9933331  35.4515013  40.0684503   6.1314364  36.5492736  39.4820141
   7.7738639  30.1999476  45.3002181   7.4388472  30.1600246  46.1959831
   7.2742585  29.5344192  44.8272591   1.7482883  25.6067107  50.8254762
   1.6102681  24.8747345  51.4266301   2.6587806  25.5176007  50.5438950
   4.3765184  25.3187066  50.3138442   5.0864802  24.6780258  50.2725060
   4.3334492  25.5699961  51.2364623  12.3651962  32.2554419  53.2345021
  12.3064508  31.5713639  52.5675604  12.7671481  32.9973409  52.7825647
   3.0894118  22.3052284  52.1334081   2.5531475  21.8543022  52.7855678
   2.5010826  22.4398193  51.3904546   1.3842661  39.0716333  46.0278740
   1.6239259  39.7034857  46.7057759   0.5411858  38.7204373  46.3144099
  12.3669370  30.2194003  51.4659001  11.4796148  29.8819925  51.5885400
  12.9367921  29.4877034  51.7027766   5.8970523  34.8795455  48.4320244
   5.8240694  35.6850427  48.9439549   5.4547916  35.0787421  47.6068265
   5.6860303  34.1167225  41.9423066   4.9027824  34.6588906  42.0361290
   6.3853048  34.6341205  42.3417307   8.9956953  19.9261855  44.5857271
   9.4925652  19.1731817  44.2658341   8.2243934  19.9626172  44.0200480
  16.8486710  25.6302220  46.2275562  16.8376586  26.5126936  45.8569496
  15.9804090  25.2773771  46.0330100   8.3569206  34.7782289  50.5878403
   9.0697179  35.4129754  50.5154304   7.8659235  34.8746155  49.7718405
  10.0786733  28.6833542  42.1595694   9.1443012  28.8035005  41.9900399
  10.2563402  27.7806009  41.8955704   5.5791921  22.0679238  44.3128956
   5.2089709  21.5150278  45.0009861   6.0751014  21.4637371  43.7603956
  13.4659285  24.5250861  42.6945728  13.9319737  25.3578853  42.6206031
  13.9166785  24.0595843  43.3990987   3.4081120  32.5276733  51.4083973
   4.1090579  33.1613216  51.5613368   2.9376235  32.8691464  50.6479613
  11.5335516  30.8694683  39.6931881  11.8095360  30.7551277  40.6025755
  10.6640015  30.4712168  39.6544054  11.4375947  16.8931448  46.7336630
  10.5239027  17.1235675  46.9018837  11.8669049  16.9769893  47.5850662
  11.2082406  25.0821340  49.2336524  10.5553856  25.3297248  48.5788977
  11.5862786  24.2685479  48.8999001   8.1689580  35.1181034  43.3364694
   8.3511974  34.3002690  43.7992446   8.9922566  35.3348726  42.8989584
   8.5031745  34.0449219  40.5979743   9.0319512  33.5341673  39.9849905
   8.7659965  33.7291749  41.4625276   7.2569979  25.8241151  55.7202561
   6.5810616  25.7235281  56.3904936   8.0797613  25.6680365  56.1838558
   1.8587493  35.0964335  43.3577519   1.1897869  35.5810463  42.8741559
   1.7200363  35.3433556  44.2720897   5.9992762  37.1308079  49.9560177
   6.5511070  37.2939700  50.7209262   6.3398955  37.7212517  49.2840202
  10.8503636  31.9569336  55.8108831  11.3943540  32.5699295  55.3163786
  10.2690481  32.5148915  56.3275844   9.1361149  35.0790054  46.9423859
   9.0112289  34.2779794  46.4334805   9.7940240  35.5736248  46.4537829
  11.1996058  32.8799075  48.5703409  10.2526393  32.7604426  48.4981736
  11.5478831  31.9921573  48.6529671   8.2042491  32.6751791  44.7707761
   8.0567453  31.7468498  44.9515331   9.0295984  32.6971881  44.2864837
  11.8076613  33.4980349  45.8572634  12.7323160  33.2923211  45.7197085
  11.6391916  33.2496751  46.7661976   4.7648176  19.7106909  50.0791322
   4.4244996  18.9114722  50.4812001   4.0587182  20.0108619  49.5068155
   2.9403227  23.4875342  46.3410623   2.7947807  23.8015645  47.2334905
   2.4628430  24.1060242  45.7881522   4.7999609  20.4777890  46.3891513
   4.7861178  19.5818983  46.0523811   5.5172038  20.4848553  47.0229799
   6.6525740  20.9115230  48.4344640   6.3943518  21.8332300  48.4328971
   6.1210780  20.5145664  49.1245104  11.5971929  34.0166017  41.2134726
  11.7708806  33.4512439  40.4608578  12.0900820  34.8166912  41.0314216
  17.4511320  26.7802440  42.8325025  17.8942466  26.0309765  42.4344149
  16.5737830  26.7712576  42.4498757  12.5847101  33.3332781  38.3131624
  13.2798006  33.9539474  38.5318939  12.9270252  32.4828133  38.5884002
  14.4838524  30.7832487  39.8418955  15.0089849  31.1219760  39.1168275
  14.3960877  29.8479502  39.6582089   6.1458573  34.6966560  51.9708831
   6.4545700  34.4515707  52.8431531   6.9434055  34.9013199  51.4827702
   6.1679185  36.8504470  44.2014208   5.7284176  36.3580849  44.8947065
   6.9187302  36.3077438  43.9606283   3.6153057  32.3942479  46.2736510
   2.9933067  31.7313184  45.9738737   4.2857924  32.4203611  45.5910157
   3.6877585  20.8724267  55.8669016   3.7365740  21.7486390  55.4846785
   4.2300099  20.3301660  55.2940659  14.1732431  31.4165390  55.1470153
  13.3827974  31.3989529  54.6074652  13.9365785  31.9553684  55.9019189
  14.2930306  28.2657857  52.4602881  14.3428311  28.1007864  53.4018404
  14.1844229  27.3985116  52.0700762   3.1766564  30.9446403  39.7494970
   3.3254685  31.6281867  39.0961643   3.9833008  30.9251493  40.2644426
  11.5834068  24.2488785  53.7762188  12.4843931  24.1095250  53.4846186
  11.6582043  24.4143240  54.7160365   5.9176873  21.6255640  52.6215374
   5.0480183  21.9189206  52.3497963   6.1536354  22.2096085  53.3422638
  15.7948502  30.6854798  52.7044903  15.5033311  31.0484779  53.5408364
  15.1820634  29.9721807  52.5258235  16.9944185  28.2507678  45.2247473
  17.8291076  28.6897482  45.3885033  17.1303314  27.7746331  44.4055719
  14.0435691  25.8087413  51.1724961  14.5189812  26.0015059  50.3643812
  13.1201256  25.8646599  50.9268344   0.9319197  26.9711580  40.7556039
   0.6865239  26.0673910  40.9536249   1.1015112  26.9728731  39.8135517
   8.6215907  17.8435257  50.1380795   9.1397851  18.5796283  49.8127283
   8.2671040  18.1499250  50.9727554   6.6761970  33.4394533  37.2206717
   6.1035937  34.0584720  36.7677189   7.2494763  33.9893895  37.7546639
  12.7437360  22.6853173  49.4053266  13.6954783  22.7851271  49.4265490
  12.5740810  21.8931442  49.9151351  10.7651739  19.7708756  49.5912667
  10.1701671  20.0513769  48.8959156  10.4801436  20.2602657  50.3629408
   9.8959230  33.7231683  38.3515300  10.8289903  33.6577245  38.5548175
   9.8082442  34.5587950  37.8929832  12.5247246  33.0397553  35.3119247
  12.4460878  32.7057417  36.2055005  13.3456913  33.5319321  35.3110720
  15.2225437  25.9059293  48.5195566  15.1901758  24.9675294  48.7055250
  15.8326061  25.9843330  47.7861391  15.3719926  22.6970336  48.5653849
  14.8558975  21.9128793  48.3783778  16.2559874  22.3689053  48.7300369
  13.0330653  16.4411352  44.5249662  12.8355474  16.1326440  45.4092994
  13.6430358  17.1672991  44.6547592  21.0401987  26.9675300  47.6601603
  21.7705376  26.7060588  48.2209306  20.4308933  26.2304022  47.7003671
  19.1217284  25.1083162  48.2576054  18.3950448  24.9739127  47.6492546
  18.7064571  25.4159991  49.0632772   6.9447461  28.8273092  56.0223427
   7.8650470  29.0051691  56.2163473   6.9097044  27.8829137  55.8703126
   4.8137399  22.3107332  58.0548957   4.7134126  23.2601689  57.9861048
   4.5958941  21.9825571  57.1825027  12.1683107  18.4320784  41.7824857
  11.5881776  19.0905588  41.4002910  11.9019039  17.6098128  41.3712275
  10.6186673  17.8325842  43.9846178  11.1186451  17.9442376  43.1760497
  11.2622281  17.5286894  44.6246986   4.6768669  25.7404471  56.8714019
   4.1935750  26.5404831  57.0777908   4.7629608  25.7512416  55.9181463
   0.6042006  29.6309006  48.9082452   1.5585260  29.5992948  48.8412384
   0.4054530  29.1699630  49.7232678   1.1941388  28.2010122  51.4753250
   2.0134277  28.6954201  51.4988087   1.4678196  27.2842090  51.4470818
  10.9507985  20.5920874  40.8381206  10.0633840  20.8770525  40.6201400
  11.3661974  20.4314638  39.9908483  14.3022521  20.6167395  44.5535545
  15.0782911  21.1063848  44.8260162  13.5770655  21.0425449  45.0107414
  16.7395079  21.3295014  45.6109486  17.3339570  21.0890750  44.9002794
  16.8121663  20.6102145  46.2383022  10.0951198  30.3565549  34.9329226
  10.7987048  30.5615551  35.5486881   9.3713847  30.9242311  35.1978309
  10.9249008  26.1075410  41.0531496  10.8684210  26.5643962  40.2139128
  11.4777351  25.3466095  40.8754339  14.7353814  21.8965142  41.8781615
  14.4790748  21.4961778  42.7089823  14.1106682  22.6108936  41.7531754
  19.0466152  24.6361215  44.3852907  18.4865710  24.7054405  45.1584469
  18.4409655  24.4602200  43.6652403   2.1161361  36.0697942  46.1371093
   1.9993745  37.0143375  46.0349783   1.2953807  35.7671504  46.5256892
  12.0037895  30.7948078  36.9827686  12.8383499  30.3629277  36.8005160
  11.8422238  30.6230092  37.9104580  11.6583788  27.2980191  38.3484025
  11.6032591  27.1324463  37.4072469  11.0329843  28.0056224  38.5046215
   8.9729695  29.6029103  57.6737588   9.8420854  29.7769756  57.3124223
   8.4936446  30.4223520  57.5513317   3.1415875  36.7226204  49.3527021
   4.0443122  36.7549815  49.6693516   2.9153245  35.7926655  49.3673357
   4.8969477  35.4757191  46.0137100   3.9465108  35.4759052  45.9001472
   5.2001963  34.7289925  45.4973135  20.6322171  41.3117729  47.0782862
  21.2700581  41.1924477  46.3746203  20.5143013  42.2598573  47.1370815
  17.4411877  41.2645157  47.0144387  17.1030388  41.1486222  46.1264922
  18.3101645  40.8636322  46.9945393  13.2998693  43.1180634  43.0041278
  12.7363558  43.0270571  42.2357566  13.1851088  42.2980538  43.4843771
  17.9231660  42.4180009  52.9730593  17.9120301  42.0232807  52.1011096
  18.0852299  41.6846082  53.5664364  10.8463124  44.6131825  45.8425499
  11.6384416  44.2722650  45.4271798  11.0859775  44.7226800  46.7627652
  18.8798251  46.7851601  38.3155743  18.2286231  47.3705682  37.9289757
  19.6742614  47.3157796  38.3750780  12.8053878  43.8740739  38.7142877
  13.5784754  43.3269726  38.5755753  13.1579277  44.7384988  38.9257339
  14.6438921  45.2017121  51.9209777  14.3528787  46.1062752  51.8056443
  15.2795905  45.2433648  52.6353846  15.5695128  42.5793969  48.5111136
  16.1658700  42.3549992  47.7968099  15.6270099  41.8378715  49.1136584
  15.1420156  40.0333405  36.3461327  15.3945677  39.5114926  35.5844790
  14.2044715  39.8699550  36.4488011  20.1863439  39.0369183  44.1536070
  20.9726528  38.6188606  43.8026487  20.4502143  39.9415275  44.3217719
  20.3573516  44.4742033  38.8524727  19.7219349  44.5476660  39.5645632
  20.0270923  45.0635632  38.1743807  25.5871866  38.9744416  45.0569049
  26.3197038  38.4043633  45.2906878  24.8311222  38.5866017  45.4975555
  14.8616445  41.9361511  38.5485702  14.7452703  41.2606414  39.2166787
  14.9718705  41.4493885  37.7317855  17.2047986  41.3971658  42.2532391
  16.8406193  40.8702279  42.9645313  18.0615102  41.0070127  42.0798877
  23.1097287  32.6865990  49.5163658  22.7780611  33.5561401  49.2924873
  22.5142900  32.3702274  50.1957688  16.8453473  36.4261557  37.2493740
  17.0127875  37.2941794  37.6164211  16.6550642  36.5888839  36.3255029
  19.6028806  44.8878536  48.9159570  19.3029529  45.7903575  48.8075378
  19.2579866  44.6210720  49.7680723  13.0541288  41.3392333  44.9496275
  12.1291784  41.2068547  45.1573967  13.3025701  42.1186552  45.4466217
  23.0025950  37.4061077  46.5957008  22.0942827  37.3376485  46.3015769
  22.9513546  37.8833021  47.4238833  16.8242694  38.8819215  38.2340407
  16.7042319  39.3276266  39.0725887  16.1295282  39.2304533  37.6753945
  10.4150099  40.9825607  45.7840064  10.5442480  41.2360086  46.6979476
   9.7347550  41.5753315  45.4644719  14.5849586  51.6522857  41.8830538
  14.5073616  52.6030682  41.9619019  13.9811229  51.3068729  42.5405464
  17.0766816  38.8250722  54.5391905  16.3000150  39.3844642  54.5294770
  17.7157379  39.3107505  55.0606775  24.8687596  35.6077515  48.3734882
  24.2261976  35.9010048  47.7274676  24.3642525  35.4930435  49.1788078
  22.5227760  39.3540688  39.0620741  23.4345616  39.5868075  38.8868438
  22.0137407  39.9377732  38.4995819  15.3313188  41.6336175  54.1009872
  16.0727872  42.1721219  53.8244696  14.6250173  42.2602464  54.2581424
  20.8068528  43.7765316  52.6982033  21.2151884  43.3347726  51.9536666
  20.0845789  43.2017943  52.9516226  17.1599598  38.7137923  50.0715590
  18.0060793  39.1377336  50.2150239  17.0998235  38.0571547  50.7654153
  21.1297342  44.3366507  46.4534322  20.5006205  44.5012221  45.7510390
  20.7423004  44.7508116  47.2245286  25.0086574  45.2720944  43.8078686
  24.3237612  45.6519846  43.2575719  25.0930423  45.8816271  44.5410634
  20.3099043  36.3742291  51.7296764  20.0659975  37.1284352  51.1931040
  20.5858973  36.7527639  52.5644011  22.2637506  42.9180903  50.4074030
  22.4754401  43.5612663  49.7308411  22.2167254  42.0843220  49.9395960
  19.8663735  35.5298724  47.3110602  19.0048214  35.8279978  47.6027339
  19.8926169  35.7469123  46.3791634  16.6825304  44.0740915  43.7184407
  17.1463650  44.3528618  42.9289030  16.4182102  43.1724359  43.5357498
  13.5749385  43.6212396  46.6564171  14.1450742  44.0499665  46.0181655
  14.1657497  43.3394981  47.3548356  15.6194190  40.1964067  40.5273973
  16.3218233  40.6485111  40.9947899  15.2874819  39.5547886  41.1553866
  14.0674552  38.7875824  54.9025182  13.4373212  39.4692105  55.1360579
  13.9610640  38.6758905  53.9578320   9.3619524  38.4547620  45.8291106
   8.5718578  38.7105148  45.3531217   9.8530771  39.2695958  45.9343147
  23.3783334  45.7952859  48.5796387  24.2000777  45.3933046  48.2979069
  23.3745737  45.6921093  49.5312503  11.3134269  38.8192199  42.7874583
  10.5165433  38.9310893  43.3058078  11.0859862  39.1578851  41.9215473
  17.1439937  45.3436902  50.7357097  17.2084370  45.8057309  51.5715269
  16.4350861  44.7134267  50.8639407   7.6457227  38.7078110  48.2606097
   7.8965266  39.5925120  48.5263673   8.1816775  38.5282712  47.4881189
  31.4689327  42.1391607  44.9281358  30.7153035  41.5699005  44.7725363
  31.6036868  42.1054272  45.8751993  16.8587955  47.0105010  40.6036078
  16.7233630  47.8556545  41.0320926  17.3997767  47.2124287  39.8402012
  13.3455294  33.0896589  57.2650433  12.9522240  32.5362788  57.9398077
  14.1621435  33.4007168  57.6556950  10.3117352  44.5280448  41.1764003
  10.8241873  45.3223698  41.3269568  10.9640065  43.8306738  41.1097604
  12.1212237  47.6446204  43.2586756  12.2978865  48.5664169  43.0707740
  12.9169070  47.3304623  43.6881136  16.2623255  34.5054469  54.8570690
  17.0032969  35.1061622  54.7775152  16.4941178  33.7632106  54.2988732
  11.4064593  39.6910836  53.1348919  11.2918109  38.7896093  53.4356018
  10.5509111  39.9374533  52.7833736  18.4856431  47.6328576  54.7336420
  18.0420285  46.8464955  54.4157324  19.1473645  47.8207727  54.0680311
  13.2443552  49.1624378  49.2597098  13.7950977  49.0341441  48.4874092
  12.4055028  49.4619267  48.9091991  20.5837669  47.9131376  52.7617821
  20.5656145  48.7340257  52.2698090  21.5057589  47.7885451  52.9867962
  17.0410723  45.4275506  53.6041329  17.5739060  44.6663794  53.3740637
  16.5124804  45.1349157  54.3465484  20.2080418  30.5335572  49.1334971
  19.8644688  31.4237213  49.0574082  20.5759381  30.3437229  48.2704556
   8.2766269  42.8569102  41.9523573   9.1141491  43.2666110  41.7357281
   8.4544537  41.9168544  41.9223767  20.1730701  40.5244183  37.6407406
  19.6577324  41.2948787  37.8795794  19.9008010  39.8509319  38.2640468
  17.7577812  35.3693883  42.6992645  16.9019408  34.9800734  42.5198283
  18.1704764  35.4485844  41.8392430  19.2876959  32.9040227  47.0984204
  18.7841754  32.8670362  46.2852010  19.5807566  33.8132969  47.1580861
  15.5319845  32.9878956  46.1050386  16.3972841  32.7921765  45.7456276
  15.5997354  32.7589308  47.0319743  25.1464975  43.2776537  39.5760580
  24.3694418  42.9387697  39.1315742  25.8256456  43.2829160  38.9015545
  19.9617004  38.3971275  39.4667187  19.6567140  38.7117424  40.3177331
  20.9147446  38.4752695  39.5094520  18.4063436  44.5561498  41.1160141
  17.8784798  43.8214258  40.8033379  17.9050939  45.3336174  40.8700110
  23.3856282  42.7510519  46.2327188  22.7279957  43.4409780  46.3207316
  24.1896681  43.1406950  46.5761174  13.1382164  35.2181164  43.4766753
  13.7125916  34.9956346  42.7439946  13.7253146  35.2869859  44.2295354
  22.1961741  41.1054891  44.2831130  22.7093623  41.7384883  44.7852839
  22.8462965  40.5056087  43.9174490  13.4651751  37.2485625  37.4962638
  12.6289063  37.5860312  37.8171913  13.3256520  37.1134605  36.5589775
  15.4404831  32.0922413  42.2041822  14.7869244  31.7771430  41.5798437
  15.3985306  31.4698154  42.9301645  16.5516036  42.3741708  34.1195115
  15.6443098  42.1430962  34.3186263  17.0487068  41.5779328  34.3069096
  19.4584115  51.0839216  37.0391801  18.7845814  51.3870912  37.6476758
  19.8449937  51.8868296  36.6897258  18.6742572  38.5804347  46.5289470
  17.7565133  38.8019294  46.3711158  19.0902715  38.6550657  45.6701177
  19.4577620  39.9795762  41.6592150  20.2049438  40.4917160  41.3499272
  19.7269209  39.6579815  42.5196544  17.7304270  42.4754303  38.6419105
  16.8215489  42.1913336  38.7391574  17.7599354  42.8953382  37.7822411
  22.9623537  46.0860893  42.4110272  22.5085864  45.2451803  42.4675463
  22.3317504  46.7222291  42.7485052  21.9056457  37.0152879  43.6410940
  21.1679213  36.5030265  43.9721182  22.1583230  36.5753260  42.8294216
  21.4056476  47.9237389  43.3460090  21.6979451  48.4842446  42.6272456
  21.9155097  48.2165950  44.1013249  22.0068084  29.7929131  44.2352709
  22.3126961  28.9326494  43.9478624  22.7320689  30.3846751  44.0351703
   8.2992440  40.1959817  42.6234307   8.1016840  39.6029178  41.8985373
   7.7439104  39.8912027  43.3410246  16.2789164  40.0882924  44.7428900
  16.3337774  39.1356760  44.6671377  15.4680366  40.2442363  45.2270198
  17.4280357  44.0163047  35.9807183  16.9899787  43.2998906  35.5212821
  18.1690798  44.2439162  35.4192275  14.2181524  38.7059984  42.5019279
  13.4049389  39.0054154  42.9084471  14.7140518  38.3115672  43.2193761
  16.3690102  48.7017740  44.4353544  16.3266280  48.9278587  43.5062076
  17.2852800  48.4681115  44.5839345  19.8155735  39.1701808  51.3334173
  20.1705123  39.3973281  52.1928638  20.4627867  39.5020185  50.7111428
  25.5453472  42.2920244  42.0383502  25.4071371  42.4821840  41.1104691
  25.1889691  43.0539627  42.4951553  13.7095598  36.2778339  48.1180514
  14.3494978  36.1367098  47.4203477  12.8773129  35.9912852  47.7419116
  25.5722852  44.3596771  47.0494773  26.0059359  44.2672060  47.8977827
  26.2854433  44.3354271  46.4114789  14.4855902  45.5780769  44.2315506
  15.2796501  45.0831090  44.0298081  13.7747595  45.0498633  43.8683212
  19.3050747  47.9598865  48.5827874  19.3587769  48.5289801  49.3505590
  18.4365528  48.1300750  48.2181911  10.7938666  39.7223851  40.3075259
   9.8636254  39.6608307  40.5245221  10.8896138  39.1999804  39.5111900
  10.7124215  36.2478664  42.8953501  10.9731032  37.1623997  42.7862661
  11.5341387  35.7803107  43.0450113  12.1849140  37.6616421  50.0652325
  12.8572194  37.4533783  49.4164974  11.3578927  37.4638507  49.6257557
  26.4338401  44.4020472  49.5827659  26.6274292  45.3066282  49.8286934
  26.3339020  43.9427891  50.4166244  18.0874712  34.2878362  52.0817986
  17.4402627  34.9868312  51.9882462  18.8575728  34.7214506  52.4494234
  21.4953510  44.5527214  55.1568539  21.3439017  44.3237766  54.2398623
  21.4858190  45.5097816  55.1699884  18.2638847  42.1259127  50.1414806
  19.1930907  42.2770287  49.9683773  17.8429877  42.2143148  49.2863452
  17.0627178  46.1509791  47.9113343  16.9238264  45.7828576  48.7839281
  16.2741775  46.6657431  47.7397301  17.6575330  51.2518888  39.2538880
  17.8327086  50.7806931  40.0684503  16.9708118  51.8784654  39.4820141
  18.6132393  45.5291394  45.3002181  18.2782226  45.4892164  46.1959831
  18.1136339  44.8636110  44.8272591  12.5876637  40.9359024  50.8254762
  12.4496435  40.2039263  51.4266301  13.4981561  40.8467924  50.5438950
  21.5491585  42.8747428  35.5739241  20.9320756  42.1494257  35.4772293
  21.0808074  43.6356789  35.2306315  15.2158938  40.6478984  50.3138442
  15.9258557  40.0072176  50.2725060  15.1728246  40.8991878  51.2364623
  23.2045717  47.5846337  53.2345021  23.1458263  46.9005557  52.5675604
  23.6065235  48.3265327  52.7825647  13.9287872  37.6344201  52.1334081
  13.3925229  37.1834940  52.7855678  13.3404581  37.7690110  51.3904546
  12.2236416  54.4008251  46.0278740  12.4633014  55.0326775  46.7057759
  11.3805612  54.0496291  46.3144099  13.3390131  37.0932853  34.6960545
  12.4619597  36.9721654  34.3322792  13.8147884  36.3018931  34.4439434
  23.2063124  45.5485921  51.4659001  22.3189903  45.2111843  51.5885400
  23.7761675  44.8168952  51.7027766   4.8592271  41.8810013  44.7902052
   5.5463311  41.5671743  44.2023068   4.7040400  42.7851377  44.5169304
   9.6626993  36.7700209  49.2187076   9.5785182  36.1625879  48.4837486
   8.8409700  37.2609227  49.2196572  16.7364277  50.2087373  48.4320244
  16.6634449  51.0142345  48.9439549  16.2941671  50.4079339  47.6068265
  16.5254057  49.4459143  41.9423066  15.7421579  49.9880823  42.0361290
  17.2246802  49.9633123  42.3417307  19.8350707  35.2553773  44.5857271
  20.3319407  34.5023735  44.2658341  19.0637689  35.2918089  44.0200480
  27.6880465  40.9594138  46.2275562  27.6770341  41.8418854  45.8569496
  26.8197844  40.6065689  46.0330100  19.1962961  50.1074207  50.5878403
  19.9090933  50.7421672  50.5154304  18.7052990  50.2038073  49.7718405
  20.9180488  44.0125460  42.1595694  19.9836767  44.1326922  41.9900399
  21.0957156  43.1097927  41.8955704  16.4185676  37.3971156  44.3128956
  16.0483463  36.8442196  45.0009861  16.9144768  36.7929289  43.7603956
  24.3053039  39.8542779  42.6945728  24.7713491  40.6870771  42.6206031
  24.7560540  39.3887761  43.3990987  14.2474874  47.8568651  51.4083973
  14.9484334  48.4905134  51.5613368  13.7769989  48.1983382  50.6479613
  22.3729270  46.1986600  39.6931881  22.6489114  46.0843195  40.6025755
  21.5033769  45.8004085  39.6544054  22.2769702  32.2223366  46.7336630
  21.3632782  32.4527593  46.9018837  22.7062803  32.3061810  47.5850662
  22.0476160  40.4113258  49.2336524  21.3947611  40.6589166  48.5788977
  22.4256540  39.5977396  48.8999001  19.0083334  50.4472951  43.3364694
  19.1905729  49.6294607  43.7992446  19.8316320  50.6640644  42.8989584
  19.3425500  49.3741136  40.5979743  19.8713266  48.8633591  39.9849905
  19.6053719  49.0583667  41.4625276  18.0963733  41.1533069  55.7202561
  17.4204370  41.0527198  56.3904936  18.9191367  40.9972283  56.1838558
   9.8442593  47.3905006  48.3415076  10.4296029  46.6448694  48.4742980
   9.6467431  47.7008962  49.2251740  12.6981248  50.4256253  43.3577519
  12.0291623  50.9102381  42.8741559  12.5594117  50.6725474  44.2720897
   4.4360247  39.9610606  47.0619519   4.4744347  39.4274197  47.8556637
   3.9300540  39.4345811  46.4430496  16.8386516  52.4599997  49.9560177
  17.3904824  52.6231618  50.7209262  17.1792710  53.0504434  49.2840202
  11.8151010  34.8075146  50.5582062  11.8792336  35.6689977  50.1459459
  11.7518130  34.1949148  49.8254420  11.2903282  36.8798279  54.2055096
  11.9175321  36.4975356  54.8192620  10.4331201  36.6612481  54.5710788
  21.6897391  47.2861254  55.8108831  22.2337295  47.8991212  55.3163786
  21.1084236  47.8440833  56.3275844   8.0668825  38.6874708  40.1373451
   8.3622266  37.7785386  40.0840504   7.1656861  38.6662447  39.8154453
  19.9754904  50.4081972  46.9423859  19.8506043  49.6071712  46.4334805
  20.6333995  50.9028165  46.4537829  11.5963072  36.7630705  46.1200999
  10.8749658  37.3766672  45.9808473  12.3856328  37.2988469  46.0417645
  22.0389812  48.2090992  48.5703409  21.0920148  48.0896343  48.4981736
  22.3872585  47.3213490  48.6529671  14.3989385  34.0985131  52.3941651
  14.9223787  34.3447428  53.1567960  14.1801719  34.9305166  51.9744788
   9.7956666  36.3688806  40.2612776   9.4669373  35.4886185  40.0787882
  10.1496037  36.3136474  41.1489165  19.0436245  48.0043708  44.7707761
  18.8961208  47.0760416  44.9515331  19.8689739  48.0263799  44.2864837
  12.9098490  36.6561775  40.6288254  13.2494562  37.1847697  39.9066862
  13.3570610  36.9942182  41.4046820  22.6470367  48.8272267  45.8572634
  23.5716915  48.6215128  45.7197085  22.4785671  48.5788668  46.7661976
  15.6041930  35.0398826  50.0791322  15.2638751  34.2406639  50.4812001
  14.8980937  35.3400537  49.5068155  16.2558402  32.1248139  48.5318645
  17.0784472  31.6508617  48.4097535  16.4996466  32.9038622  49.0317331
  14.8966637  35.1536397  38.8281546  15.6174999  35.5317650  38.3245263
  14.2731941  35.8725274  38.9316524  19.0397760  35.8581546  39.7639879
  19.2561374  36.7406184  39.4628707  18.5591827  35.4667759  39.0345521
  13.7796981  38.8167259  46.3410623  13.6341562  39.1307562  47.2334905
  13.3022185  39.4352160  45.7881522  15.6393364  35.8069807  46.3891513
  15.6254933  34.9110901  46.0523811  16.3565792  35.8140471  47.0229799
  17.4919495  36.2407147  48.4344640  17.2337272  37.1624218  48.4328971
  16.9604535  35.8437582  49.1245104  22.4365683  49.3457935  41.2134726
  22.6102561  48.7804357  40.4608578  22.9294575  50.1458829  41.0314216
   8.2542643  41.3572604  49.2798284   7.7096111  42.1332412  49.4118559
   9.1321993  41.7043408  49.1217406  15.0430260  34.6884188  41.6579083
  15.1646171  33.7600834  41.8569970  14.7532302  34.7022874  40.7457398
  17.9121450  32.3739098  44.7945803  17.9343147  32.4378431  43.8397782
  18.3289509  31.5343607  44.9886309  28.2905075  42.1094358  42.8325025
  28.7336221  41.3601683  42.4344149  27.4131585  42.1004494  42.4498757
  23.4240856  48.6624699  38.3131624  24.1191760  49.2831392  38.5318939
  23.7664006  47.8120050  38.5884002   9.0408665  40.4842500  52.1728441
   8.2990401  40.6325135  52.7593072   8.7201409  40.7450766  51.3095191
  25.3232279  46.1124405  39.8418955  25.8483603  46.4511677  39.1168275
  25.2354632  45.1771420  39.6582089  16.9852328  50.0258478  51.9708831
  17.2939454  49.7807625  52.8431531  17.7827810  50.2305117  51.4827702
  17.0072940  52.1796388  44.2014208  16.5677930  51.6872767  44.8947065
  17.7581057  51.6369355  43.9606283   9.4865279  48.3707929  44.2038836
  10.3123299  48.0711701  43.8237479   9.1359331  47.6015551  44.6528625
  14.4546812  47.7234397  46.2736510  13.8326821  47.0605102  45.9738737
  15.1251679  47.7495529  45.5910157   7.6873884  46.2894255  45.1627770
   6.8505792  45.8616429  44.9811771   7.6597529  46.4826698  46.0998561
  14.5271339  36.2016185  55.8669016  14.5759495  37.0778308  55.4846785
  15.0693854  35.6593578  55.2940659  25.0126185  46.7457308  55.1470153
  24.2221729  46.7281447  54.6074652  24.7759540  47.2845602  55.9019189
  25.1324060  43.5949775  52.4602881  25.1822065  43.4299782  53.4018404
  25.0237983  42.7277034  52.0700762  14.0160319  46.2738320  39.7494970
  14.1648439  46.9573785  39.0961643  14.8226762  46.2543410  40.2644426
  22.4227822  39.5780703  53.7762188  23.3237685  39.4387167  53.4846186
  22.4975797  39.7435157  54.7160365  16.7570628  36.9547557  52.6215374
  15.8873937  37.2481123  52.3497963  16.9930108  37.5388002  53.3422638
  26.6342257  46.0146716  52.7044903  26.3427065  46.3776697  53.5408364
  26.0214388  45.3013724  52.5258235  27.8337939  43.5799596  45.2247473
  28.6684831  44.0189400  45.3885033  27.9697068  43.1038249  44.4055719
  24.8829445  41.1379331  51.1724961  25.3583567  41.3306977  50.3643812
  23.9595011  41.1938517  50.9268344  11.7712952  42.3003498  40.7556039
  11.5258994  41.3965828  40.9536249  11.9408866  42.3020648  39.8135517
  19.4609662  33.1727174  50.1380795  19.9791606  33.9088201  49.8127283
  19.1064794  33.4791168  50.9727554  11.0408599  38.0331855  38.2542200
  10.3477844  38.1076210  37.5982236  10.7960351  37.2692199  38.7763717
  19.7122256  29.5927457  45.6581691  19.9924010  28.9250646  46.2842118
  20.4972863  29.7856552  45.1456355  17.5155724  48.7686451  37.2206717
  16.9429691  49.3876638  36.7677189  18.0888518  49.3185812  37.7546639
  23.5831114  38.0145091  49.4053266  24.5348537  38.1143188  49.4265490
  23.4134565  37.2223359  49.9151351  21.6045494  35.1000674  49.5912667
  21.0095426  35.3805687  48.8959156  21.3195190  35.5894575  50.3629408
  20.7352984  49.0523601  38.3515300  21.6683657  48.9869162  38.5548175
  20.6476197  49.8879868  37.8929832  23.3641001  48.3689471  35.3119247
  23.2854632  48.0349335  36.2055005  24.1850668  48.8611239  35.3110720
  26.0619192  41.2351210  48.5195566  26.0295512  40.2967211  48.7055250
  26.6719816  41.3135247  47.7861391  17.9002523  40.1047263  34.5622770
  18.8461628  39.9753472  34.6311188  17.5216768  39.3661925  35.0392198
  26.2113680  38.0262254  48.5653849  25.6952729  37.2420711  48.3783778
  27.0953629  37.6980971  48.7300369  23.8724407  31.7703269  44.5249662
  23.6749228  31.4618358  45.4092994  24.4824113  32.4964908  44.6547592
  31.8795742  42.2967217  47.6601603  32.6099130  42.0352505  48.2209306
  31.2702687  41.5595939  47.7003671  29.9611039  40.4375080  48.2576054
  29.2344203  40.3031045  47.6492546  29.5458326  40.7451909  49.0632772
  17.7841215  44.1565010  56.0223427  18.7044225  44.3343609  56.2163473
  17.7490798  43.2121055  55.8703126  16.0845440  38.0297240  34.4977655
  15.1776895  37.7330353  34.5740369  16.3621421  37.7327058  33.6311941
   7.0023380  39.3503603  44.9476702   6.6826165  38.4968911  44.6551076
   6.4556809  39.5652181  45.7034669  10.7803288  42.0666044  48.6646208
  10.9989298  42.9983152  48.6834242  11.1929062  41.7074019  49.4501012
  17.7007506  32.5734130  40.6521896  16.8908234  32.2281215  41.0277143
  18.3891923  32.2641673  41.2409508  19.6298054  31.6512176  42.2746193
  20.1829093  32.0707630  42.9336216  19.8668140  30.7247924  42.3169149
  15.6531153  37.6399250  58.0548957  15.5527880  38.5893607  57.9861048
  15.4352695  37.3117489  57.1825027  14.8544225  34.8884175  34.6389634
  15.7163389  35.2139073  34.8985452  15.0394569  34.1015671  34.1262700
   6.8711640  42.9706515  46.9169823   6.1775112  42.5560468  46.4039778
   7.6184631  43.0127051  46.3203242  23.0076861  33.7612702  41.7824857
  22.4275530  34.4197506  41.4002910  22.7412794  32.9390046  41.3712275
  21.4580427  33.1617759  43.9846178  21.9580206  33.2734294  43.1760497
  22.1016035  32.8578812  44.6246986  15.5162423  41.0696389  56.8714019
  15.0329505  41.8696749  57.0777908  15.6023362  41.0804334  55.9181463
   8.7848383  42.9024769  44.7935838   8.7619071  43.0012456  43.8417721
   9.0949019  43.7489919  45.1153004  11.4435761  44.9600924  48.9082452
  12.3979014  44.9284866  48.8412384  11.2448284  44.4991547  49.7232678
  12.0335143  43.5302040  51.4753250  12.8528032  44.0246118  51.4988087
  12.3071951  42.6134008  51.4470818  21.7901739  35.9212792  40.8381206
  20.9027594  36.2062443  40.6201400  22.2055728  35.7606555  39.9908483
  25.1416275  35.9459313  44.5535545  25.9176665  36.4355765  44.8260162
  24.4164409  36.3717367  45.0107414  27.5788834  36.6586932  45.6109486
  28.1733325  36.4182668  44.9002794  27.6515418  35.9394063  46.2383022
   9.7985990  50.5020543  45.9252650   9.6640457  49.7420944  45.3590648
   9.3818052  51.2261443  45.4581439  20.9344953  45.6857467  34.9329226
  21.6380803  45.8907469  35.5486881  20.2107601  46.2534228  35.1978309
  21.7642763  41.4367328  41.0531496  21.7077964  41.8935879  40.2139128
  22.3171105  40.6758012  40.8754339  25.5747569  37.2257060  41.8781615
  25.3184503  36.8253695  42.7089823  24.9500437  37.9400854  41.7531754
  29.8859907  39.9653133  44.3852907  29.3259465  40.0346322  45.1584469
  29.2803410  39.7894118  43.6652403  12.9555115  51.3989860  46.1371093
  12.8387500  52.3435293  46.0349783  12.1347562  51.0963422  46.5256892
  22.8431650  46.1239996  36.9827686  23.6777254  45.6921194  36.8005160
  22.6815993  45.9522009  37.9104580  22.4977542  42.6272109  38.3484025
  22.4426346  42.4616380  37.4072469  21.8723597  43.3348142  38.5046215
   7.2870057  37.8640173  52.1745447   7.9328921  37.3539127  52.6632672
   7.0787208  38.6008855  52.7488872  19.8123449  44.9321021  57.6737588
  20.6814609  45.1061673  57.3124223  19.3330201  45.7515438  57.5513317
  15.8073668  32.1280218  37.9269343  15.7952337  33.0722058  38.0837614
  16.6997089  31.9450363  37.6328805  13.9809630  52.0518122  49.3527021
  14.8836876  52.0841732  49.6693516  13.7547000  51.1218573  49.3673357
  15.7363232  50.8049108  46.0137100  14.7858863  50.8050970  45.9001472
  16.0395718  50.0581843  45.4973135  19.6225787  28.7222995  42.1815280
  18.8558183  28.1681481  42.3271963  20.0336492  28.7944863  43.0429432
  11.6267548  35.0107791  56.2720461  12.4899010  34.6544595  56.4823786
  11.0532959  34.6721685  56.9595866  31.4715925  56.6409647  47.0782862
  32.1094335  56.5216394  46.3746203  31.3536768  57.5890491  47.1370815
  28.2805631  56.5937075  47.0144387  27.9424143  56.4778140  46.1264922
  29.1495400  56.1928240  46.9945393  24.1392447  58.4472551  43.0041278
  23.5757312  58.3562488  42.2357566  24.0244842  57.6272456  43.4843771
  28.7625414  57.7471927  52.9730593  28.7514055  57.3524725  52.1011096
  28.9246054  57.0137999  53.5664364  21.6856879  59.9423743  45.8425499
  22.4778171  59.6014568  45.4271798  21.9253529  60.0518718  46.7627652
  29.7192006  62.1143519  38.3155743  29.0679986  62.6997600  37.9289757
  30.5136369  62.6449714  38.3750780  23.6447633  59.2032656  38.7142877
  24.4178509  58.6561643  38.5755753  23.9973032  60.0676906  38.9257339
  25.4832675  60.5309039  51.9209777  25.1922541  61.4354669  51.8056443
  26.1189660  60.5725566  52.6353846  26.4088882  57.9085887  48.5111136
  27.0052455  57.6841909  47.7968099  26.4663854  57.1670633  49.1136584
  25.9813911  55.3625322  36.3461327  26.2339431  54.8406844  35.5844790
  25.0438470  55.1991468  36.4488011  31.0257194  54.3661101  44.1536070
  31.8120283  53.9480524  43.8026487  31.2895898  55.2707193  44.3217719
  31.1967271  59.8033951  38.8524727  30.5613104  59.8768578  39.5645632
  30.8664677  60.3927550  38.1743807  36.4265621  54.3036334  45.0569049
  37.1590793  53.7335551  45.2906878  35.6704976  53.9157934  45.4975555
  25.7010199  57.2653428  38.5485702  25.5846458  56.5898332  39.2166787
  25.8112459  56.7785802  37.7317855  28.0441740  56.7263575  42.2532391
  27.6799948  56.1994196  42.9645313  28.9008856  56.3362044  42.0798877
  33.9491041  48.0157908  49.5163658  33.6174366  48.8853319  49.2924873
  33.3536654  47.6994192  50.1957688  27.6847227  51.7553475  37.2493740
  27.8521630  52.6233712  37.6164211  27.4944396  51.9180757  36.3255029
  30.4422561  60.2170454  48.9159570  30.1423284  61.1195493  48.8075378
  30.0973620  59.9502637  49.7680723  23.8935042  56.6684251  44.9496275
  22.9685538  56.5360465  45.1573967  24.1419455  57.4478470  45.4466217
  33.8419704  52.7352994  46.5957008  32.9336582  52.6668403  46.3015769
  33.7907300  53.2124939  47.4238833  27.6636448  54.2111133  38.2340407
  27.5436073  54.6568183  39.0725887  26.9689037  54.5596450  37.6753945
  21.2543853  56.3117524  45.7840064  21.3836234  56.5652003  46.6979476
  20.5741304  56.9045232  45.4644719  25.4243340  66.9814774  41.8830538
  25.3467370  67.9322599  41.9619019  24.8204984  66.6360647  42.5405464
  27.9160570  54.1542640  54.5391905  27.1393904  54.7136560  54.5294770
  28.5551133  54.6399423  55.0606775  35.7081351  50.9369433  48.3734882
  35.0655731  51.2301966  47.7274676  35.2036279  50.8222353  49.1788078
  33.3621514  54.6832606  39.0620741  34.2739371  54.9159993  38.8868438
  32.8531161  55.2669650  38.4995819  26.1706942  56.9628093  54.1009872
  26.9121627  57.5013137  53.8244696  25.4643928  57.5894382  54.2581424
  31.6462282  59.1057234  52.6982033  32.0545638  58.6639644  51.9536666
  30.9239544  58.5309861  52.9516226  27.9993352  54.0429840  50.0715590
  28.8454547  54.4669254  50.2150239  27.9391990  53.3863465  50.7654153
  31.9691097  59.6658424  46.4534322  31.3399959  59.8304138  45.7510390
  31.5816759  60.0800034  47.2245286  35.8480329  60.6012862  43.8078686
  35.1631367  60.9811763  43.2575719  35.9324178  61.2108189  44.5410634
  31.1492797  51.7034209  51.7296764  30.9053729  52.4576269  51.1931040
  31.4252728  52.0819556  52.5644011  33.1031260  58.2472821  50.4074030
  33.3148155  58.8904581  49.7308411  33.0561008  57.4135138  49.9395960
  30.7057489  50.8590642  47.3110602  29.8441968  51.1571895  47.6027339
  30.7319924  51.0761041  46.3791634  27.5219059  59.4032832  43.7184407
  27.9857404  59.6820535  42.9289030  27.2575857  58.5016277  43.5357498
  24.4143140  58.9504314  46.6564171  24.9844497  59.3791582  46.0181655
  25.0051251  58.6686899  47.3548356  26.4587945  55.5255985  40.5273973
  27.1611988  55.9777028  40.9947899  26.1268573  54.8839804  41.1553866
  24.9068306  54.1167741  54.9025182  24.2766967  54.7984022  55.1360579
  24.8004394  54.0050823  53.9578320  20.2013279  53.7839537  45.8291106
  19.4112333  54.0397066  45.3531217  20.6924526  54.5987875  45.9343147
  34.2177088  61.1244777  48.5796387  35.0394532  60.7224964  48.2979069
  34.2139491  61.0213011  49.5312503  22.1528024  54.1484117  42.7874583
  21.3559187  54.2602811  43.3058078  21.9253616  54.4870769  41.9215473
  27.9833692  60.6728820  50.7357097  28.0478124  61.1349227  51.5715269
  27.2744615  60.0426185  50.8639407  18.4850982  54.0370028  48.2606097
  18.7359020  54.9217038  48.5263673  19.0210530  53.8574629  47.4881189
  27.6981709  62.3396927  40.6036078  27.5627384  63.1848463  41.0320926
  28.2391522  62.5416205  39.8402012  24.1849049  48.4188507  57.2650433
  23.7915994  47.8654706  57.9398077  25.0015189  48.7299086  57.6556950
  21.1511107  59.8572365  41.1764003  21.6635627  60.6515616  41.3269568
  21.8033819  59.1598656  41.1097604  22.9605991  62.9738122  43.2586756
  23.1372620  63.8956086  43.0707740  23.7562825  62.6596541  43.6881136
  27.1017010  49.8346386  54.8570690  27.8426723  50.4353539  54.7775152
  27.3334933  49.0924024  54.2988732  22.2458348  55.0202754  53.1348919
  22.1311863  54.1188011  53.4356018  21.3902866  55.2666450  52.7833736
  29.3250186  62.9620494  54.7336420  28.8814040  62.1756872  54.4157324
  29.9867399  63.1499644  54.0680311  24.0837307  64.4916295  49.2597098
  24.6344732  64.3633359  48.4874092  23.2448783  64.7911184  48.9091991
  31.4231424  63.2423294  52.7617821  31.4049899  64.0632175  52.2698090
  32.3451344  63.1177369  52.9867962  27.8804478  60.7567423  53.6041329
  28.4132815  59.9955711  53.3740637  27.3518559  60.4641075  54.3465484
  31.0474173  45.8627489  49.1334971  30.7038442  46.7529131  49.0574082
  31.4153135  45.6729147  48.2704556  19.1160023  58.1861020  41.9523573
  19.9535245  58.5958028  41.7357281  19.2938291  57.2460462  41.9223767
  31.0124456  55.8536100  37.6407406  30.4971079  56.6240705  37.8795794
  30.7401764  55.1801236  38.2640468  28.5971567  50.6985801  42.6992645
  27.7413163  50.3092651  42.5198283  29.0098518  50.7777762  41.8392430
  30.1270713  48.2332144  47.0984204  29.6235509  48.1962280  46.2852010
  30.4201320  49.1424887  47.1580861  26.3713599  48.3170874  46.1050386
  27.2366596  48.1213683  45.7456276  26.4391108  48.0881226  47.0319743
  35.9858730  58.6068455  39.5760580  35.2088172  58.2679614  39.1315742
  36.6650211  58.6121078  38.9015545  30.8010759  53.7263192  39.4667187
  30.4960894  54.0409342  40.3177331  31.7541201  53.8044612  39.5094520
  29.2457191  59.8853416  41.1160141  28.7178552  59.1506175  40.8033379
  28.7444693  60.6628092  40.8700110  34.2250037  58.0802436  46.2327188
  33.5673711  58.7701698  46.3207316  35.0290436  58.4698868  46.5761174
  23.9775918  50.5473082  43.4766753  24.5519670  50.3248264  42.7439946
  24.5646901  50.6161777  44.2295354  33.0355495  56.4346809  44.2831130
  33.5487377  57.0676801  44.7852839  33.6856719  55.8348004  43.9174490
  24.3045505  52.5777543  37.4962638  23.4682818  52.9152230  37.8171913
  24.1650275  52.4426523  36.5589775  26.2798586  47.4214331  42.2041822
  25.6262998  47.1063348  41.5798437  26.2379060  46.7990071  42.9301645
  27.3909791  57.7033626  34.1195115  26.4836852  57.4722879  34.3186263
  27.8880823  56.9071245  34.3069096  30.2977870  66.4131133  37.0391801
  29.6239568  66.7162830  37.6476758  30.6843692  67.2160214  36.6897258
  29.5136326  53.9096264  46.5289470  28.5958888  54.1311211  46.3711158
  29.9296470  53.9842575  45.6701177  30.2971374  55.3087680  41.6592150
  31.0443193  55.8209077  41.3499272  30.5662964  54.9871733  42.5196544
  28.5698024  57.8046221  38.6419105  27.6609243  57.5205254  38.7391574
  28.5993108  58.2245299  37.7822411  33.8017292  61.4152810  42.4110272
  33.3479619  60.5743720  42.4675463  33.1711258  62.0514209  42.7485052
  32.7450211  52.3444796  43.6410940  32.0072968  51.8322183  43.9721182
  32.9976985  51.9045178  42.8294216  32.2450231  63.2529307  43.3460090
  32.5373205  63.8134364  42.6272456  32.7548851  63.5457868  44.1013249
  32.8461838  45.1221048  44.2352709  33.1520715  44.2618412  43.9478624
  33.5714443  45.7138669  44.0351703  19.1386195  55.5251735  42.6234307
  18.9410594  54.9321096  41.8985373  18.5832859  55.2203945  43.3410246
  27.1182918  55.4174841  44.7428900  27.1731528  54.4648678  44.6671377
  26.3074120  55.5734281  45.2270198  28.2674112  59.3454965  35.9807183
  27.8293542  58.6290823  35.5212821  29.0084553  59.5731079  35.4192275
  25.0575278  54.0351901  42.5019279  24.2443144  54.3346072  42.9084471
  25.5534272  53.6407590  43.2193761  27.2083856  64.0309658  44.4353544
  27.1660035  64.2570504  43.5062076  28.1246555  63.7973033  44.5839345
  30.6549490  54.4993726  51.3334173  31.0098878  54.7265199  52.1928638
  31.3021621  54.8312102  50.7111428  36.3847227  57.6212162  42.0383502
  36.2465125  57.8113758  41.1104691  36.0283446  58.3831544  42.4951553
  24.5489353  51.6070257  48.1180514  25.1888732  51.4659016  47.4203477
  23.7166883  51.3204770  47.7419116  36.4116606  59.6888689  47.0494773
  36.8453113  59.5963978  47.8977827  37.1248187  59.6646189  46.4114789
  25.3249657  60.9072687  44.2315506  26.1190255  60.4123007  44.0298081
  24.6141349  60.3790550  43.8683212  30.1444501  63.2890783  48.5827874
  30.1981524  63.8581719  49.3505590  29.2759283  63.4592668  48.2181911
  21.6332420  55.0515769  40.3075259  20.7030008  54.9900224  40.5245221
  21.7289892  54.5291722  39.5111900  21.5517969  51.5770582  42.8953501
  21.8124787  52.4915915  42.7862661  22.3735142  51.1095024  43.0450113
  23.0242895  52.9908339  50.0652325  23.6965948  52.7825701  49.4164974
  22.1972681  52.7930425  49.6257557  37.2732156  59.7312389  49.5827659
  37.4668046  60.6358200  49.8286934  37.1732774  59.2719808  50.4166244
  28.9268467  49.6170280  52.0817986  28.2796382  50.3160229  51.9882462
  29.6969482  50.0506424  52.4494234  32.3347265  59.8819132  55.1568539
  32.1832771  59.6529684  54.2398623  32.3251944  60.8389733  55.1699884
  29.1032601  57.4551045  50.1414806  30.0324661  57.6062204  49.9683773
  28.6823631  57.5435066  49.2863452  27.9020933  61.4801709  47.9113343
  27.7632018  61.1120494  48.7839281  27.1135529  61.9949349  47.7397301
  28.4969085  66.5810806  39.2538880  28.6720840  66.1098849  40.0684503
  27.8101873  67.2076572  39.4820141  29.4526148  60.8583312  45.3002181
  29.1175981  60.8184082  46.1959831  28.9530094  60.1928028  44.8272591
  23.4270392  56.2650942  50.8254762  23.2890190  55.5331181  51.4266301
  24.3375315  56.1759842  50.5438950  32.3885340  58.2039346  35.5739241
  31.7714510  57.4786174  35.4772293  31.9201828  58.9648706  35.2306315
  26.0552693  55.9770901  50.3138442  26.7652311  55.3364093  50.2725060
  26.0122001  56.2283796  51.2364623  34.0439471  62.9138255  53.2345021
  33.9852017  62.2297475  52.5675604  34.4458990  63.6557245  52.7825647
  24.7681627  52.9636119  52.1334081  24.2318984  52.5126858  52.7855678
  24.1798335  53.0982028  51.3904546  23.0630170  69.7300168  46.0278740
  23.3026768  70.3618693  46.7057759  22.2199367  69.3788208  46.3144099
  24.1783886  52.4224770  34.6960545  23.3013352  52.3013571  34.3322792
  24.6541639  51.6310849  34.4439434  34.0456879  60.8777838  51.4659001
  33.1583657  60.5403760  51.5885400  34.6155430  60.1460870  51.7027766
  15.6986026  57.2101930  44.7902052  16.3857065  56.8963660  44.2023068
  15.5434154  58.1143295  44.5169304  20.5020748  52.0992127  49.2187076
  20.4178937  51.4917796  48.4837486  19.6803454  52.5901145  49.2196572
  27.5758032  65.5379291  48.4320244  27.5028203  66.3434262  48.9439549
  27.1335425  65.7371257  47.6068265  27.3647812  64.7751061  41.9423066
  26.5815333  65.3172741  42.0361290  28.0640557  65.2925040  42.3417307
  30.6744462  50.5845690  44.5857271  31.1713161  49.8315653  44.2658341
  29.9031443  50.6210007  44.0200480  38.5274219  56.2886056  46.2275562
  38.5164095  57.1710771  45.8569496  37.6591598  55.9357607  46.0330100
  30.0356715  65.4366125  50.5878403  30.7484688  66.0713590  50.5154304
  29.5446744  65.5329991  49.7718405  31.7574242  59.3417378  42.1595694
  30.8230521  59.4618840  41.9900399  31.9350911  58.4389844  41.8955704
  27.2579430  52.7263073  44.3128956  26.8877218  52.1734114  45.0009861
  27.7538523  52.1221207  43.7603956  35.1446794  55.1834697  42.6945728
  35.6107246  56.0162688  42.6206031  35.5954294  54.7179678  43.3990987
  25.0868629  63.1860568  51.4083973  25.7878088  63.8197051  51.5613368
  24.6163744  63.5275300  50.6479613  33.2123025  61.5278518  39.6931881
  33.4882869  61.4135113  40.6025755  32.3427524  61.1296003  39.6544054
  33.1163456  47.5515284  46.7336630  32.2026536  47.7819511  46.9018837
  33.5456558  47.6353728  47.5850662  32.8869915  55.7405176  49.2336524
  32.2341365  55.9881083  48.5788977  33.2650295  54.9269314  48.8999001
  29.8477089  65.7764869  43.3364694  30.0299483  64.9586525  43.7992446
  30.6710075  65.9932561  42.8989584  30.1819254  64.7033054  40.5979743
  30.7107021  64.1925509  39.9849905  30.4447474  64.3875584  41.4625276
  28.9357488  56.4824987  55.7202561  28.2598125  56.3819116  56.3904936
  29.7585122  56.3264201  56.1838558  20.6836347  62.7196923  48.3415076
  21.2689784  61.9740611  48.4742980  20.4861185  63.0300880  49.2251740
  23.5375002  65.7548171  43.3577519  22.8685378  66.2394298  42.8741559
  23.3987872  66.0017391  44.2720897  15.2754002  55.2902524  47.0619519
  15.3138101  54.7566114  47.8556637  14.7694295  54.7637729  46.4430496
  27.6780271  67.7891914  49.9560177  28.2298579  67.9523536  50.7209262
  28.0186464  68.3796352  49.2840202  22.6544764  50.1367064  50.5582062
  22.7186091  50.9981895  50.1459459  22.5911884  49.5241066  49.8254420
  22.1297037  52.2090197  54.2055096  22.7569075  51.8267274  54.8192620
  21.2724955  51.9904399  54.5710788  32.5291145  62.6153172  55.8108831
  33.0731049  63.2283130  55.3163786  31.9477990  63.1732750  56.3275844
  18.9062579  54.0166626  40.1373451  19.2016020  53.1077304  40.0840504
  18.0050615  53.9954365  39.8154453  30.8148658  65.7373890  46.9423859
  30.6899798  64.9363630  46.4334805  31.4727749  66.2320083  46.4537829
  22.4356826  52.0922622  46.1200999  21.7143412  52.7058590  45.9808473
  23.2250082  52.6280387  46.0417645  32.8783567  63.5382910  48.5703409
  31.9313902  63.4188261  48.4981736  33.2266340  62.6505408  48.6529671
  25.2383140  49.4277049  52.3941651  25.7617542  49.6739345  53.1567960
  25.0195473  50.2597084  51.9744788  20.6350421  51.6980723  40.2612776
  20.3063127  50.8178102  40.0787882  20.9889792  51.6428392  41.1489165
  29.8830000  63.3335626  44.7707761  29.7354962  62.4052334  44.9515331
  30.7083493  63.3555717  44.2864837  23.7492244  51.9853693  40.6288254
  24.0888317  52.5139614  39.9066862  24.1964365  52.3234099  41.4046820
  33.4864122  64.1564185  45.8572634  34.4110669  63.9507046  45.7197085
  33.3179425  63.9080586  46.7661976  26.4435685  50.3690744  50.0791322
  26.1032505  49.5698557  50.4812001  25.7374691  50.6692455  49.5068155
  27.0952157  47.4540056  48.5318645  27.9178226  46.9800535  48.4097535
  27.3390220  48.2330540  49.0317331  25.7360391  50.4828315  38.8281546
  26.4568754  50.8609568  38.3245263  25.1125695  51.2017192  38.9316524
  29.8791514  51.1873464  39.7639879  30.0955129  52.0698102  39.4628707
  29.3985581  50.7959677  39.0345521  24.6190736  54.1459177  46.3410623
  24.4735316  54.4599480  47.2334905  24.1415939  54.7644077  45.7881522
  26.4787118  51.1361725  46.3891513  26.4648687  50.2402818  46.0523811
  27.1959546  51.1432389  47.0229799  28.3313249  51.5699065  48.4344640
  28.0731027  52.4916136  48.4328971  27.7998289  51.1729500  49.1245104
  33.2759438  64.6749852  41.2134726  33.4496315  64.1096275  40.4608578
  33.7688329  65.4750747  41.0314216  19.0936398  56.6864521  49.2798284
  18.5489866  57.4624329  49.4118559  19.9715748  57.0335326  49.1217406
  25.8824014  50.0176105  41.6579083  26.0039926  49.0892751  41.8569970
  25.5926057  50.0314791  40.7457398  28.7515205  47.7031016  44.7945803
  28.7736902  47.7670349  43.8397782  29.1683264  46.8635524  44.9886309
  39.1298829  57.4386275  42.8325025  39.5729975  56.6893600  42.4344149
  38.2525339  57.4296412  42.4498757  34.2634610  63.9916617  38.3131624
  34.9585515  64.6123309  38.5318939  34.6057760  63.1411968  38.5884002
  19.8802420  55.8134418  52.1728441  19.1384156  55.9617053  52.7593072
  19.5595164  56.0742683  51.3095191  36.1626033  61.4416322  39.8418955
  36.6877358  61.7803595  39.1168275  36.0748386  60.5063338  39.6582089
  27.8246082  65.3550396  51.9708831  28.1333209  65.1099543  52.8431531
  28.6221564  65.5597034  51.4827702  27.8466694  67.5088305  44.2014208
  27.4071685  67.0164684  44.8947065  28.5974811  66.9661273  43.9606283
  20.3259033  63.6999846  44.2038836  21.1517053  63.4003618  43.8237479
  19.9753085  62.9307469  44.6528625  25.2940566  63.0526315  46.2736510
  24.6720576  62.3897020  45.9738737  25.9645433  63.0787446  45.5910157
  18.5267638  61.6186173  45.1627770  17.6899547  61.1908347  44.9811771
  18.4991284  61.8118616  46.0998561  25.3665094  51.5308103  55.8669016
  25.4153249  52.4070225  55.4846785  25.9087608  50.9885496  55.2940659
  35.8519940  62.0749226  55.1470153  35.0615483  62.0573365  54.6074652
  35.6153294  62.6137520  55.9019189  35.9717815  58.9241692  52.4602881
  36.0215820  58.7591700  53.4018404  35.8631738  58.0568951  52.0700762
  24.8554073  61.6030238  39.7494970  25.0042194  62.2865702  39.0961643
  25.6620517  61.5835328  40.2644426  33.2621577  54.9072620  53.7762188
  34.1631440  54.7679085  53.4846186  33.3369551  55.0727075  54.7160365
  27.5964382  52.2839475  52.6215374  26.7267692  52.5773041  52.3497963
  27.8323863  52.8679920  53.3422638  37.4736011  61.3438634  52.7044903
  37.1820820  61.7068614  53.5408364  36.8608143  60.6305642  52.5258235
  38.6731694  58.9091514  45.2247473  39.5078585  59.3481318  45.3885033
  38.8090823  58.4330167  44.4055719  35.7223200  56.4671248  51.1724961
  36.1977321  56.6598895  50.3643812  34.7988765  56.5230434  50.9268344
  22.6106706  57.6295416  40.7556039  22.3652748  56.7257746  40.9536249
  22.7802621  57.6312566  39.8135517  30.3003416  48.5019092  50.1380795
  30.8185360  49.2380119  49.8127283  29.9458549  48.8083085  50.9727554
  21.8802354  53.3623773  38.2542200  21.1871599  53.4368128  37.5982236
  21.6354106  52.5984117  38.7763717  30.5516010  44.9219374  45.6581691
  30.8317764  44.2542564  46.2842118  31.3366617  45.1148470  45.1456355
  28.3549479  64.0978368  37.2206717  27.7823446  64.7168555  36.7677189
  28.9282272  64.6477730  37.7546639  34.4224869  53.3437008  49.4053266
  35.3742292  53.4435106  49.4265490  34.2528319  52.5515277  49.9151351
  32.4439248  50.4292592  49.5912667  31.8489180  50.7097604  48.8959156
  32.1588945  50.9186493  50.3629408  31.5746739  64.3815518  38.3515300
  32.5077412  64.3161080  38.5548175  31.4869951  65.2171785  37.8929832
  34.2034755  63.6981389  35.3119247  34.1248387  63.3641252  36.2055005
  35.0244422  64.1903157  35.3110720  36.9012946  56.5643128  48.5195566
  36.8689267  55.6259129  48.7055250  37.5113570  56.6427165  47.7861391
  28.7396277  55.4339181  34.5622770  29.6855382  55.3045389  34.6311188
  28.3610522  54.6953843  35.0392198  37.0507435  53.3554172  48.5653849
  36.5346484  52.5712628  48.3783778  37.9347383  53.0272888  48.7300369
  34.7118162  47.0995187  44.5249662  34.5142983  46.7910275  45.4092994
  35.3217867  47.8256826  44.6547592  40.8004793  55.7666998  48.2576054
  40.0737957  55.6322963  47.6492546  40.3852080  56.0743826  49.0632772
  28.6234970  59.4856927  56.0223427  29.5437979  59.6635526  56.2163473
  28.5884553  58.5412973  55.8703126  26.9239194  53.3589158  34.4977655
  26.0170650  53.0622270  34.5740369  27.2015175  53.0618976  33.6311941
  17.8417135  54.6795521  44.9476702  17.5219919  53.8260829  44.6551076
  17.2950563  54.8944099  45.7034669  21.6197042  57.3957962  48.6646208
  21.8383052  58.3275070  48.6834242  22.0322816  57.0365936  49.4501012
  28.5401260  47.9026047  40.6521896  27.7301988  47.5573132  41.0277143
  29.2285677  47.5933591  41.2409508  30.4691808  46.9804094  42.2746193
  31.0222847  47.3999547  42.9336216  30.7061895  46.0539842  42.3169149
  26.4924908  52.9691168  58.0548957  26.3921635  53.9185525  57.9861048
  26.2746450  52.6409407  57.1825027  25.6937979  50.2176093  34.6389634
  26.5557143  50.5430991  34.8985452  25.8788323  49.4307589  34.1262700
  17.7105395  58.2998432  46.9169823  17.0168866  57.8852385  46.4039778
  18.4578386  58.3418969  46.3203242  33.8470616  49.0904619  41.7824857
  33.2669285  49.7489423  41.4002910  33.5806548  48.2681964  41.3712275
  32.2974182  48.4909677  43.9846178  32.7973960  48.6026211  43.1760497
  32.9409790  48.1870730  44.6246986  26.3556178  56.3988307  56.8714019
  25.8723259  57.1988667  57.0777908  26.4417117  56.4096251  55.9181463
  19.6242137  58.2316686  44.7935838  19.6012825  58.3304373  43.8417721
  19.9342774  59.0781837  45.1153004  22.2829515  60.2892841  48.9082452
  23.2372769  60.2576784  48.8412384  22.0842039  59.8283465  49.7232678
  22.8728897  58.8593957  51.4753250  23.6921786  59.3538036  51.4988087
  23.1465705  57.9425925  51.4470818  32.6295494  51.2504710  40.8381206
  31.7421349  51.5354360  40.6201400  33.0449483  51.0898473  39.9908483
  35.9810030  51.2751231  44.5535545  36.7570420  51.7647683  44.8260162
  35.2558164  51.7009285  45.0107414  38.4182588  51.9878850  45.6109486
  39.0127079  51.7474586  44.9002794  38.4909172  51.2685980  46.2383022
  20.6379744  65.8312461  45.9252650  20.5034212  65.0712862  45.3590648
  20.2211806  66.5553361  45.4581439  31.7738707  61.0149384  34.9329226
  32.4774557  61.2199387  35.5486881  31.0501356  61.5826146  35.1978309
  32.6036517  56.7659245  41.0531496  32.5471719  57.2227797  40.2139128
  33.1564860  56.0049930  40.8754339  36.4141323  52.5548977  41.8781615
  36.1578257  52.1545613  42.7089823  35.7894191  53.2692771  41.7531754
  40.7253661  55.2945051  44.3852907  40.1653219  55.3638240  45.1584469
  40.1197164  55.1186035  43.6652403  23.7948870  66.7281778  46.1371093
  23.6781254  67.6727210  46.0349783  22.9741316  66.4255339  46.5256892
  33.6825404  61.4531913  36.9827686  34.5171008  61.0213112  36.8005160
  33.5209747  61.2813927  37.9104580  33.3371297  57.9564027  38.3484025
  33.2820100  57.7908298  37.4072469  32.7117352  58.6640060  38.5046215
  18.1263812  53.1932091  52.1745447  18.7722675  52.6831045  52.6632672
  17.9180963  53.9300773  52.7488872  30.6517204  60.2612939  57.6737588
  31.5208363  60.4353591  57.3124223  30.1723955  61.0807355  57.5513317
  26.6467422  47.4572136  37.9269343  26.6346092  48.4013976  38.0837614
  27.5390844  47.2742281  37.6328805  24.8203384  67.3810040  49.3527021
  25.7230631  67.4133650  49.6693516  24.5940754  66.4510491  49.3673357
  26.5756986  66.1341026  46.0137100  25.6252617  66.1342888  45.9001472
  26.8789472  65.3873761  45.4973135  30.4619542  44.0514912  42.1815280
  29.6951937  43.4973399  42.3271963  30.8730247  44.1236781  43.0429432
  22.4661303  50.3399708  56.2720461  23.3292764  49.9836513  56.4823786
  21.8926713  50.0013603  56.9595866  34.9786202  73.7764469  43.0041278
  34.4151067  73.6854406  42.2357566  34.8638597  72.9564374  43.4843771
  32.5250633  75.2715661  45.8425499  33.3171925  74.9306485  45.4271798
  32.7647284  75.3810636  46.7627652  40.5585760  77.4435437  38.3155743
  39.9073740  78.0289517  37.9289757  41.3530123  77.9741632  38.3750780
  34.4841387  74.5324574  38.7142877  35.2572263  73.9853561  38.5755753
  34.8366786  75.3968823  38.9257339  36.3226430  75.8600956  51.9209777
  36.0316296  76.7646587  51.8056443  36.9583414  75.9017484  52.6353846
  36.8207665  70.6917240  36.3461327  37.0733186  70.1698761  35.5844790
  35.8832224  70.5283385  36.4488011  42.0361025  75.1325869  38.8524727
  41.4006858  75.2060495  39.5645632  41.7058432  75.7219468  38.1743807
  36.5403954  72.5945346  38.5485702  36.4240212  71.9190249  39.2166787
  36.6506214  72.1077720  37.7317855  38.8835495  72.0555493  42.2532391
  38.5193702  71.5286114  42.9645313  39.7402611  71.6653962  42.0798877
  38.5240982  67.0845393  37.2493740  38.6915384  67.9525629  37.6164211
  38.3338151  67.2472674  36.3255029  34.7328797  71.9976169  44.9496275
  33.8079293  71.8652383  45.1573967  34.9813210  72.7770388  45.4466217
  38.5030203  69.5403050  38.2340407  38.3829828  69.9860101  39.0725887
  37.8082791  69.8888368  37.6753945  32.0937608  71.6409442  45.7840064
  32.2229989  71.8943921  46.6979476  31.4135059  72.2337150  45.4644719
  36.2637095  82.3106692  41.8830538  36.1861125  83.2614517  41.9619019
  35.6598738  81.9652565  42.5405464  38.7554325  69.4834557  54.5391905
  37.9787659  70.0428478  54.5294770  39.3944888  69.9691340  55.0606775
  44.2015269  70.0124523  39.0620741  45.1133125  70.2451910  38.8868438
  43.6924916  70.5961568  38.4995819  37.0100697  72.2920011  54.1009872
  37.7515381  72.8305055  53.8244696  36.3037682  72.9186300  54.2581424
  38.3612813  74.7324750  43.7184407  38.8251159  75.0112453  42.9289030
  38.0969611  73.8308195  43.5357498  35.2536894  74.2796232  46.6564171
  35.8238251  74.7083500  46.0181655  35.8445006  73.9978816  47.3548356
  37.2981699  70.8547902  40.5273973  38.0005742  71.3068946  40.9947899
  36.9662328  70.2131721  41.1553866  35.7462061  69.4459659  54.9025182
  35.1160721  70.1275940  55.1360579  35.6398149  69.3342741  53.9578320
  31.0407033  69.1131455  45.8291106  30.2506087  69.3688984  45.3531217
  31.5318280  69.9279793  45.9343147  32.9921778  69.4776034  42.7874583
  32.1952942  69.5894729  43.3058078  32.7647371  69.8162687  41.9215473
  29.3244736  69.3661945  48.2606097  29.5752774  70.2508955  48.5263673
  29.8604284  69.1866547  47.4881189  38.5375464  77.6688845  40.6036078
  38.4021139  78.5140381  41.0320926  39.0785276  77.8708123  39.8402012
  31.9904861  75.1864283  41.1764003  32.5029382  75.9807533  41.3269568
  32.6427574  74.4890573  41.1097604  33.7999746  78.3030039  43.2586756
  33.9766374  79.2248004  43.0707740  34.5956579  77.9888459  43.6881136
  33.0852102  70.3494671  53.1348919  32.9705618  69.4479928  53.4356018
  32.2296620  70.5958368  52.7833736  40.1643940  78.2912412  54.7336420
  39.7207794  77.5048790  54.4157324  40.8261154  78.4791562  54.0680311
  34.9231061  79.8208213  49.2597098  35.4738486  79.6925276  48.4874092
  34.0842537  80.1203102  48.9091991  42.2625178  78.5715211  52.7617821
  42.2443654  79.3924092  52.2698090  43.1845098  78.4469287  52.9867962
  41.8867927  61.1919407  49.1334971  41.5432197  62.0821049  49.0574082
  42.2546890  61.0021065  48.2704556  29.9553778  73.5152937  41.9523573
  30.7929000  73.9249946  41.7357281  30.1332046  72.5752379  41.9223767
  41.8518210  71.1828018  37.6407406  41.3364833  71.9532623  37.8795794
  41.5795518  70.5093154  38.2640468  39.4365321  66.0277719  42.6992645
  38.5806917  65.6384569  42.5198283  39.8492273  66.1069680  41.8392430
  40.9664468  63.5624062  47.0984204  40.4629263  63.5254197  46.2852010
  41.2595075  64.4716805  47.1580861  37.2107354  63.6462792  46.1050386
  38.0760350  63.4505600  45.7456276  37.2784862  63.4173144  47.0319743
  46.8252484  73.9360373  39.5760580  46.0481927  73.5971532  39.1315742
  47.5043965  73.9412996  38.9015545  41.6404513  69.0555110  39.4667187
  41.3354649  69.3701259  40.3177331  42.5934955  69.1336530  39.5094520
  40.0850945  75.2145333  41.1160141  39.5572307  74.4798093  40.8033379
  39.5838448  75.9920010  40.8700110  34.8169673  65.8765000  43.4766753
  35.3913425  65.6540181  42.7439946  35.4040655  65.9453694  44.2295354
  35.1439260  67.9069461  37.4962638  34.3076572  68.2444147  37.8171913
  35.0044029  67.7718441  36.5589775  37.1192340  62.7506249  42.2041822
  36.4656753  62.4355266  41.5798437  37.0772815  62.1281989  42.9301645
  38.2303545  73.0325544  34.1195115  37.3230607  72.8014797  34.3186263
  38.7274577  72.2363163  34.3069096  41.1371624  81.7423051  37.0391801
  40.4633323  82.0454748  37.6476758  41.5237446  82.5452131  36.6897258
  41.1365128  70.6379598  41.6592150  41.8836947  71.1500995  41.3499272
  41.4056718  70.3163651  42.5196544  39.4091779  73.1338139  38.6419105
  38.5002998  72.8497171  38.7391574  39.4386862  73.5537217  37.7822411
  44.6411046  76.7444728  42.4110272  44.1873373  75.9035638  42.4675463
  44.0105013  77.3806126  42.7485052  43.0843985  78.5821225  43.3460090
  43.3766960  79.1426282  42.6272456  43.5942606  78.8749786  44.1013249
  29.9779949  70.8543653  42.6234307  29.7804349  70.2613013  41.8985373
  29.4226613  70.5495863  43.3410246  39.1067866  74.6746882  35.9807183
  38.6687296  73.9582741  35.5212821  39.8478307  74.9022997  35.4192275
  35.8969033  69.3643819  42.5019279  35.0836898  69.6637989  42.9084471
  36.3928027  68.9699508  43.2193761  38.0477611  79.3601576  44.4353544
  38.0053789  79.5862422  43.5062076  38.9640309  79.1264950  44.5839345
  47.2240981  72.9504079  42.0383502  47.0858880  73.1405675  41.1104691
  46.8677200  73.7123462  42.4951553  35.3883107  66.9362174  48.1180514
  36.0282487  66.7950933  47.4203477  34.5560638  66.6496688  47.7419116
  36.1643411  76.2364605  44.2315506  36.9584010  75.7414925  44.0298081
  35.4535104  75.7082468  43.8683212  40.9838256  78.6182700  48.5827874
  41.0375278  79.1873637  49.3505590  40.1153037  78.7884585  48.2181911
  32.4726175  70.3807687  40.3075259  31.5423763  70.3192142  40.5245221
  32.5683647  69.8583639  39.5111900  32.3911724  66.9062499  42.8953501
  32.6518541  67.8207833  42.7862661  33.2128896  66.4386942  43.0450113
  33.8636649  68.3200257  50.0652325  34.5359703  68.1117619  49.4164974
  33.0366436  68.1222343  49.6257557  38.7414687  76.8093627  47.9113343
  38.6025773  76.4412411  48.7839281  37.9529284  77.3241266  47.7397301
  39.3362839  81.9102723  39.2538880  39.5114595  81.4390766  40.0684503
  38.6495627  82.5368489  39.4820141  40.2919902  76.1875229  45.3002181
  39.9569735  76.1475999  46.1959831  39.7923848  75.5219945  44.8272591
  34.2664146  71.5942860  50.8254762  34.1283944  70.8623098  51.4266301
  35.1769070  71.5051760  50.5438950  43.2279094  73.5331264  35.5739241
  42.6108265  72.8078092  35.4772293  42.7595583  74.2940624  35.2306315
  36.8946447  71.3062819  50.3138442  37.6046066  70.6656011  50.2725060
  36.8515755  71.5575714  51.2364623  44.8833226  78.2430172  53.2345021
  44.8245772  77.5589392  52.5675604  45.2852744  78.9849162  52.7825647
  35.6075381  68.2928037  52.1334081  35.0712738  67.8418775  52.7855678
  35.0192089  68.4273946  51.3904546  33.9023925  85.0592086  46.0278740
  34.1420523  85.6910610  46.7057759  33.0593121  84.7080126  46.3144099
  35.0177640  67.7516688  34.6960545  34.1407106  67.6305489  34.3322792
  35.4935393  66.9602766  34.4439434  26.5379780  72.5393848  44.7902052
  27.2250820  72.2255578  44.2023068  26.3827909  73.4435213  44.5169304
  31.3414502  67.4284044  49.2187076  31.2572691  66.8209714  48.4837486
  30.5197209  67.9193063  49.2196572  38.4151786  80.8671208  48.4320244
  38.3421958  81.6726180  48.9439549  37.9729180  81.0663174  47.6068265
  38.2041566  80.1042979  41.9423066  37.4209088  80.6464659  42.0361290
  38.9034311  80.6216958  42.3417307  41.5138216  65.9137608  44.5857271
  42.0106916  65.1607570  44.2658341  40.7425198  65.9501925  44.0200480
  40.8750470  80.7658043  50.5878403  41.5878442  81.4005507  50.5154304
  40.3840499  80.8621909  49.7718405  42.5967997  74.6709295  42.1595694
  41.6624276  74.7910758  41.9900399  42.7744665  73.7681762  41.8955704
  35.9262383  78.5152486  51.4083973  36.6271843  79.1488969  51.5613368
  35.4557498  78.8567218  50.6479613  44.0516779  76.8570436  39.6931881
  44.3276623  76.7427030  40.6025755  43.1821278  76.4587921  39.6544054
  43.9557211  62.8807201  46.7336630  43.0420291  63.1111428  46.9018837
  44.3850312  62.9645646  47.5850662  40.6870843  81.1056787  43.3364694
  40.8693238  80.2878443  43.7992446  41.5103829  81.3224479  42.8989584
  41.0213009  80.0324972  40.5979743  41.5500775  79.5217426  39.9849905
  41.2841228  79.7167502  41.4625276  31.5230102  78.0488841  48.3415076
  32.1083538  77.3032529  48.4742980  31.3254940  78.3592798  49.2251740
  34.3768757  81.0840088  43.3577519  33.7079132  81.5686216  42.8741559
  34.2381626  81.3309309  44.2720897  26.1147756  70.6194441  47.0619519
  26.1531856  70.0858032  47.8556637  25.6088049  70.0929647  46.4430496
  38.5174025  83.1183832  49.9560177  39.0692333  83.2815453  50.7209262
  38.8580219  83.7088270  49.2840202  33.4938519  65.4658982  50.5582062
  33.5579845  66.3273813  50.1459459  33.4305639  64.8532983  49.8254420
  32.9690791  67.5382114  54.2055096  33.5962830  67.1559192  54.8192620
  32.1118710  67.3196316  54.5710788  43.3684900  77.9445089  55.8108831
  43.9124804  78.5575048  55.3163786  42.7871745  78.5024668  56.3275844
  29.7456334  69.3458543  40.1373451  30.0409775  68.4369222  40.0840504
  28.8444370  69.3246283  39.8154453  41.6542413  81.0665807  46.9423859
  41.5293552  80.2655547  46.4334805  42.3121504  81.5612001  46.4537829
  33.2750581  67.4214540  46.1200999  32.5537167  68.0350508  45.9808473
  34.0643837  67.9572305  46.0417645  43.7177321  78.8674828  48.5703409
  42.7707657  78.7480179  48.4981736  44.0660094  77.9797326  48.6529671
  36.0776894  64.7568966  52.3941651  36.6011296  65.0031263  53.1567960
  35.8589228  65.5889001  51.9744788  31.4744175  67.0272641  40.2612776
  31.1456882  66.1470020  40.0787882  31.8283546  66.9720310  41.1489165
  40.7223754  78.6627544  44.7707761  40.5748717  77.7344251  44.9515331
  41.5477248  78.6847634  44.2864837  34.5885999  67.3145611  40.6288254
  34.9282071  67.8431532  39.9066862  35.0358119  67.6526017  41.4046820
  37.2829439  65.6982662  50.0791322  36.9426260  64.8990475  50.4812001
  36.5768446  65.9984372  49.5068155  37.9345911  62.7831974  48.5318645
  38.7571981  62.3092452  48.4097535  38.1783975  63.5622458  49.0317331
  36.5754146  65.8120232  38.8281546  37.2962508  66.1901485  38.3245263
  35.9519450  66.5309109  38.9316524  40.7185269  66.5165381  39.7639879
  40.9348883  67.3990019  39.4628707  40.2379336  66.1251595  39.0345521
  44.1153192  80.0041770  41.2134726  44.2890070  79.4388192  40.4608578
  44.6082084  80.8042665  41.0314216  29.9330152  72.0156439  49.2798284
  29.3883620  72.7916247  49.4118559  30.8109502  72.3627244  49.1217406
  36.7217769  65.3468023  41.6579083  36.8433680  64.4184669  41.8569970
  36.4319811  65.3606709  40.7457398  39.5908959  63.0322933  44.7945803
  39.6130656  63.0962266  43.8397782  40.0077018  62.1927442  44.9886309
  45.1028365  79.3208534  38.3131624  45.7979269  79.9415227  38.5318939
  45.4451515  78.4703886  38.5884002  30.7196174  71.1426335  52.1728441
  29.9777910  71.2908971  52.7593072  30.3988918  71.4034601  51.3095191
  47.0019788  76.7708240  39.8418955  47.5271112  77.1095513  39.1168275
  46.9142141  75.8355255  39.6582089  38.6639837  80.6842314  51.9708831
  38.9726963  80.4391460  52.8431531  39.4615319  80.8888952  51.4827702
  38.6860449  82.8380223  44.2014208  38.2465439  82.3456602  44.8947065
  39.4368566  82.2953191  43.9606283  31.1652788  79.0291764  44.2038836
  31.9910808  78.7295536  43.8237479  30.8146840  78.2599386  44.6528625
  36.1334321  78.3818232  46.2736510  35.5114330  77.7188937  45.9738737
  36.8039188  78.4079364  45.5910157  29.3661393  76.9478090  45.1627770
  28.5293301  76.5200265  44.9811771  29.3385038  77.1410534  46.0998561
  36.2058848  66.8600020  55.8669016  36.2547004  67.7362143  55.4846785
  36.7481363  66.3177413  55.2940659  35.6947828  76.9322156  39.7494970
  35.8435948  77.6157620  39.0961643  36.5014271  76.9127246  40.2644426
  33.4500461  72.9587333  40.7556039  33.2046503  72.0549663  40.9536249
  33.6196375  72.9604484  39.8135517  41.1397171  63.8311010  50.1380795
  41.6579114  64.5672037  49.8127283  40.7852303  64.1375003  50.9727554
  32.7196108  68.6915691  38.2542200  32.0265353  68.7660046  37.5982236
  32.4747860  67.9276034  38.7763717  41.3909765  60.2511292  45.6581691
  41.6711519  59.5834481  46.2842118  42.1760372  60.4440388  45.1456355
  39.1943233  79.4270286  37.2206717  38.6217200  80.0460473  36.7677189
  39.7676027  79.9769648  37.7546639  42.4140493  79.7107436  38.3515300
  43.3471166  79.6452998  38.5548175  42.3263706  80.5463703  37.8929832
  45.0428510  79.0273307  35.3119247  44.9642141  78.6933170  36.2055005
  45.8638177  79.5195074  35.3110720  39.5790032  70.7631099  34.5622770
  40.5249137  70.6337307  34.6311188  39.2004277  70.0245761  35.0392198
  45.5511916  62.4287105  44.5249662  45.3536737  62.1202193  45.4092994
  46.1611622  63.1548744  44.6547592  37.7632949  68.6881075  34.4977655
  36.8564404  68.3914188  34.5740369  38.0408930  68.3910893  33.6311941
  28.6810889  70.0087439  44.9476702  28.3613674  69.1552747  44.6551076
  28.1344318  70.2236017  45.7034669  32.4590797  72.7249880  48.6646208
  32.6776807  73.6566987  48.6834242  32.8716571  72.3657854  49.4501012
  39.3795015  63.2317965  40.6521896  38.5695743  62.8865050  41.0277143
  40.0679432  62.9225509  41.2409508  41.3085563  62.3096012  42.2746193
  41.8616602  62.7291465  42.9336216  41.5455649  61.3831760  42.3169149
  37.3318662  68.2983085  58.0548957  37.2315389  69.2477442  57.9861048
  37.1140204  67.9701324  57.1825027  36.5331734  65.5468010  34.6389634
  37.3950898  65.8722909  34.8985452  36.7182078  64.7599506  34.1262700
  28.5499149  73.6290350  46.9169823  27.8562621  73.2144303  46.4039778
  29.2972140  73.6710887  46.3203242  44.6864370  64.4196537  41.7824857
  44.1063039  65.0781341  41.4002910  44.4200303  63.5973881  41.3712275
  43.1367936  63.8201595  43.9846178  43.6367715  63.9318129  43.1760497
  43.7803544  63.5162647  44.6246986  37.1949932  71.7280224  56.8714019
  36.7117014  72.5280584  57.0777908  37.2810871  71.7388169  55.9181463
  30.4635892  73.5608604  44.7935838  30.4406580  73.6596291  43.8417721
  30.7736528  74.4073755  45.1153004  33.1223270  75.6184759  48.9082452
  34.0766523  75.5868701  48.8412384  32.9235793  75.1575383  49.7232678
  33.7122652  74.1885875  51.4753250  34.5315541  74.6829954  51.4988087
  33.9859460  73.2717843  51.4470818  43.4689248  66.5796627  40.8381206
  42.5815103  66.8646278  40.6201400  43.8843237  66.4190391  39.9908483
  31.4773499  81.1604378  45.9252650  31.3427966  80.4004779  45.3590648
  31.0605561  81.8845278  45.4581439  42.6132462  76.3441302  34.9329226
  43.3168312  76.5491304  35.5486881  41.8895110  76.9118064  35.1978309
  43.4430272  72.0951163  41.0531496  43.3865473  72.5519715  40.2139128
  43.9958614  71.3341848  40.8754339  47.2535078  67.8840895  41.8781615
  46.9972012  67.4837531  42.7089823  46.6287946  68.5984689  41.7531754
  34.6342624  82.0573695  46.1371093  34.5175009  83.0019128  46.0349783
  33.8135071  81.7547257  46.5256892  44.5219159  76.7823831  36.9827686
  45.3564763  76.3505030  36.8005160  44.3603502  76.6105845  37.9104580
  44.1765051  73.2855944  38.3484025  44.1213855  73.1200216  37.4072469
  43.5511106  73.9931977  38.5046215  28.9657566  68.5224009  52.1745447
  29.6116430  68.0122963  52.6632672  28.7574717  69.2592690  52.7488872
  37.4861177  62.7864053  37.9269343  37.4739846  63.7305893  38.0837614
  38.3784598  62.6034199  37.6328805  35.6597139  82.7101957  49.3527021
  36.5624385  82.7425568  49.6693516  35.4334509  81.7802408  49.3673357
  37.4150741  81.4632944  46.0137100  36.4646372  81.4634805  45.9001472
  37.7183227  80.7165678  45.4973135  41.3013296  59.3806830  42.1815280
  40.5345692  58.8265317  42.3271963  41.7124001  59.4528699  43.0429432
  33.3055057  65.6691626  56.2720461  34.1686519  65.3128431  56.4823786
  32.7320468  65.3305521  56.9595866  53.1503434  87.2993482  47.0782862
  53.7881844  87.1800230  46.3746203  53.0324277  88.2474326  47.1370815
  49.9593140  87.2520910  47.0144387  49.6211652  87.1361975  46.1264922
  50.8282909  86.8512075  46.9945393  45.8179956  89.1056387  43.0041278
  45.2544821  89.0146324  42.2357566  45.7032351  88.2856291  43.4843771
  50.4412923  88.4055762  52.9730593  50.4301564  88.0108560  52.1011096
  50.6033563  87.6721835  53.5664364  43.3644388  90.6007578  45.8425499
  44.1565680  90.2598403  45.4271798  43.6041038  90.7102553  46.7627652
  51.3979515  92.7727354  38.3155743  50.7467494  93.3581435  37.9289757
  52.1923878  93.3033549  38.3750780  45.3235142  89.8616492  38.7142877
  46.0966018  89.3145479  38.5755753  45.6760541  90.7260741  38.9257339
  47.1620184  91.1892874  51.9209777  46.8710050  92.0938505  51.8056443
  47.7977169  91.2309401  52.6353846  48.0876391  88.5669722  48.5111136
  48.6839964  88.3425745  47.7968099  48.1451363  87.8254468  49.1136584
  47.6601420  86.0209158  36.3461327  47.9126940  85.4990679  35.5844790
  46.7225979  85.8575303  36.4488011  52.7044703  85.0244936  44.1536070
  53.4907792  84.6064359  43.8026487  52.9683407  85.9291028  44.3217719
  52.8754780  90.4617786  38.8524727  52.2400613  90.5352413  39.5645632
  52.5452186  91.0511385  38.1743807  58.1053130  84.9620169  45.0569049
  58.8378302  84.3919386  45.2906878  57.3492485  84.5741770  45.4975555
  47.3797708  87.9237264  38.5485702  47.2633967  87.2482167  39.2166787
  47.4899968  87.4369638  37.7317855  49.7229249  87.3847411  42.2532391
  49.3587457  86.8578032  42.9645313  50.5796365  86.9945880  42.0798877
  49.3634736  82.4137310  37.2493740  49.5309139  83.2817547  37.6164211
  49.1731905  82.5764592  36.3255029  52.1210070  90.8754289  48.9159570
  51.8210793  91.7779328  48.8075378  51.7761129  90.6086473  49.7680723
  45.5722551  87.3268086  44.9496275  44.6473047  87.1944300  45.1573967
  45.8206964  88.1062305  45.4466217  55.5207213  83.3936830  46.5957008
  54.6124091  83.3252238  46.3015769  55.4694809  83.8708774  47.4238833
  49.3423957  84.8694968  38.2340407  49.2223582  85.3152019  39.0725887
  48.6476546  85.2180286  37.6753945  42.9331362  86.9701360  45.7840064
  43.0623743  87.2235839  46.6979476  42.2528813  87.5629068  45.4644719
  47.1030849  97.6398610  41.8830538  47.0254879  98.5906435  41.9619019
  46.4992493  97.2944482  42.5405464  55.0409023  85.3416441  39.0620741
  55.9526879  85.5743828  38.8868438  54.5318670  85.9253485  38.4995819
  47.8494451  87.6211929  54.1009872  48.5909136  88.1596972  53.8244696
  47.1431437  88.2478217  54.2581424  53.3249791  89.7641069  52.6982033
  53.7333147  89.3223479  51.9536666  52.6027053  89.1893696  52.9516226
  49.6780861  84.7013676  50.0715590  50.5242056  85.1253089  50.2150239
  49.6179499  84.0447300  50.7654153  53.6478606  90.3242260  46.4534322
  53.0187468  90.4887974  45.7510390  53.2604268  90.7383869  47.2245286
  57.5267838  91.2596697  43.8078686  56.8418876  91.6395599  43.2575719
  57.6111687  91.8692024  44.5410634  54.7818769  88.9056656  50.4074030
  54.9935664  89.5488416  49.7308411  54.7348517  88.0718973  49.9395960
  49.2006568  90.0616668  43.7184407  49.6644913  90.3404371  42.9289030
  48.9363366  89.1600112  43.5357498  46.0930649  89.6088149  46.6564171
  46.6632006  90.0375418  46.0181655  46.6838760  89.3270734  47.3548356
  48.1375454  86.1839820  40.5273973  48.8399497  86.6360864  40.9947899
  47.8056082  85.5423639  41.1553866  46.5855815  84.7751577  54.9025182
  45.9554476  85.4567858  55.1360579  46.4791903  84.6634658  53.9578320
  41.8800788  84.4423373  45.8291106  41.0899842  84.6980901  45.3531217
  42.3712035  85.2571711  45.9343147  55.8964597  91.7828612  48.5796387
  56.7182041  91.3808799  48.2979069  55.8927000  91.6796846  49.5312503
  43.8315533  84.8067952  42.7874583  43.0346696  84.9186646  43.3058078
  43.6041125  85.1454604  41.9215473  49.6621201  91.3312655  50.7357097
  49.7265633  91.7933062  51.5715269  48.9532124  90.7010020  50.8639407
  40.1638491  84.6953863  48.2606097  40.4146529  85.5800873  48.5263673
  40.6998039  84.5158465  47.4881189  49.3769218  92.9980763  40.6036078
  49.2414893  93.8432298  41.0320926  49.9179031  93.2000040  39.8402012
  45.8636558  79.0772343  57.2650433  45.4703503  78.5238541  57.9398077
  46.6802698  79.3882921  57.6556950  42.8298616  90.5156201  41.1764003
  43.3423136  91.3099451  41.3269568  43.4821328  89.8182491  41.1097604
  44.6393500  93.6321957  43.2586756  44.8160129  94.5539922  43.0707740
  45.4350334  93.3180376  43.6881136  43.9245857  85.6786589  53.1348919
  43.8099372  84.7771846  53.4356018  43.0690375  85.9250286  52.7833736
  51.0037695  93.6204329  54.7336420  50.5601549  92.8340708  54.4157324
  51.6654908  93.8083480  54.0680311  45.7624816  95.1500131  49.2597098
  46.3132241  95.0217194  48.4874092  44.9236292  95.4495020  48.9091991
  53.1018933  93.9007129  52.7617821  53.0837408  94.7216010  52.2698090
  54.0238853  93.7761204  52.9867962  49.5591987  91.4151259  53.6041329
  50.0920324  90.6539547  53.3740637  49.0306068  91.1224910  54.3465484
  40.7947532  88.8444855  41.9523573  41.6322754  89.2541863  41.7357281
  40.9725800  87.9044297  41.9223767  52.6911965  86.5119936  37.6407406
  52.1758588  87.2824540  37.8795794  52.4189273  85.8385072  38.2640468
  50.2759076  81.3569636  42.6992645  49.4200672  80.9676487  42.5198283
  50.6886027  81.4361597  41.8392430  48.0501108  78.9754709  46.1050386
  48.9154105  78.7797518  45.7456276  48.1178617  78.7465061  47.0319743
  57.6646239  89.2652290  39.5760580  56.8875681  88.9263450  39.1315742
  58.3437720  89.2704913  38.9015545  52.4798268  84.3847028  39.4667187
  52.1748403  84.6993177  40.3177331  53.4328710  84.4628448  39.5094520
  50.9244700  90.5437251  41.1160141  50.3966061  89.8090011  40.8033379
  50.4232202  91.3211927  40.8700110  55.9037546  88.7386272  46.2327188
  55.2461220  89.4285533  46.3207316  56.7077945  89.1282704  46.5761174
  45.6563427  81.2056917  43.4766753  46.2307179  80.9832099  42.7439946
  46.2434410  81.2745612  44.2295354  54.7143004  87.0930644  44.2831130
  55.2274886  87.7260636  44.7852839  55.3644228  86.4931840  43.9174490
  45.9833014  83.2361378  37.4962638  45.1470327  83.5736065  37.8171913
  45.8437784  83.1010358  36.5589775  47.9586095  78.0798166  42.2041822
  47.3050507  77.7647183  41.5798437  47.9166569  77.4573907  42.9301645
  49.0697300  88.3617461  34.1195115  48.1624361  88.1306715  34.3186263
  49.5668332  87.5655081  34.3069096  51.9765379  97.0714969  37.0391801
  51.3027077  97.3746665  37.6476758  52.3631201  97.8744049  36.6897258
  51.1923835  84.5680100  46.5289470  50.2746397  84.7895047  46.3711158
  51.6083979  84.6426410  45.6701177  51.9758883  85.9671515  41.6592150
  52.7230702  86.4792913  41.3499272  52.2450473  85.6455568  42.5196544
  50.2485533  88.4630056  38.6419105  49.3396752  88.1789089  38.7391574
  50.2780617  88.8829135  37.7822411  55.4804801  92.0736646  42.4110272
  55.0267128  91.2327556  42.4675463  54.8498767  92.7098044  42.7485052
  54.4237720  83.0028632  43.6410940  53.6860477  82.4906018  43.9721182
  54.6764494  82.5629013  42.8294216  53.9237740  93.9113142  43.3460090
  54.2160714  94.4718200  42.6272456  54.4336360  94.2041703  44.1013249
  40.8173704  86.1835570  42.6234307  40.6198103  85.5904931  41.8985373
  40.2620368  85.8787781  43.3410246  48.7970427  86.0758677  44.7428900
  48.8519037  85.1232513  44.6671377  47.9861629  86.2318116  45.2270198
  49.9461621  90.0038800  35.9807183  49.5081051  89.2874659  35.5212821
  50.6872062  90.2314915  35.4192275  46.7362787  84.6935737  42.5019279
  45.9230653  84.9929907  42.9084471  47.2321781  84.2991425  43.2193761
  48.8871365  94.6893493  44.4353544  48.8447544  94.9154340  43.5062076
  49.8034064  94.4556868  44.5839345  58.0634736  88.2795997  42.0383502
  57.9252634  88.4697593  41.1104691  57.7070955  89.0415380  42.4951553
  46.2276862  82.2654092  48.1180514  46.8676241  82.1242851  47.4203477
  45.3954392  81.9788605  47.7419116  58.0904115  90.3472524  47.0494773
  58.5240622  90.2547813  47.8977827  58.8035696  90.3230024  46.4114789
  47.0037166  91.5656522  44.2315506  47.7977764  91.0706843  44.0298081
  46.2928858  91.0374386  43.8683212  51.8232010  93.9474618  48.5827874
  51.8769033  94.5165554  49.3505590  50.9546792  94.1176503  48.2181911
  43.3119929  85.7099604  40.3075259  42.3817517  85.6484060  40.5245221
  43.4077401  85.1875557  39.5111900  43.2305478  82.2354417  42.8953501
  43.4912296  83.1499750  42.7862661  44.0522651  81.7678860  43.0450113
  44.7030404  83.6492174  50.0652325  45.3753457  83.4409536  49.4164974
  43.8760190  83.4514260  49.6257557  54.0134774  90.5402967  55.1568539
  53.8620280  90.3113519  54.2398623  54.0039453  91.4973569  55.1699884
  50.7820110  88.1134880  50.1414806  51.7112170  88.2646040  49.9683773
  50.3611140  88.2018901  49.2863452  49.5808442  92.1385544  47.9113343
  49.4419527  91.7704329  48.7839281  48.7923038  92.6533184  47.7397301
  50.1756594  97.2394641  39.2538880  50.3508349  96.7682684  40.0684503
  49.4889382  97.8660407  39.4820141  51.1313657  91.5167147  45.3002181
  50.7963490  91.4767917  46.1959831  50.6317603  90.8511863  44.8272591
  45.1057901  86.9234777  50.8254762  44.9677699  86.1915016  51.4266301
  46.0162824  86.8343677  50.5438950  54.0672849  88.8623182  35.5739241
  53.4502019  88.1370010  35.4772293  53.5989337  89.6232542  35.2306315
  47.7340202  86.6354737  50.3138442  48.4439820  85.9947929  50.2725060
  47.6909510  86.8867631  51.2364623  46.4469136  83.6219954  52.1334081
  45.9106493  83.1710693  52.7855678  45.8585844  83.7565863  51.3904546
  44.7417679 100.3884004  46.0278740  44.9814277 101.0202528  46.7057759
  43.8986876 100.0372044  46.3144099  45.8571394  83.0808606  34.6960545
  44.9800861  82.9597407  34.3322792  46.3329148  82.2894684  34.4439434
  37.3773535  87.8685766  44.7902052  38.0644574  87.5547496  44.2023068
  37.2221663  88.7727130  44.5169304  42.1808257  82.7575962  49.2187076
  42.0966446  82.1501632  48.4837486  41.3590963  83.2484980  49.2196572
  49.2545541  96.1963126  48.4320244  49.1815712  97.0018098  48.9439549
  48.8122934  96.3955092  47.6068265  49.0435321  95.4334896  41.9423066
  48.2602842  95.9756576  42.0361290  49.7428066  95.9508876  42.3417307
  52.3531971  81.2429526  44.5857271  52.8500670  80.4899488  44.2658341
  51.5818952  81.2793842  44.0200480  60.2061728  86.9469891  46.2275562
  60.1951604  87.8294607  45.8569496  59.3379107  86.5941442  46.0330100
  51.7144224  96.0949960  50.5878403  52.4272197  96.7297425  50.5154304
  51.2234253  96.1913826  49.7718405  53.4361751  90.0001213  42.1595694
  52.5018030  90.1202675  41.9900399  53.6138420  89.0973680  41.8955704
  48.9366939  83.3846909  44.3128956  48.5664727  82.8317949  45.0009861
  49.4326032  82.7805042  43.7603956  56.8234303  85.8418532  42.6945728
  57.2894755  86.6746524  42.6206031  57.2741803  85.3763514  43.3990987
  46.7656138  93.8444404  51.4083973  47.4665597  94.4780887  51.5613368
  46.2951253  94.1859135  50.6479613  54.8910534  92.1862353  39.6931881
  55.1670378  92.0718948  40.6025755  54.0215033  91.7879838  39.6544054
  54.5657424  86.3989011  49.2336524  53.9128874  86.6464919  48.5788977
  54.9437804  85.5853149  48.8999001  51.5264598  96.4348704  43.3364694
  51.7086992  95.6170360  43.7992446  52.3497584  96.6516397  42.8989584
  51.8606763  95.3616889  40.5979743  52.3894530  94.8509344  39.9849905
  52.1234983  95.0459420  41.4625276  50.6144997  87.1408822  55.7202561
  49.9385634  87.0402951  56.3904936  51.4372631  86.9848036  56.1838558
  42.3623856  93.3780759  48.3415076  42.9477293  92.6324447  48.4742980
  42.1648694  93.6884715  49.2251740  45.2162511  96.4132006  43.3577519
  44.5472887  96.8978134  42.8741559  45.0775381  96.6601227  44.2720897
  36.9541511  85.9486359  47.0619519  36.9925610  85.4149950  47.8556637
  36.4481804  85.4221564  46.4430496  49.3567780  98.4475750  49.9560177
  49.9086088  98.6107371  50.7209262  49.6973973  99.0380187  49.2840202
  44.3332273  80.7950899  50.5582062  44.3973600  81.6565730  50.1459459
  44.2699393  80.1824901  49.8254420  43.8084546  82.8674032  54.2055096
  44.4356584  82.4851109  54.8192620  42.9512464  82.6488234  54.5710788
  40.5850088  84.6750461  40.1373451  40.8803529  83.7661139  40.0840504
  39.6838124  84.6538201  39.8154453  52.4936167  96.3957725  46.9423859
  52.3687307  95.5947465  46.4334805  53.1515258  96.8903919  46.4537829
  44.1144335  82.7506458  46.1200999  43.3930921  83.3642425  45.9808473
  44.9037591  83.2864222  46.0417645  54.5571075  94.1966745  48.5703409
  53.6101411  94.0772096  48.4981736  54.9053849  93.3089243  48.6529671
  46.9170649  80.0860884  52.3941651  47.4405051  80.3323181  53.1567960
  46.6982982  80.9180919  51.9744788  42.3137930  82.3564559  40.2612776
  41.9850636  81.4761938  40.0787882  42.6677301  82.3012227  41.1489165
  51.5617509  93.9919461  44.7707761  51.4142471  93.0636169  44.9515331
  52.3871002  94.0139552  44.2864837  45.4279753  82.6437529  40.6288254
  45.7675826  83.1723450  39.9066862  45.8751874  82.9817935  41.4046820
  55.1651631  94.8148020  45.8572634  56.0898178  94.6090882  45.7197085
  54.9966934  94.5664421  46.7661976  48.1223194  81.0274579  50.0791322
  47.7820014  80.2282392  50.4812001  47.4162200  81.3276290  49.5068155
  47.4147900  81.1412150  38.8281546  48.1356263  81.5193403  38.3245263
  46.7913204  81.8601027  38.9316524  51.5579023  81.8457299  39.7639879
  51.7742637  82.7281937  39.4628707  51.0773090  81.4543512  39.0345521
  46.2978244  84.8043012  46.3410623  46.1522825  85.1183315  47.2334905
  45.8203448  85.4227913  45.7881522  48.1574627  81.7945560  46.3891513
  48.1436196  80.8986654  46.0523811  48.8747055  81.8016224  47.0229799
  50.0100758  82.2282901  48.4344640  49.7518536  83.1499971  48.4328971
  49.4785798  81.8313335  49.1245104  54.9546947  95.3333688  41.2134726
  55.1283824  94.7680110  40.4608578  55.4475838  96.1334583  41.0314216
  40.7723907  87.3448357  49.2798284  40.2277375  88.1208165  49.4118559
  41.6503257  87.6919161  49.1217406  47.5611523  80.6759941  41.6579083
  47.6827434  79.7476587  41.8569970  47.2713566  80.6898627  40.7457398
  60.8086338  88.0970111  42.8325025  61.2517484  87.3477436  42.4344149
  59.9312848  88.0880247  42.4498757  55.9422119  94.6500452  38.3131624
  56.6373024  95.2707145  38.5318939  56.2845269  93.7995803  38.5884002
  41.5589929  86.4718253  52.1728441  40.8171665  86.6200888  52.7593072
  41.2382673  86.7326519  51.3095191  57.8413542  92.1000158  39.8418955
  58.3664867  92.4387430  39.1168275  57.7535895  91.1647173  39.6582089
  49.5033591  96.0134231  51.9708831  49.8120718  95.7683378  52.8431531
  50.3009073  96.2180870  51.4827702  49.5254203  98.1672141  44.2014208
  49.0859193  97.6748520  44.8947065  50.2762320  97.6245109  43.9606283
  42.0046542  94.3583682  44.2038836  42.8304562  94.0587454  43.8237479
  41.6540594  93.5891304  44.6528625  46.9728075  93.7110150  46.2736510
  46.3508085  93.0480855  45.9738737  47.6432942  93.7371282  45.5910157
  40.2055147  92.2770008  45.1627770  39.3687056  91.8492183  44.9811771
  40.1778793  92.4702451  46.0998561  46.5341582  92.2614073  39.7494970
  46.6829703  92.9449538  39.0961643  47.3408026  92.2419163  40.2644426
  60.3519203  89.5675349  45.2247473  61.1866094  90.0065153  45.3885033
  60.4878332  89.0914002  44.4055719  44.2894215  88.2879251  40.7556039
  44.0440257  87.3841581  40.9536249  44.4590130  88.2896401  39.8135517
  43.5589863  84.0207608  38.2542200  42.8659108  84.0951963  37.5982236
  43.3141615  83.2567952  38.7763717  50.0336988  94.7562204  37.2206717
  49.4610955  95.3752391  36.7677189  50.6069781  95.3061565  37.7546639
  56.1012378  84.0020844  49.4053266  57.0529801  84.1018941  49.4265490
  55.9315828  83.2099112  49.9151351  53.2534248  95.0399354  38.3515300
  54.1864921  94.9744916  38.5548175  53.1657460  95.8755621  37.8929832
  55.8822264  94.3565224  35.3119247  55.8035896  94.0225088  36.2055005
  56.7031931  94.8486992  35.3110720  50.4183786  86.0923016  34.5622770
  51.3642891  85.9629225  34.6311188  50.0398031  85.3537678  35.0392198
  58.7294944  84.0138007  48.5653849  58.2133993  83.2296464  48.3783778
  59.6134892  83.6856724  48.7300369  50.3022479  90.1440763  56.0223427
  51.2225488  90.3219362  56.2163473  50.2672062  89.1996808  55.8703126
  48.6026703  84.0172993  34.4977655  47.6958159  83.7206106  34.5740369
  48.8802684  83.7202811  33.6311941  39.5204644  85.3379356  44.9476702
  39.2007428  84.4844664  44.6551076  38.9738072  85.5527934  45.7034669
  43.2984551  88.0541797  48.6646208  43.5170561  88.9858905  48.6834242
  43.7110325  87.6949772  49.4501012  50.2188769  78.5609883  40.6521896
  49.4089497  78.2156968  41.0277143  50.9073186  78.2517426  41.2409508
  47.3725488  80.8759928  34.6389634  48.2344652  81.2014826  34.8985452
  47.5575832  80.0891424  34.1262700  39.3892904  88.9582268  46.9169823
  38.6956375  88.5436221  46.4039778  40.1365895  89.0002804  46.3203242
  55.5258125  79.7488455  41.7824857  54.9456794  80.4073259  41.4002910
  55.2594057  78.9265799  41.3712275  53.9761691  79.1493512  43.9846178
  54.4761469  79.2610047  43.1760497  54.6197299  78.8454565  44.6246986
  48.0343687  87.0572142  56.8714019  47.5510768  87.8572502  57.0777908
  48.1204626  87.0680087  55.9181463  41.3029646  88.8900522  44.7935838
  41.2800334  88.9888209  43.8417721  41.6130283  89.7365672  45.1153004
  43.9617024  90.9476677  48.9082452  44.9160278  90.9160619  48.8412384
  43.7629548  90.4867300  49.7232678  44.5516406  89.5177793  51.4753250
  45.3709295  90.0121871  51.4988087  44.8253214  88.6009761  51.4470818
  54.3083003  81.9088545  40.8381206  53.4208858  82.1938196  40.6201400
  54.7236992  81.7482308  39.9908483  57.6597539  81.9335066  44.5535545
  58.4357929  82.4231518  44.8260162  56.9345673  82.3593120  45.0107414
  42.3167253  96.4896296  45.9252650  42.1821721  95.7296697  45.3590648
  41.8999315  97.2137196  45.4581439  53.4526216  91.6733220  34.9329226
  54.1562066  91.8783222  35.5486881  52.7288865  92.2409981  35.1978309
  54.2824026  87.4243081  41.0531496  54.2259228  87.8811632  40.2139128
  54.8352369  86.6633765  40.8754339  58.0928832  83.2132813  41.8781615
  57.8365766  82.8129448  42.7089823  57.4681700  83.9276607  41.7531754
  62.4041170  85.9528886  44.3852907  61.8440728  86.0222075  45.1584469
  61.7984673  85.7769871  43.6652403  45.4736379  97.3865613  46.1371093
  45.3568763  98.3311046  46.0349783  44.6528825  97.0839175  46.5256892
  55.3612913  92.1115749  36.9827686  56.1958517  91.6796947  36.8005160
  55.1997256  91.9397762  37.9104580  55.0158806  88.6147862  38.3484025
  54.9607609  88.4492134  37.4072469  54.3904861  89.3223895  38.5046215
  39.8051321  83.8515926  52.1745447  40.4510184  83.3414880  52.6632672
  39.5968472  84.5884608  52.7488872  48.3254931  78.1155971  37.9269343
  48.3133601  79.0597811  38.0837614  49.2178353  77.9326117  37.6328805
  46.4990893  98.0393875  49.3527021  47.4018140  98.0717485  49.6693516
  46.2728263  97.1094326  49.3673357  48.2544495  96.7924862  46.0137100
  47.3040126  96.7926723  45.9001472  48.5576981  96.0457596  45.4973135
  44.1448812  80.9983544  56.2720461  45.0080273  80.6420348  56.4823786
  43.5714222  80.6597438  56.9595866  63.9897189 102.6285400  47.0782862
  64.6275598 102.5092147  46.3746203  63.8718031 103.5766244  47.1370815
  60.7986895 102.5812828  47.0144387  60.4605406 102.4653893  46.1264922
  61.6676663 102.1803993  46.9945393  56.6573710 104.4348304  43.0041278
  56.0938576 104.3438241  42.2357566  56.5426106 103.6148209  43.4843771
  61.2806678 103.7347680  52.9730593  61.2695319 103.3400478  52.1011096
  61.4427317 103.0013752  53.5664364  54.2038142 105.9299496  45.8425499
  54.9959434 105.5890321  45.4271798  54.4434793 106.0394471  46.7627652
  62.2373269 108.1019272  38.3155743  61.5861249 108.6873353  37.9289757
  63.0317632 108.6325467  38.3750780  56.1628896 105.1908409  38.7142877
  56.9359772 104.6437396  38.5755753  56.5154295 106.0552659  38.9257339
  58.0013939 106.5184792  51.9209777  57.7103805 107.4230422  51.8056443
  58.6370923 106.5601319  52.6353846  58.9270146 103.8961640  48.5111136
  59.5233718 103.6717662  47.7968099  58.9845117 103.1546386  49.1136584
  58.4995174 101.3501075  36.3461327  58.7520695 100.8282597  35.5844790
  57.5619733 101.1867221  36.4488011  63.5438457 100.3536854  44.1536070
  64.3301546  99.9356277  43.8026487  63.8077161 101.2582946  44.3217719
  63.7148534 105.7909704  38.8524727  63.0794367 105.8644331  39.5645632
  63.3845941 106.3803303  38.1743807  68.9446884 100.2912087  45.0569049
  69.6772056  99.7211304  45.2906878  68.1886240  99.9033687  45.4975555
  58.2191463 103.2529181  38.5485702  58.1027721 102.5774085  39.2166787
  58.3293723 102.7661555  37.7317855  60.5623004 102.7139328  42.2532391
  60.1981211 102.1869949  42.9645313  61.4190120 102.3237798  42.0798877
  66.4672304  94.0033661  49.5163658  66.1355629  94.8729072  49.2924873
  65.8717918  93.6869945  50.1957688  60.2028491  97.7429228  37.2493740
  60.3702893  98.6109465  37.6164211  60.0125660  97.9056510  36.3255029
  62.9603824 106.2046207  48.9159570  62.6604547 107.1071246  48.8075378
  62.6154884 105.9378390  49.7680723  56.4116305 102.6560004  44.9496275
  55.4866802 102.5236218  45.1573967  56.6600719 103.4354223  45.4466217
  66.3600968  98.7228747  46.5957008  65.4517845  98.6544156  46.3015769
  66.3088564  99.2000692  47.4238833  60.1817712 100.1986886  38.2340407
  60.0617337 100.6443936  39.0725887  59.4870300 100.5472203  37.6753945
  53.7725117 102.2993277  45.7840064  53.9017498 102.5527756  46.6979476
  53.0922568 102.8920985  45.4644719  57.9424604 112.9690527  41.8830538
  57.8648634 113.9198352  41.9619019  57.3386247 112.6236400  42.5405464
  68.2262614  96.9245186  48.3734882  67.5836994  97.2177719  47.7274676
  67.7217543  96.8098106  49.1788078  65.8802778 100.6708359  39.0620741
  66.7920634 100.9035746  38.8868438  65.3712425 101.2545403  38.4995819
  58.6888206 102.9503846  54.1009872  59.4302890 103.4888890  53.8244696
  57.9825191 103.5770135  54.2581424  64.1643546 105.0932987  52.6982033
  64.5726902 104.6515397  51.9536666  63.4420807 104.5185614  52.9516226
  60.5174616 100.0305593  50.0715590  61.3635811 100.4545007  50.2150239
  60.4573253  99.3739218  50.7654153  64.4872360 105.6534177  46.4534322
  63.8581223 105.8179891  45.7510390  64.0998022 106.0675787  47.2245286
  68.3661592 106.5888615  43.8078686  67.6812630 106.9687516  43.2575719
  68.4505441 107.1983942  44.5410634  65.6212524 104.2348574  50.4074030
  65.8329419 104.8780334  49.7308411  65.5742272 103.4010891  49.9395960
  63.2238753  96.8466395  47.3110602  62.3623232  97.1447648  47.6027339
  63.2501187  97.0636794  46.3791634  60.0400322 105.3908585  43.7184407
  60.5038668 105.6696288  42.9289030  59.7757120 104.4892030  43.5357498
  56.9324403 104.9380067  46.6564171  57.5025760 105.3667335  46.0181655
  57.5232515 104.6562652  47.3548356  58.9769208 101.5131738  40.5273973
  59.6793251 101.9652781  40.9947899  58.6449837 100.8715557  41.1553866
  52.7194542  99.7715290  45.8291106  51.9293596 100.0272819  45.3531217
  53.2105789 100.5863628  45.9343147  66.7358352 107.1120530  48.5796387
  67.5575795 106.7100717  48.2979069  66.7320754 107.0088764  49.5312503
  54.6709287 100.1359870  42.7874583  53.8740451 100.2478564  43.3058078
  54.4434880 100.4746522  41.9215473  60.5014955 106.6604573  50.7357097
  60.5659388 107.1224980  51.5715269  59.7925879 106.0301938  50.8639407
  51.0032245 100.0245781  48.2606097  51.2540283 100.9092791  48.5263673
  51.5391793  99.8450382  47.4881189  74.8264345 103.4559278  44.9281358
  74.0728053 102.8866676  44.7725363  74.9611886 103.4221943  45.8751993
  60.2162973 108.3272680  40.6036078  60.0808648 109.1724216  41.0320926
  60.7572785 108.5291958  39.8402012  53.6692370 105.8448118  41.1764003
  54.1816891 106.6391369  41.3269568  54.3215083 105.1474409  41.1097604
  55.4787255 108.9613875  43.2586756  55.6553883 109.8831839  43.0707740
  56.2744088 108.6472294  43.6881136  54.7639611 101.0078507  53.1348919
  54.6493126 100.1063764  53.4356018  53.9084129 101.2542203  52.7833736
  61.8431449 108.9496247  54.7336420  61.3995303 108.1632625  54.4157324
  62.5048663 109.1375397  54.0680311  56.6018570 110.4792048  49.2597098
  57.1525995 110.3509112  48.4874092  55.7630046 110.7786937  48.9091991
  63.9412687 109.2299047  52.7617821  63.9231163 110.0507928  52.2698090
  64.8632607 109.1053122  52.9867962  60.3985741 106.7443176  53.6041329
  60.9314078 105.9831464  53.3740637  59.8699822 106.4516828  54.3465484
  51.6341287 104.1736773  41.9523573  52.4716509 104.5833781  41.7357281
  51.8119555 103.2336215  41.9223767  63.5305719 101.8411853  37.6407406
  63.0152342 102.6116458  37.8795794  63.2583027 101.1676989  38.2640468
  61.1152830  96.6861554  42.6992645  60.2594426  96.2968405  42.5198283
  61.5279782  96.7653515  41.8392430  58.8894863  94.3046627  46.1050386
  59.7547859  94.1089436  45.7456276  58.9572371  94.0756979  47.0319743
  68.5039993 104.5944208  39.5760580  67.7269436 104.2555367  39.1315742
  69.1831474 104.5996831  38.9015545  63.3192022  99.7138945  39.4667187
  63.0142158 100.0285095  40.3177331  64.2722464  99.7920365  39.5094520
  61.7638454 105.8729169  41.1160141  61.2359816 105.1381928  40.8033379
  61.2625957 106.6503845  40.8700110  66.7431300 104.0678189  46.2327188
  66.0854974 104.7577451  46.3207316  67.5471699 104.4574621  46.5761174
  56.4957182  96.5348835  43.4766753  57.0700934  96.3124017  42.7439946
  57.0828164  96.6037530  44.2295354  65.5536759 102.4222562  44.2831130
  66.0668641 103.0552554  44.7852839  66.2037983 101.8223757  43.9174490
  56.8226769  98.5653296  37.4962638  55.9864081  98.9027983  37.8171913
  56.6831538  98.4302276  36.5589775  58.7979849  93.4090084  42.2041822
  58.1444262  93.0939101  41.5798437  58.7560323  92.7865824  42.9301645
  59.9091054 103.6909379  34.1195115  59.0018116 103.4598632  34.3186263
  60.4062086 102.8946998  34.3069096  62.8159133 112.4006886  37.0391801
  62.1420832 112.7038583  37.6476758  63.2024955 113.2035967  36.6897258
  62.0317590  99.8972017  46.5289470  61.1140151 100.1186964  46.3711158
  62.4477733  99.9718328  45.6701177  62.8152637 101.2963433  41.6592150
  63.5624456 101.8084830  41.3499272  63.0844227 100.9747486  42.5196544
  61.0879288 103.7921974  38.6419105  60.1790507 103.5081007  38.7391574
  61.1174371 104.2121052  37.7822411  66.3198555 107.4028563  42.4110272
  65.8660882 106.5619473  42.4675463  65.6892522 108.0389962  42.7485052
  65.2631475  98.3320549  43.6410940  64.5254231  97.8197936  43.9721182
  65.5158248  97.8920931  42.8294216  64.7631494 109.2405060  43.3460090
  65.0554469 109.8010117  42.6272456  65.2730115 109.5333621  44.1013249
  65.3643102  91.1096801  44.2352709  65.6701979  90.2494165  43.9478624
  66.0895707  91.7014422  44.0351703  51.6567458 101.5127488  42.6234307
  51.4591858 100.9196849  41.8985373  51.1014122 101.2079698  43.3410246
  59.6364182 101.4050594  44.7428900  59.6912791 100.4524431  44.6671377
  58.8255384 101.5610034  45.2270198  60.7855375 105.3330718  35.9807183
  60.3474805 104.6166576  35.5212821  61.5265816 105.5606832  35.4192275
  57.5756542 100.0227654  42.5019279  56.7624407 100.3221825  42.9084471
  58.0715536  99.6283343  43.2193761  59.7265119 110.0185411  44.4353544
  59.6841298 110.2446257  43.5062076  60.6427818 109.7848786  44.5839345
  68.9028490 103.6087915  42.0383502  68.7646389 103.7989511  41.1104691
  68.5464709 104.3707297  42.4951553  57.0670616  97.5946010  48.1180514
  57.7069996  97.4534769  47.4203477  56.2348147  97.3080523  47.7419116
  68.9297870 105.6764442  47.0494773  69.3634377 105.5839731  47.8977827
  69.6429451 105.6521942  46.4114789  57.8430920 106.8948440  44.2315506
  58.6371519 106.3998760  44.0298081  57.1322613 106.3666303  43.8683212
  62.6625765 109.2766536  48.5827874  62.7162787 109.8457472  49.3505590
  61.7940546 109.4468421  48.2181911  54.1513684 101.0391522  40.3075259
  53.2211272 100.9775977  40.5245221  54.2471156 100.5167475  39.5111900
  54.0699233  97.5646335  42.8953501  54.3306050  98.4791668  42.7862661
  54.8916405  97.0970777  43.0450113  55.5424158  98.9784092  50.0652325
  56.2147212  98.7701454  49.4164974  54.7153945  98.7806178  49.6257557
  69.7913419 105.7188142  49.5827659  69.9849309 106.6233953  49.8286934
  69.6914038 105.2595561  50.4166244  64.8528528 105.8694885  55.1568539
  64.7014034 105.6405437  54.2398623  64.8433208 106.8265486  55.1699884
  61.6213864 103.4426798  50.1414806  62.5505924 103.5937957  49.9683773
  61.2004895 103.5310819  49.2863452  60.4202196 107.4677462  47.9113343
  60.2813282 107.0996247  48.7839281  59.6316793 107.9825102  47.7397301
  61.0150348 112.5686559  39.2538880  61.1902104 112.0974602  40.0684503
  60.3283136 113.1952325  39.4820141  61.9707411 106.8459065  45.3002181
  61.6357244 106.8059835  46.1959831  61.4711357 106.1803781  44.8272591
  55.9451655 102.2526695  50.8254762  55.8071453 101.5206934  51.4266301
  56.8556579 102.1635595  50.5438950  64.9066603 104.1915099  35.5739241
  64.2895774 103.4661927  35.4772293  64.4383092 104.9524459  35.2306315
  58.5733956 101.9646654  50.3138442  59.2833575 101.3239846  50.2725060
  58.5303264 102.2159549  51.2364623  66.5620735 108.9014008  53.2345021
  66.5033281 108.2173228  52.5675604  66.9640253 109.6432998  52.7825647
  55.5811434 115.7175921  46.0278740  55.8208032 116.3494446  46.7057759
  54.7380630 115.3663961  46.3144099  56.6965149  98.4100524  34.6960545
  55.8194615  98.2889324  34.3322792  57.1722902  97.6186602  34.4439434
  66.5638142 106.8653591  51.4659001  65.6764921 106.5279513  51.5885400
  67.1336693 106.1336623  51.7027766  48.2167289 103.1977683  44.7902052
  48.9038329 102.8839413  44.2023068  48.0615418 104.1019048  44.5169304
  53.0202011  98.0867880  49.2187076  52.9360200  97.4793549  48.4837486
  52.1984718  98.5776898  49.2196572  60.0939295 111.5255044  48.4320244
  60.0209467 112.3310015  48.9439549  59.6516688 111.7247010  47.6068265
  59.8829075 110.7626814  41.9423066  59.0996597 111.3048494  42.0361290
  60.5821820 111.2800794  42.3417307  63.1925725  96.5721443  44.5857271
  63.6894425  95.8191406  44.2658341  62.4212707  96.6085760  44.0200480
  71.0455483 102.2761809  46.2275562  71.0345359 103.1586524  45.8569496
  70.1772862 101.9233360  46.0330100  62.5537979 111.4241878  50.5878403
  63.2665951 112.0589343  50.5154304  62.0628008 111.5205744  49.7718405
  64.2755506 105.3293131  42.1595694  63.3411785 105.4494593  41.9900399
  64.4532174 104.4265597  41.8955704  59.7760694  98.7138826  44.3128956
  59.4058481  98.1609867  45.0009861  60.2719786  98.1096960  43.7603956
  67.6628057 101.1710450  42.6945728  68.1288509 102.0038441  42.6206031
  68.1135558 100.7055431  43.3990987  57.6049892 109.1736321  51.4083973
  58.3059352 109.8072804  51.5613368  57.1345007 109.5151053  50.6479613
  65.7304288 107.5154271  39.6931881  66.0064132 107.4010866  40.6025755
  64.8608787 107.1171756  39.6544054  65.6344720  93.5391037  46.7336630
  64.7207800  93.7695264  46.9018837  66.0637821  93.6229481  47.5850662
  65.4051178 101.7280929  49.2336524  64.7522629 101.9756836  48.5788977
  65.7831558 100.9145067  48.8999001  62.3658352 111.7640622  43.3364694
  62.5480747 110.9462278  43.7992446  63.1891338 111.9808314  42.8989584
  62.7000518 110.6908807  40.5979743  63.2288284 110.1801262  39.9849905
  62.9628737 110.3751337  41.4625276  61.4538751 102.4700740  55.7202561
  60.7779388 102.3694869  56.3904936  62.2766385 102.3139954  56.1838558
  53.2017611 108.7072676  48.3415076  53.7871047 107.9616364  48.4742980
  53.0042449 109.0176633  49.2251740  56.0556266 111.7423924  43.3577519
  55.3866641 112.2270051  42.8741559  55.9169135 111.9893144  44.2720897
  47.7935265 101.2778277  47.0619519  47.8319365 100.7441867  47.8556637
  47.2875558 100.7513482  46.4430496  60.1961534 113.7767667  49.9560177
  60.7479842 113.9399289  50.7209262  60.5367728 114.3672105  49.2840202
  65.0472409 108.6028925  55.8108831  65.5912313 109.2158883  55.3163786
  64.4659253 109.1608503  56.3275844  51.4243843 100.0042379  40.1373451
  51.7197284  99.0953057  40.0840504  50.5231879  99.9830118  39.8154453
  63.3329922 111.7249643  46.9423859  63.2081061 110.9239383  46.4334805
  63.9909013 112.2195836  46.4537829  54.9538090  98.0798375  46.1200999
  54.2324676  98.6934343  45.9808473  55.7431346  98.6156140  46.0417645
  65.3964830 109.5258663  48.5703409  64.4495166 109.4064014  48.4981736
  65.7447603 108.6381161  48.6529671  53.1531684  97.6856476  40.2612776
  52.8244391  96.8053855  40.0787882  53.5071055  97.6304145  41.1489165
  62.4011263 109.3211379  44.7707761  62.2536226 108.3928087  44.9515331
  63.2264757 109.3431470  44.2864837  56.2673508  97.9729446  40.6288254
  56.6069580  98.5015367  39.9066862  56.7145628  98.3109852  41.4046820
  66.0045385 110.1439938  45.8572634  66.9291933 109.9382799  45.7197085
  65.8360688 109.8956339  46.7661976  58.2541655  96.4704068  38.8281546
  58.9750017  96.8485321  38.3245263  57.6306959  97.1892945  38.9316524
  62.3972778  97.1749217  39.7639879  62.6136392  98.0573855  39.4628707
  61.9166845  96.7835430  39.0345521  57.1371999 100.1334930  46.3410623
  56.9916580 100.4475233  47.2334905  56.6597203 100.7519830  45.7881522
  58.9968382  97.1237478  46.3891513  58.9829951  96.2278571  46.0523811
  59.7140810  97.1308142  47.0229799  60.8494513  97.5574818  48.4344640
  60.5912290  98.4791889  48.4328971  60.3179553  97.1605253  49.1245104
  65.7940701 110.6625605  41.2134726  65.9677579 110.0972028  40.4608578
  66.2869593 111.4626500  41.0314216  51.6117661 102.6740274  49.2798284
  51.0671129 103.4500082  49.4118559  52.4897011 103.0211079  49.1217406
  58.4005278  96.0051858  41.6579083  58.5221189  95.0768504  41.8569970
  58.1107320  96.0190544  40.7457398  61.2696468  93.6906769  44.7945803
  61.2918165  93.7546102  43.8397782  61.6864527  92.8511277  44.9886309
  71.6480093 103.4262028  42.8325025  72.0911239 102.6769353  42.4344149
  70.7706603 103.4172165  42.4498757  66.7815874 109.9792370  38.3131624
  67.4766778 110.5999062  38.5318939  67.1239024 109.1287721  38.5884002
  52.3983683 101.8010171  52.1728441  51.6565419 101.9492806  52.7593072
  52.0776427 102.0618436  51.3095191  68.6807297 107.4292075  39.8418955
  69.2058621 107.7679348  39.1168275  68.5929649 106.4939091  39.6582089
  60.3427346 111.3426149  51.9708831  60.6514472 111.0975296  52.8431531
  61.1402828 111.5472787  51.4827702  60.3647958 113.4964059  44.2014208
  59.9252948 113.0040437  44.8947065  61.1156075 112.9537026  43.9606283
  52.8440297 109.6875599  44.2038836  53.6698317 109.3879371  43.8237479
  52.4934349 108.9183222  44.6528625  57.8121830 109.0402068  46.2736510
  57.1901839 108.3772773  45.9738737  58.4826697 109.0663199  45.5910157
  51.0448902 107.6061926  45.1627770  50.2080810 107.1784100  44.9811771
  51.0172547 107.7994369  46.0998561  68.3701203 108.0624979  55.1470153
  67.5796747 108.0449118  54.6074652  68.1334558 108.6013273  55.9019189
  68.4899078 104.9117445  52.4602881  68.5397083 104.7467453  53.4018404
  68.3813001 104.0444704  52.0700762  57.3735337 107.5905991  39.7494970
  57.5223457 108.2741455  39.0961643  58.1801780 107.5711081  40.2644426
  65.7802840 100.8948373  53.7762188  66.6812703 100.7554838  53.4846186
  65.8550815 101.0602828  54.7160365  69.9917275 107.3314387  52.7044903
  69.7002083 107.6944367  53.5408364  69.3789406 106.6181395  52.5258235
  71.1912957 104.8967267  45.2247473  72.0259849 105.3357071  45.3885033
  71.3272086 104.4205920  44.4055719  68.2404463 102.4547001  51.1724961
  68.7158585 102.6474648  50.3643812  67.3170029 102.5106187  50.9268344
  55.1287970 103.6171169  40.7556039  54.8834012 102.7133499  40.9536249
  55.2983884 103.6188319  39.8135517  54.3983617  99.3499526  38.2542200
  53.7052862  99.4243881  37.5982236  54.1535369  98.5859870  38.7763717
  63.0697274  90.9095127  45.6581691  63.3499028  90.2418317  46.2842118
  63.8547881  91.1024223  45.1456355  60.8730742 110.0854121  37.2206717
  60.3004709 110.7044309  36.7677189  61.4463536 110.6353483  37.7546639
  66.9406132  99.3312761  49.4053266  67.8923555  99.4310859  49.4265490
  66.7709583  98.5391030  49.9151351  64.9620512  96.4168345  49.5912667
  64.3670444  96.6973357  48.8959156  64.6770208  96.9062246  50.3629408
  64.0928002 110.3691272  38.3515300  65.0258675 110.3036833  38.5548175
  64.0051215 111.2047538  37.8929832  66.7216019 109.6857142  35.3119247
  66.6429650 109.3517005  36.2055005  67.5425686 110.1778910  35.3110720
  69.4194210 102.5518881  48.5195566  69.3870530 101.6134882  48.7055250
  70.0294834 102.6302918  47.7861391  61.2577541 101.4214934  34.5622770
  62.2036645 101.2921142  34.6311188  60.8791786 100.6829596  35.0392198
  69.5688698  99.3429925  48.5653849  69.0527747  98.5588381  48.3783778
  70.4528647  99.0148641  48.7300369  67.2299425  93.0870940  44.5249662
  67.0324246  92.7786028  45.4092994  67.8399131  93.8132579  44.6547592
  75.2370760 103.6134888  47.6601603  75.9674148 103.3520176  48.2209306
  74.6277705 102.8763610  47.7003671  73.3186057 101.7542751  48.2576054
  72.5919220 101.6198716  47.6492546  72.9033344 102.0619579  49.0632772
  61.1416233 105.4732680  56.0223427  62.0619243 105.6511279  56.2163473
  61.1065816 104.5288726  55.8703126  59.4420458  99.3464911  34.4977655
  58.5351913  99.0498023  34.5740369  59.7196439  99.0494729  33.6311941
  50.3598398 100.6671274  44.9476702  50.0401183  99.8136582  44.6551076
  49.8131826 100.8819852  45.7034669  54.1378306 103.3833715  48.6646208
  54.3564316 104.3150823  48.6834242  54.5504080 103.0241689  49.4501012
  61.0582524  93.8901800  40.6521896  60.2483252  93.5448885  41.0277143
  61.7466941  93.5809344  41.2409508  62.9873072  92.9679847  42.2746193
  63.5404111  93.3875300  42.9336216  63.2243158  92.0415595  42.3169149
  59.0106171  98.9566921  58.0548957  58.9102898  99.9061278  57.9861048
  58.7927713  98.6285160  57.1825027  58.2119243  96.2051846  34.6389634
  59.0738407  96.5306744  34.8985452  58.3969587  95.4183342  34.1262700
  50.2286658 104.2874185  46.9169823  49.5350130 103.8728138  46.4039778
  50.9759649 104.3294722  46.3203242  66.3651879  95.0780372  41.7824857
  65.7850548  95.7365176  41.4002910  66.0987812  94.2557717  41.3712275
  64.8155445  94.4785430  43.9846178  65.3155224  94.5901964  43.1760497
  65.4591053  94.1746483  44.6246986  58.8737441 102.3864060  56.8714019
  58.3904523 103.1864420  57.0777908  58.9598380 102.3972004  55.9181463
  52.1423401 104.2192439  44.7935838  52.1194089 104.3180126  43.8417721
  52.4524037 105.0657590  45.1153004  54.8010779 106.2768594  48.9082452
  55.7554032 106.2452537  48.8412384  54.6023302 105.8159218  49.7232678
  55.3910161 104.8469710  51.4753250  56.2103050 105.3413789  51.4988087
  55.6646969 103.9301678  51.4470818  65.1476757  97.2380463  40.8381206
  64.2602612  97.5230113  40.6201400  65.5630746  97.0774226  39.9908483
  68.4991293  97.2626984  44.5535545  69.2751683  97.7523436  44.8260162
  67.7739427  97.6885038  45.0107414  70.9363852  97.9754603  45.6109486
  71.5308343  97.7350339  44.9002794  71.0090436  97.2561733  46.2383022
  53.1561008 111.8188214  45.9252650  53.0215475 111.0588615  45.3590648
  52.7393070 112.5429114  45.4581439  64.2919971 107.0025137  34.9329226
  64.9955821 107.2075140  35.5486881  63.5682619 107.5701899  35.1978309
  65.1217781 102.7534999  41.0531496  65.0652982 103.2103550  40.2139128
  65.6746123 101.9925683  40.8754339  68.9322587  98.5424730  41.8781615
  68.6759521  98.1421366  42.7089823  68.3075455  99.2568524  41.7531754
  73.2434925 101.2820804  44.3852907  72.6834483 101.3513993  45.1584469
  72.6378428 101.1061788  43.6652403  56.3130133 112.7157531  46.1371093
  56.1962518 113.6602963  46.0349783  55.4922580 112.4131092  46.5256892
  66.2006668 107.4407666  36.9827686  67.0352272 107.0088865  36.8005160
  66.0391011 107.2689680  37.9104580  65.8552560 103.9439780  38.3484025
  65.8001364 103.7784051  37.4072469  65.2298615 104.6515813  38.5046215
  50.6445075  99.1807844  52.1745447  51.2903939  98.6706798  52.6632672
  50.4362226  99.9176526  52.7488872  63.1698467 106.2488692  57.6737588
  64.0389627 106.4229344  57.3124223  62.6905219 107.0683108  57.5513317
  59.1648686  93.4447889  37.9269343  59.1527355  94.3889729  38.0837614
  60.0572107  93.2618034  37.6328805  57.3384648 113.3685793  49.3527021
  58.2411894 113.4009403  49.6693516  57.1122018 112.4386244  49.3673357
  59.0938250 112.1216779  46.0137100  58.1433881 112.1218641  45.9001472
  59.3970736 111.3749514  45.4973135  62.9800805  90.0390665  42.1815280
  62.2133201  89.4849152  42.3271963  63.3911510  90.1112534  43.0429432
  74.8290943 117.9577318  47.0782862  75.4669353 117.8384065  46.3746203
  74.7111786 118.9058162  47.1370815  71.6380649 117.9104746  47.0144387
  71.2999161 117.7945810  46.1264922  72.5070417 117.5095911  46.9945393
  67.4967465 119.7640222  43.0041278  66.9332330 119.6730159  42.2357566
  67.3819860 118.9440127  43.4843771  72.1200432 119.0639597  52.9730593
  72.1089073 118.6692396  52.1011096  72.2821072 118.3305670  53.5664364
  65.0431897 121.2591414  45.8425499  65.8353189 120.9182238  45.4271798
  65.2828547 121.3686389  46.7627652  73.0767024 123.4311190  38.3155743
  72.4255003 124.0165270  37.9289757  73.8711387 123.9617385  38.3750780
  67.0022651 120.5200327  38.7142877  67.7753527 119.9729314  38.5755753
  67.3548050 121.3844576  38.9257339  68.8407693 121.8476709  51.9209777
  68.5497559 122.7522340  51.8056443  69.4764678 121.8893237  52.6353846
  69.7663900 119.2253558  48.5111136  70.3627473 119.0009580  47.7968099
  69.8238872 118.4838303  49.1136584  69.3388929 116.6792993  36.3461327
  69.5914449 116.1574514  35.5844790  68.4013488 116.5159139  36.4488011
  74.3832211 115.6828771  44.1536070  75.1695301 115.2648195  43.8026487
  74.6470916 116.5874864  44.3217719  74.5542289 121.1201622  38.8524727
  73.9188122 121.1936248  39.5645632  74.2239695 121.7095221  38.1743807
  79.7840639 115.6204005  45.0569049  80.5165811 115.0503221  45.2906878
  79.0279994 115.2325605  45.4975555  69.0585217 118.5821099  38.5485702
  68.9421476 117.9066002  39.2166787  69.1687477 118.0953473  37.7317855
  71.4016758 118.0431246  42.2532391  71.0374966 117.5161867  42.9645313
  72.2583874 117.6529715  42.0798877  77.3066059 109.3325579  49.5163658
  76.9749384 110.2020990  49.2924873  76.7111672 109.0161863  50.1957688
  71.0422245 113.0721146  37.2493740  71.2096648 113.9401382  37.6164211
  70.8519414 113.2348428  36.3255029  73.7997579 121.5338125  48.9159570
  73.4998302 122.4363164  48.8075378  73.4548638 121.2670308  49.7680723
  67.2510060 117.9851922  44.9496275  66.3260556 117.8528136  45.1573967
  67.4994473 118.7646141  45.4466217  77.1994722 114.0520665  46.5957008
  76.2911600 113.9836073  46.3015769  77.1482318 114.5292610  47.4238833
  71.0211466 115.5278803  38.2340407  70.9011091 115.9735854  39.0725887
  70.3264055 115.8764121  37.6753945  64.6118871 117.6285195  45.7840064
  64.7411252 117.8819674  46.6979476  63.9316322 118.2212903  45.4644719
  68.7818358 128.2982445  41.8830538  68.7042388 129.2490270  41.9619019
  68.1780002 127.9528318  42.5405464  71.2735588 115.4710310  54.5391905
  70.4968922 116.0304231  54.5294770  71.9126151 115.9567093  55.0606775
  79.0656369 112.2537103  48.3734882  78.4230749 112.5469636  47.7274676
  78.5611297 112.1390024  49.1788078  76.7196532 116.0000277  39.0620741
  77.6314388 116.2327663  38.8868438  76.2106179 116.5837321  38.4995819
  69.5281960 118.2795764  54.1009872  70.2696645 118.8180808  53.8244696
  68.8218946 118.9062053  54.2581424  75.0037300 120.4224904  52.6982033
  75.4120656 119.9807315  51.9536666  74.2814562 119.8477532  52.9516226
  71.3568370 115.3597511  50.0715590  72.2029565 115.7836925  50.2150239
  71.2967008 114.7031135  50.7654153  75.3266115 120.9826095  46.4534322
  74.6974977 121.1471809  45.7510390  74.9391777 121.3967705  47.2245286
  79.2055347 121.9180533  43.8078686  78.5206385 122.2979434  43.2575719
  79.2899196 122.5275859  44.5410634  74.5067815 113.0201879  51.7296764
  74.2628747 113.7743940  51.1931040  74.7827746 113.3987227  52.5644011
  76.4606278 119.5640492  50.4074030  76.6723173 120.2072252  49.7308411
  76.4136026 118.7302808  49.9395960  74.0632507 112.1758312  47.3110602
  73.2016986 112.4739566  47.6027339  74.0894942 112.3928711  46.3791634
  70.8794077 120.7200503  43.7184407  71.3432422 120.9988206  42.9289030
  70.6150875 119.8183948  43.5357498  67.7718158 120.2671985  46.6564171
  68.3419515 120.6959253  46.0181655  68.3626269 119.9854569  47.3548356
  69.8162963 116.8423655  40.5273973  70.5187006 117.2944699  40.9947899
  69.4843591 116.2007474  41.1553866  68.2643324 115.4335412  54.9025182
  67.6341985 116.1151693  55.1360579  68.1579412 115.3218494  53.9578320
  63.5588297 115.1007208  45.8291106  62.7687351 115.3564737  45.3531217
  64.0499544 115.9155546  45.9343147  77.5752106 122.4412447  48.5796387
  78.3969550 122.0392635  48.2979069  77.5714509 122.3380681  49.5312503
  65.5103042 115.4651787  42.7874583  64.7134205 115.5770482  43.3058078
  65.2828634 115.8038440  41.9215473  71.3408710 121.9896491  50.7357097
  71.4053142 122.4516898  51.5715269  70.6319633 121.3593855  50.8639407
  61.8426000 115.3537699  48.2606097  62.0934038 116.2384708  48.5263673
  62.3785548 115.1742300  47.4881189  85.6658099 118.7851196  44.9281358
  84.9121808 118.2158594  44.7725363  85.8005640 118.7513860  45.8751993
  71.0556727 123.6564598  40.6036078  70.9202402 124.5016134  41.0320926
  71.5966540 123.8583876  39.8402012  67.5424067 109.7356178  57.2650433
  67.1491012 109.1822376  57.9398077  68.3590207 110.0466756  57.6556950
  64.5086125 121.1740036  41.1764003  65.0210645 121.9683286  41.3269568
  65.1608837 120.4766327  41.1097604  66.3181009 124.2905792  43.2586756
  66.4947638 125.2123757  43.0707740  67.1137843 123.9764212  43.6881136
  70.4592028 111.1514057  54.8570690  71.2001741 111.7521210  54.7775152
  70.6909951 110.4091695  54.2988732  65.6033366 116.3370424  53.1348919
  65.4886881 115.4355681  53.4356018  64.7477884 116.5834121  52.7833736
  72.6825204 124.2788165  54.7336420  72.2389058 123.4924543  54.4157324
  73.3442417 124.4667315  54.0680311  67.4412325 125.8083966  49.2597098
  67.9919750 125.6801029  48.4874092  66.6023801 126.1078855  48.9091991
  74.7806442 124.5590964  52.7617821  74.7624917 125.3799846  52.2698090
  75.7026362 124.4345040  52.9867962  71.2379496 122.0735094  53.6041329
  71.7707833 121.3123382  53.3740637  70.7093577 121.7808746  54.3465484
  74.4049191 107.1795160  49.1334971  74.0613460 108.0696802  49.0574082
  74.7728153 106.9896818  48.2704556  62.4735041 119.5028690  41.9523573
  63.3110263 119.9125699  41.7357281  62.6513309 118.5628133  41.9223767
  74.3699474 117.1703771  37.6407406  73.8546097 117.9408376  37.8795794
  74.0976782 116.4968907  38.2640468  71.9546585 112.0153472  42.6992645
  71.0988181 111.6260322  42.5198283  72.3673536 112.0945433  41.8392430
  73.4845731 109.5499815  47.0984204  72.9810527 109.5129950  46.2852010
  73.7776338 110.4592558  47.1580861  69.7288617 109.6338545  46.1050386
  70.5941614 109.4381353  45.7456276  69.7966126 109.4048897  47.0319743
  79.3433748 119.9236126  39.5760580  78.5663190 119.5847285  39.1315742
  80.0225229 119.9288749  38.9015545  74.1585777 115.0430863  39.4667187
  73.8535912 115.3577012  40.3177331  75.1116219 115.1212283  39.5094520
  72.6032209 121.2021086  41.1160141  72.0753570 120.4673846  40.8033379
  72.1019711 121.9795763  40.8700110  77.5825055 119.3970107  46.2327188
  76.9248729 120.0869368  46.3207316  78.3865454 119.7866539  46.5761174
  67.3350936 111.8640753  43.4766753  67.9094688 111.6415934  42.7439946
  67.9221919 111.9329447  44.2295354  76.3930513 117.7514480  44.2831130
  76.9062395 118.3844471  44.7852839  77.0431737 117.1515675  43.9174490
  67.6620523 113.8945214  37.4962638  66.8257836 114.2319900  37.8171913
  67.5225293 113.7594194  36.5589775  69.6373604 108.7382002  42.2041822
  68.9838016 108.4231019  41.5798437  69.5954078 108.1157742  42.9301645
  70.7484809 119.0201297  34.1195115  69.8411870 118.7890550  34.3186263
  71.2455841 118.2238916  34.3069096  73.6552888 127.7298804  37.0391801
  72.9814586 128.0330501  37.6476758  74.0418710 128.5327884  36.6897258
  72.8711344 115.2263935  46.5289470  71.9533906 115.4478882  46.3711158
  73.2871488 115.3010246  45.6701177  73.6546392 116.6255351  41.6592150
  74.4018211 117.1376748  41.3499272  73.9237982 116.3039404  42.5196544
  71.9273042 119.1213892  38.6419105  71.0184261 118.8372924  38.7391574
  71.9568126 119.5412970  37.7822411  77.1592310 122.7320481  42.4110272
  76.7054637 121.8911391  42.4675463  76.5286276 123.3681879  42.7485052
  76.1025229 113.6612467  43.6410940  75.3647986 113.1489853  43.9721182
  76.3552003 113.2212849  42.8294216  75.6025249 124.5696978  43.3460090
  75.8948223 125.1302035  42.6272456  76.1123869 124.8625539  44.1013249
  76.2036856 106.4388719  44.2352709  76.5095733 105.5786083  43.9478624
  76.9289461 107.0306339  44.0351703  62.4961213 116.8419406  42.6234307
  62.2985612 116.2488766  41.8985373  61.9407877 116.5371616  43.3410246
  70.4757936 116.7342512  44.7428900  70.5306546 115.7816349  44.6671377
  69.6649138 116.8901951  45.2270198  71.6249130 120.6622635  35.9807183
  71.1868560 119.9458494  35.5212821  72.3659571 120.8898750  35.4192275
  68.4150296 115.3519572  42.5019279  67.6018162 115.6513742  42.9084471
  68.9109290 114.9575261  43.2193761  70.5658874 125.3477329  44.4353544
  70.5235053 125.5738175  43.5062076  71.4821573 125.1140703  44.5839345
  74.0124508 115.8161396  51.3334173  74.3673896 116.0432870  52.1928638
  74.6596639 116.1479773  50.7111428  79.7422245 118.9379832  42.0383502
  79.6040143 119.1281428  41.1104691  79.3858464 119.6999215  42.4951553
  67.9064371 112.9237927  48.1180514  68.5463750 112.7826687  47.4203477
  67.0741901 112.6372441  47.7419116  79.7691624 121.0056359  47.0494773
  80.2028131 120.9131648  47.8977827  80.4823205 120.9813860  46.4114789
  68.6824675 122.2240358  44.2315506  69.4765273 121.7290678  44.0298081
  67.9716367 121.6958221  43.8683212  73.5019519 124.6058453  48.5827874
  73.5556542 125.1749390  49.3505590  72.6334301 124.7760338  48.2181911
  64.9907438 116.3683440  40.3075259  64.0605026 116.3067895  40.5245221
  65.0864910 115.8459392  39.5111900  64.9092987 112.8938252  42.8953501
  65.1699805 113.8083586  42.7862661  65.7310160 112.4262695  43.0450113
  66.3817913 114.3076010  50.0652325  67.0540966 114.0993372  49.4164974
  65.5547699 114.1098096  49.6257557  80.6307174 121.0480060  49.5827659
  80.8243064 121.9525870  49.8286934  80.5307792 120.5887479  50.4166244
  72.2843485 110.9337951  52.0817986  71.6371400 111.6327900  51.9882462
  73.0544500 111.3674094  52.4494234  75.6922283 121.1986803  55.1568539
  75.5407789 120.9697354  54.2398623  75.6826962 122.1557404  55.1699884
  72.4607619 118.7718715  50.1414806  73.3899679 118.9229875  49.9683773
  72.0398649 118.8602736  49.2863452  71.2595951 122.7969380  47.9113343
  71.1207036 122.4288164  48.7839281  70.4710547 123.3117019  47.7397301
  71.8544103 127.8978476  39.2538880  72.0295858 127.4266519  40.0684503
  71.1676891 128.5244243  39.4820141  72.8101166 122.1750983  45.3002181
  72.4750999 122.1351753  46.1959831  72.3105112 121.5095698  44.8272591
  66.7845410 117.5818613  50.8254762  66.6465208 116.8498851  51.4266301
  67.6950333 117.4927513  50.5438950  75.7460358 119.5207017  35.5739241
  75.1289528 118.7953845  35.4772293  75.2776846 120.2816377  35.2306315
  69.4127711 117.2938572  50.3138442  70.1227329 116.6531764  50.2725060
  69.3697019 117.5451467  51.2364623  77.4014489 124.2305925  53.2345021
  77.3427035 123.5465145  52.5675604  77.8034008 124.9724915  52.7825647
  68.1256645 114.2803790  52.1334081  67.5894002 113.8294528  52.7855678
  67.5373353 114.4149699  51.3904546  66.4205188 131.0467839  46.0278740
  66.6601786 131.6786363  46.7057759  65.5774384 130.6955879  46.3144099
  67.5358903 113.7392441  34.6960545  66.6588370 113.6181242  34.3322792
  68.0116657 112.9478519  34.4439434  77.4031896 122.1945509  51.4659001
  76.5158675 121.8571431  51.5885400  77.9730448 121.4628540  51.7027766
  59.0561044 118.5269601  44.7902052  59.7432083 118.2131331  44.2023068
  58.9009172 119.4310966  44.5169304  63.8595766 113.4159797  49.2187076
  63.7753954 112.8085467  48.4837486  63.0378472 113.9068816  49.2196572
  70.9333050 126.8546962  48.4320244  70.8603221 127.6601933  48.9439549
  70.4910443 127.0538927  47.6068265  70.7222830 126.0918732  41.9423066
  69.9390351 126.6340412  42.0361290  71.4215575 126.6092711  42.3417307
  74.0319480 111.9013361  44.5857271  74.5288179 111.1483323  44.2658341
  73.2606461 111.9377678  44.0200480  81.8849237 117.6053727  46.2275562
  81.8739113 118.4878442  45.8569496  81.0166616 117.2525277  46.0330100
  73.3931733 126.7533796  50.5878403  74.1059706 127.3881260  50.5154304
  72.9021762 126.8497662  49.7718405  75.1149260 120.6585048  42.1595694
  74.1805539 120.7786511  41.9900399  75.2925929 119.7557515  41.8955704
  70.6154448 114.0430744  44.3128956  70.2452236 113.4901784  45.0009861
  71.1113541 113.4388877  43.7603956  78.5021812 116.5002368  42.6945728
  78.9682264 117.3330359  42.6206031  78.9529312 116.0347349  43.3990987
  68.4443647 124.5028239  51.4083973  69.1453106 125.1364722  51.5613368
  67.9738762 124.8442971  50.6479613  76.5698043 122.8446189  39.6931881
  76.8457887 122.7302783  40.6025755  75.7002542 122.4463674  39.6544054
  76.4738474 108.8682954  46.7336630  75.5601554 109.0987181  46.9018837
  76.9031576 108.9521399  47.5850662  76.2444933 117.0572846  49.2336524
  75.5916383 117.3048754  48.5788977  76.6225313 116.2436985  48.8999001
  73.2052107 127.0932540  43.3364694  73.3874501 126.2754196  43.7992446
  74.0285093 127.3100232  42.8989584  73.5394272 126.0200725  40.5979743
  74.0682039 125.5093179  39.9849905  73.8022492 125.7043255  41.4625276
  72.2932506 117.7992658  55.7202561  71.6173143 117.6986787  56.3904936
  73.1160140 117.6431871  56.1838558  64.0411365 124.0364594  48.3415076
  64.6264802 123.2908282  48.4742980  63.8436203 124.3468551  49.2251740
  66.8950020 127.0715841  43.3577519  66.2260395 127.5561969  42.8741559
  66.7562890 127.3185062  44.2720897  58.6329020 116.6070194  47.0619519
  58.6713119 116.0733785  47.8556637  58.1269313 116.0805400  46.4430496
  71.0355289 129.1059585  49.9560177  71.5873597 129.2691206  50.7209262
  71.3761482 129.6964023  49.2840202  66.0119782 111.4534735  50.5582062
  66.0761109 112.3149566  50.1459459  65.9486902 110.8408736  49.8254420
  65.4872055 113.5257867  54.2055096  66.1144093 113.1434945  54.8192620
  64.6299973 113.3072069  54.5710788  75.8866163 123.9320842  55.8108831
  76.4306067 124.5450801  55.3163786  75.3053008 124.4900421  56.3275844
  62.2637597 115.3334296  40.1373451  62.5591038 114.4244975  40.0840504
  61.3625633 115.3122036  39.8154453  74.1723676 127.0541560  46.9423859
  74.0474816 126.2531300  46.4334805  74.8302767 127.5487754  46.4537829
  65.7931844 113.4090293  46.1200999  65.0718430 114.0226261  45.9808473
  66.5825100 113.9448058  46.0417645  76.2358584 124.8550581  48.5703409
  75.2888920 124.7355932  48.4981736  76.5841358 123.9673079  48.6529671
  68.5958158 110.7444719  52.3941651  69.1192560 110.9907016  53.1567960
  68.3770491 111.5764754  51.9744788  63.9925439 113.0148394  40.2612776
  63.6638145 112.1345773  40.0787882  64.3464810 112.9596063  41.1489165
  73.2405018 124.6503297  44.7707761  73.0929980 123.7220004  44.9515331
  74.0658511 124.6723388  44.2864837  67.1067262 113.3021364  40.6288254
  67.4463335 113.8307285  39.9066862  67.5539383 113.6401770  41.4046820
  76.8439140 125.4731856  45.8572634  77.7685687 125.2674717  45.7197085
  76.6754443 125.2248257  46.7661976  69.8010703 111.6858415  50.0791322
  69.4607523 110.8866228  50.4812001  69.0949709 111.9860125  49.5068155
  70.4527175 108.7707727  48.5318645  71.2753244 108.2968205  48.4097535
  70.6965238 109.5498211  49.0317331  69.0935409 111.7995985  38.8281546
  69.8143772 112.1777238  38.3245263  68.4700713 112.5184862  38.9316524
  73.2366532 112.5041134  39.7639879  73.4530146 113.3865772  39.4628707
  72.7560599 112.1127348  39.0345521  67.9765753 115.4626848  46.3410623
  67.8310334 115.7767151  47.2334905  67.4990957 116.0811748  45.7881522
  69.8362136 112.4529396  46.3891513  69.8223705 111.5570489  46.0523811
  70.5534564 112.4600059  47.0229799  71.6888267 112.8866736  48.4344640
  71.4306045 113.8083807  48.4328971  71.1573307 112.4897170  49.1245104
  76.6334456 125.9917523  41.2134726  76.8071333 125.4263945  40.4608578
  77.1263347 126.7918418  41.0314216  62.4511416 118.0032192  49.2798284
  61.9064884 118.7792000  49.4118559  63.3290765 118.3502997  49.1217406
  69.2399032 111.3343776  41.6579083  69.3614943 110.4060422  41.8569970
  68.9501075 111.3482462  40.7457398  72.1090223 109.0198686  44.7945803
  72.1311919 109.0838019  43.8397782  72.5258282 108.1803195  44.9886309
  82.4873847 118.7553946  42.8325025  82.9304993 118.0061271  42.4344149
  81.6100357 118.7464082  42.4498757  77.6209628 125.3084287  38.3131624
  78.3160533 125.9290980  38.5318939  77.9632778 124.4579639  38.5884002
  63.2377437 117.1302088  52.1728441  62.4959174 117.2784724  52.7593072
  62.9170182 117.3910354  51.3095191  79.5201051 122.7583993  39.8418955
  80.0452376 123.0971266  39.1168275  79.4323404 121.8231008  39.6582089
  71.1821100 126.6718067  51.9708831  71.4908227 126.4267213  52.8431531
  71.9796582 126.8764705  51.4827702  71.2041712 128.8255976  44.2014208
  70.7646702 128.3332355  44.8947065  71.9549829 128.2828944  43.9606283
  63.6834051 125.0167517  44.2038836  64.5092071 124.7171289  43.8237479
  63.3328103 124.2475139  44.6528625  68.6515584 124.3693985  46.2736510
  68.0295594 123.7064690  45.9738737  69.3220451 124.3955117  45.5910157
  61.8842656 122.9353844  45.1627770  61.0474565 122.5076018  44.9811771
  61.8566302 123.1286287  46.0998561  68.7240112 112.8475773  55.8669016
  68.7728267 113.7237896  55.4846785  69.2662626 112.3053166  55.2940659
  79.2094957 123.3916897  55.1470153  78.4190501 123.3741035  54.6074652
  78.9728312 123.9305190  55.9019189  79.3292833 120.2409363  52.4602881
  79.3790837 120.0759370  53.4018404  79.2206756 119.3736622  52.0700762
  68.2129091 122.9197909  39.7494970  68.3617212 123.6033373  39.0961643
  69.0195535 122.9002999  40.2644426  76.6196595 116.2240291  53.7762188
  77.5206458 116.0846756  53.4846186  76.6944569 116.3894746  54.7160365
  70.9539400 113.6007146  52.6215374  70.0842710 113.8940712  52.3497963
  71.1898881 114.1847591  53.3422638  80.8311029 122.6606304  52.7044903
  80.5395838 123.0236285  53.5408364  80.2183161 121.9473313  52.5258235
  82.0306712 120.2259184  45.2247473  82.8653603 120.6648988  45.3885033
  82.1665840 119.7497837  44.4055719  79.0798218 117.7838919  51.1724961
  79.5552339 117.9766565  50.3643812  78.1563783 117.8398105  50.9268344
  65.9681724 118.9463086  40.7556039  65.7227766 118.0425416  40.9536249
  66.1377639 118.9480237  39.8135517  73.6578434 109.8186763  50.1380795
  74.1760378 110.5547790  49.8127283  73.3033567 110.1250756  50.9727554
  65.2377372 114.6791444  38.2542200  64.5446617 114.7535799  37.5982236
  64.9929124 113.9151787  38.7763717  73.9091028 106.2387045  45.6581691
  74.1892782 105.5710234  46.2842118  74.6941635 106.4316141  45.1456355
  71.7124497 125.4146039  37.2206717  71.1398464 126.0336226  36.7677189
  72.2857290 125.9645401  37.7546639  77.7799887 114.6604679  49.4053266
  78.7317310 114.7602777  49.4265490  77.6103337 113.8682948  49.9151351
  75.8014266 111.7460262  49.5912667  75.2064198 112.0265275  48.8959156
  75.5163963 112.2354163  50.3629408  74.9321757 125.6983189  38.3515300
  75.8652430 125.6328751  38.5548175  74.8444969 126.5339456  37.8929832
  77.5609773 125.0149060  35.3119247  77.4823405 124.6808923  36.2055005
  78.3819440 125.5070827  35.3110720  80.2587964 117.8810799  48.5195566
  80.2264285 116.9426800  48.7055250  80.8688588 117.9594836  47.7861391
  72.0971295 116.7506852  34.5622770  73.0430400 116.6213060  34.6311188
  71.7185540 116.0121514  35.0392198  80.4082453 114.6721842  48.5653849
  79.8921502 113.8880299  48.3783778  81.2922401 114.3440559  48.7300369
  78.0693180 108.4162858  44.5249662  77.8718001 108.1077946  45.4092994
  78.6792885 109.1424497  44.6547592  86.0764514 118.9426806  47.6601603
  86.8067903 118.6812094  48.2209306  85.4671460 118.2055528  47.7003671
  84.1579811 117.0834668  48.2576054  83.4312975 116.9490633  47.6492546
  83.7427098 117.3911497  49.0632772  71.9809988 120.8024598  56.0223427
  72.9012997 120.9803197  56.2163473  71.9459571 119.8580643  55.8703126
  70.2814212 114.6756828  34.4977655  69.3745668 114.3789941  34.5740369
  70.5590193 114.3786646  33.6311941  61.1992153 115.9963192  44.9476702
  60.8794937 115.1428500  44.6551076  60.6525581 116.2111770  45.7034669
  64.9772060 118.7125633  48.6646208  65.1958070 119.6442740  48.6834242
  65.3897834 118.3533607  49.4501012  71.8976278 109.2193718  40.6521896
  71.0877006 108.8740803  41.0277143  72.5860695 108.9101262  41.2409508
  73.8266826 108.2971765  42.2746193  74.3797865 108.7167218  42.9336216
  74.0636913 107.3707513  42.3169149  69.8499926 114.2858838  58.0548957
  69.7496653 115.2353195  57.9861048  69.6321468 113.9577077  57.1825027
  69.0512997 111.5343763  34.6389634  69.9132161 111.8598662  34.8985452
  69.2363341 110.7475259  34.1262700  61.0680413 119.6166103  46.9169823
  60.3743884 119.2020056  46.4039778  61.8153404 119.6586640  46.3203242
  77.2045634 110.4072290  41.7824857  76.6244303 111.0657094  41.4002910
  76.9381566 109.5849634  41.3712275  75.6549200 109.8077348  43.9846178
  76.1548978 109.9193882  43.1760497  76.2984808 109.5038400  44.6246986
  69.7131196 117.7155977  56.8714019  69.2298277 118.5156337  57.0777908
  69.7992135 117.7263922  55.9181463  62.9817155 119.5484357  44.7935838
  62.9587843 119.6472044  43.8417721  63.2917792 120.3949508  45.1153004
  65.6404533 121.6060512  48.9082452  66.5947787 121.5744454  48.8412384
  65.4417057 121.1451136  49.7232678  66.2303915 120.1761628  51.4753250
  67.0496804 120.6705707  51.4988087  66.5040723 119.2593596  51.4470818
  75.9870512 112.5672380  40.8381206  75.0996367 112.8522031  40.6201400
  76.4024501 112.4066144  39.9908483  79.3385048 112.5918901  44.5535545
  80.1145438 113.0815354  44.8260162  78.6133182 113.0176955  45.0107414
  81.7757606 113.3046520  45.6109486  82.3702097 113.0642256  44.9002794
  81.8484190 112.5853651  46.2383022  63.9954762 127.1480131  45.9252650
  63.8609230 126.3880532  45.3590648  63.5786824 127.8721031  45.4581439
  75.1313725 122.3317055  34.9329226  75.8349575 122.5367057  35.5486881
  74.4076374 122.8993817  35.1978309  75.9611535 118.0826916  41.0531496
  75.9046737 118.5395468  40.2139128  76.5139878 117.3217601  40.8754339
  79.7716341 113.8716648  41.8781615  79.5153275 113.4713284  42.7089823
  79.1469209 114.5860442  41.7531754  84.0828679 116.6112721  44.3852907
  83.5228237 116.6805911  45.1584469  83.4772182 116.4353706  43.6652403
  67.1523888 128.0449448  46.1371093  67.0356272 128.9894881  46.0349783
  66.3316334 127.7423010  46.5256892  77.0400422 122.7699584  36.9827686
  77.8746026 122.3380783  36.8005160  76.8784765 122.5981598  37.9104580
  76.6946315 119.2731697  38.3484025  76.6395118 119.1075969  37.4072469
  76.0692370 119.9807730  38.5046215  61.4838830 114.5099762  52.1745447
  62.1297693 113.9998716  52.6632672  61.2755981 115.2468443  52.7488872
  74.0092222 121.5780609  57.6737588  74.8783381 121.7521262  57.3124223
  73.5298973 122.3975026  57.5513317  70.0042440 108.7739806  37.9269343
  69.9921110 109.7181646  38.0837614  70.8965862 108.5909952  37.6328805
  68.1778402 128.6977710  49.3527021  69.0805649 128.7301321  49.6693516
  67.9515772 127.7678161  49.3673357  69.9332004 127.4508697  46.0137100
  68.9827635 127.4510558  45.9001472  70.2364490 126.7041431  45.4973135
  73.8194560 105.3682583  42.1815280  73.0526955 104.8141070  42.3271963
  74.2305264 105.4404452  43.0429432  65.8236321 111.6567379  56.2720461
  66.6867782 111.3004184  56.4823786  65.2501731 111.3181274  56.9595866
  85.6684697 133.2869235  47.0782862  86.3063107 133.1675983  46.3746203
  85.5505540 134.2350079  47.1370815  82.4774404 133.2396663  47.0144387
  82.1392915 133.1237728  46.1264922  83.3464172 132.8387828  46.9945393
  78.3361219 135.0932140  43.0041278  77.7726085 135.0022077  42.2357566
  78.2213615 134.2732044  43.4843771  82.9594187 134.3931515  52.9730593
  82.9482828 133.9984313  52.1011096  83.1214826 133.6597588  53.5664364
  75.8825651 136.5883331  45.8425499  76.6746943 136.2474156  45.4271798
  76.1222302 136.6978306  46.7627652  83.9160778 138.7603107  38.3155743
  83.2648758 139.3457188  37.9289757  84.7105141 139.2909302  38.3750780
  77.8416405 135.8492245  38.7142877  78.6147281 135.3021232  38.5755753
  78.1941804 136.7136494  38.9257339  79.6801448 137.1768627  51.9209777
  79.3891314 138.0814258  51.8056443  80.3158432 137.2185154  52.6353846
  80.6057655 134.5545475  48.5111136  81.2021227 134.3301498  47.7968099
  80.6632626 133.8130221  49.1136584  80.1782683 132.0084911  36.3461327
  80.4308204 131.4866432  35.5844790  79.2407242 131.8451056  36.4488011
  85.2225966 131.0120689  44.1536070  86.0089055 130.5940112  43.8026487
  85.4864670 131.9166781  44.3217719  85.3936043 136.4493539  38.8524727
  84.7581876 136.5228166  39.5645632  85.0633450 137.0387138  38.1743807
  90.6234393 130.9495922  45.0569049  91.3559565 130.3795139  45.2906878
  89.8673749 130.5617523  45.4975555  79.8978972 133.9113017  38.5485702
  79.7815230 133.2357920  39.2166787  80.0081232 133.4245391  37.7317855
  82.2410513 133.3723164  42.2532391  81.8768720 132.8453785  42.9645313
  83.0977629 132.9821633  42.0798877  88.1459813 124.6617496  49.5163658
  87.8143138 125.5312907  49.2924873  87.5505427 124.3453780  50.1957688
  81.8816000 128.4013063  37.2493740  82.0490402 129.2693300  37.6164211
  81.6913169 128.5640345  36.3255029  84.6391333 136.8630042  48.9159570
  84.3392056 137.7655081  48.8075378  84.2942393 136.5962226  49.7680723
  78.0903814 133.3143839  44.9496275  77.1654311 133.1820053  45.1573967
  78.3388228 134.0938058  45.4466217  88.0388477 129.3812583  46.5957008
  87.1305354 129.3127991  46.3015769  87.9876073 129.8584528  47.4238833
  81.8605221 130.8570721  38.2340407  81.7404846 131.3027772  39.0725887
  81.1657809 131.2056039  37.6753945  75.4512626 132.9577113  45.7840064
  75.5805007 133.2111592  46.6979476  74.7710077 133.5504821  45.4644719
  79.6212113 143.6274363  41.8830538  79.5436142 144.5782188  41.9619019
  79.0173756 143.2820235  42.5405464  82.1129343 130.8002228  54.5391905
  81.3362677 131.3596148  54.5294770  82.7519906 131.2859011  55.0606775
  89.9050123 127.5829021  48.3734882  89.2624503 127.8761554  47.7274676
  89.4005052 127.4681941  49.1788078  87.5590287 131.3292194  39.0620741
  88.4708143 131.5619581  38.8868438  87.0499934 131.9129238  38.4995819
  80.3675715 133.6087682  54.1009872  81.1090399 134.1472726  53.8244696
  79.6612700 134.2353970  54.2581424  85.8431055 135.7516822  52.6982033
  86.2514411 135.3099233  51.9536666  85.1208316 135.1769450  52.9516226
  82.1962125 130.6889429  50.0715590  83.0423320 131.1128842  50.2150239
  82.1360762 130.0323053  50.7654153  86.1659869 136.3118013  46.4534322
  85.5368732 136.4763727  45.7510390  85.7785531 136.7259622  47.2245286
  90.0449101 137.2472450  43.8078686  89.3600139 137.6271352  43.2575719
  90.1292950 137.8567777  44.5410634  85.3461570 128.3493797  51.7296764
  85.1022502 129.1035858  51.1931040  85.6221500 128.7279145  52.5644011
  87.3000033 134.8932409  50.4074030  87.5116928 135.5364169  49.7308411
  87.2529781 134.0594726  49.9395960  84.9026262 127.5050230  47.3110602
  84.0410741 127.8031484  47.6027339  84.9288696 127.7220629  46.3791634
  81.7187831 136.0492421  43.7184407  82.1826177 136.3280124  42.9289030
  81.4544629 135.1475865  43.5357498  78.6111912 135.5963902  46.6564171
  79.1813269 136.0251171  46.0181655  79.2020024 135.3146487  47.3548356
  80.6556717 132.1715573  40.5273973  81.3580760 132.6236617  40.9947899
  80.3237346 131.5299392  41.1553866  79.1037079 130.7627330  54.9025182
  78.4735739 131.4443611  55.1360579  78.9973167 130.6510411  53.9578320
  74.3982051 130.4299126  45.8291106  73.6081105 130.6856654  45.3531217
  74.8893298 131.2447464  45.9343147  88.4145861 137.7704365  48.5796387
  89.2363304 137.3684552  48.2979069  88.4108263 137.6672599  49.5312503
  76.3496796 130.7943705  42.7874583  75.5527960 130.9062399  43.3058078
  76.1222389 131.1330357  41.9215473  82.1802464 137.3188408  50.7357097
  82.2446897 137.7808815  51.5715269  81.4713388 136.6885773  50.8639407
  72.6819754 130.6829616  48.2606097  72.9327792 131.5676626  48.5263673
  73.2179302 130.5034218  47.4881189  96.5051854 134.1143113  44.9281358
  95.7515562 133.5450511  44.7725363  96.6399395 134.0805778  45.8751993
  81.8950482 138.9856516  40.6036078  81.7596156 139.8308051  41.0320926
  82.4360294 139.1875793  39.8402012  78.3817821 125.0648096  57.2650433
  77.9884767 124.5114294  57.9398077  79.1983962 125.3758674  57.6556950
  75.3479879 136.5031954  41.1764003  75.8604400 137.2975204  41.3269568
  76.0002592 135.8058244  41.1097604  77.1574764 139.6197710  43.2586756
  77.3341392 140.5415675  43.0707740  77.9531597 139.3056129  43.6881136
  81.2985782 126.4805975  54.8570690  82.0395496 127.0813128  54.7775152
  81.5303705 125.7383612  54.2988732  76.4427120 131.6662342  53.1348919
  76.3280635 130.7647599  53.4356018  75.5871638 131.9126039  52.7833736
  83.5218958 139.6080082  54.7336420  83.0782812 138.8216461  54.4157324
  84.1836172 139.7959233  54.0680311  78.2806079 141.1375884  49.2597098
  78.8313504 141.0092947  48.4874092  77.4417555 141.4370773  48.9091991
  85.6200196 139.8882882  52.7617821  85.6018672 140.7091763  52.2698090
  86.5420116 139.7636957  52.9867962  82.0773250 137.4027012  53.6041329
  82.6101587 136.6415300  53.3740637  81.5487331 137.1100663  54.3465484
  85.2442945 122.5087078  49.1334971  84.9007215 123.3988719  49.0574082
  85.6121908 122.3188735  48.2704556  73.3128796 134.8320608  41.9523573
  74.1504018 135.2417616  41.7357281  73.4907064 133.8920050  41.9223767
  85.2093228 132.4995689  37.6407406  84.6939851 133.2700293  37.8795794
  84.9370536 131.8260825  38.2640468  82.7940339 127.3445389  42.6992645
  81.9381935 126.9552240  42.5198283  83.2067291 127.4237350  41.8392430
  84.3239486 124.8791733  47.0984204  83.8204281 124.8421868  46.2852010
  84.6170093 125.7884475  47.1580861  80.5682372 124.9630462  46.1050386
  81.4335368 124.7673271  45.7456276  80.6359880 124.7340814  47.0319743
  90.1827502 135.2528043  39.5760580  89.4056945 134.9139203  39.1315742
  90.8618983 135.2580667  38.9015545  84.9979531 130.3722781  39.4667187
  84.6929667 130.6868930  40.3177331  85.9509973 130.4504201  39.5094520
  83.4425963 136.5313004  41.1160141  82.9147325 135.7965764  40.8033379
  82.9413466 137.3087680  40.8700110  88.4218809 134.7262025  46.2327188
  87.7642483 135.4161286  46.3207316  89.2259208 135.1158457  46.5761174
  78.1744691 127.1932670  43.4766753  78.7488443 126.9707852  42.7439946
  78.7615673 127.2621365  44.2295354  87.2324268 133.0806397  44.2831130
  87.7456150 133.7136389  44.7852839  87.8825492 132.4807593  43.9174490
  78.5014278 129.2237131  37.4962638  77.6651590 129.5611818  37.8171913
  78.3619047 129.0886111  36.5589775  80.4767358 124.0673919  42.2041822
  79.8231771 123.7522936  41.5798437  80.4347832 123.4449660  42.9301645
  81.5878563 134.3493214  34.1195115  80.6805625 134.1182468  34.3186263
  82.0849595 133.5530834  34.3069096  84.4946642 143.0590722  37.0391801
  83.8208341 143.3622418  37.6476758  84.8812464 143.8619802  36.6897258
  83.7105099 130.5555853  46.5289470  82.7927660 130.7770800  46.3711158
  84.1265242 130.6302163  45.6701177  84.4940146 131.9547269  41.6592150
  85.2411965 132.4668666  41.3499272  84.7631736 131.6331321  42.5196544
  82.7666797 134.4505809  38.6419105  81.8578016 134.1664842  38.7391574
  82.7961880 134.8704888  37.7822411  87.9986064 138.0612399  42.4110272
  87.5448391 137.2203309  42.4675463  87.3680031 138.6973797  42.7485052
  86.9418984 128.9904385  43.6410940  86.2041740 128.4781771  43.9721182
  87.1945757 128.5504766  42.8294216  86.4419003 139.8988895  43.3460090
  86.7341978 140.4593953  42.6272456  86.9517624 140.1917456  44.1013249
  87.0430611 121.7680637  44.2352709  87.3489488 120.9078000  43.9478624
  87.7683216 122.3598257  44.0351703  73.3354967 132.1711323  42.6234307
  73.1379367 131.5780684  41.8985373  72.7801631 131.8663534  43.3410246
  81.3151691 132.0634430  44.7428900  81.3700300 131.1108266  44.6671377
  80.5042893 132.2193869  45.2270198  82.4642884 135.9914553  35.9807183
  82.0262314 135.2750412  35.5212821  83.2053325 136.2190668  35.4192275
  79.2544051 130.6811490  42.5019279  78.4411916 130.9805660  42.9084471
  79.7503045 130.2867178  43.2193761  81.4052628 140.6769247  44.4353544
  81.3628807 140.9030093  43.5062076  82.3215327 140.4432621  44.5839345
  84.8518262 131.1453314  51.3334173  85.2067650 131.3724787  52.1928638
  85.4990394 131.4771691  50.7111428  90.5815999 134.2671750  42.0383502
  90.4433898 134.4573346  41.1104691  90.2252218 135.0291133  42.4951553
  78.7458125 128.2529845  48.1180514  79.3857505 128.1118604  47.4203477
  77.9135656 127.9664358  47.7419116  90.6085379 136.3348277  47.0494773
  91.0421885 136.2423566  47.8977827  91.3216960 136.3105777  46.4114789
  79.5218429 137.5532276  44.2315506  80.3159028 137.0582596  44.0298081
  78.8110122 137.0250139  43.8683212  84.3413274 139.9350371  48.5827874
  84.3950296 140.5041307  49.3505590  83.4728055 140.1052256  48.2181911
  75.8301193 131.6975357  40.3075259  74.8998781 131.6359813  40.5245221
  75.9258665 131.1751310  39.5111900  75.7486742 128.2230170  42.8953501
  76.0093559 129.1375503  42.7862661  76.5703914 127.7554613  43.0450113
  77.2211667 129.6367927  50.0652325  77.8934721 129.4285289  49.4164974
  76.3941454 129.4390013  49.6257557  91.4700928 136.3771978  49.5827659
  91.6636818 137.2817788  49.8286934  91.3701547 135.9179397  50.4166244
  83.1237239 126.2629868  52.0817986  82.4765154 126.9619818  51.9882462
  83.8938255 126.6966012  52.4494234  86.5316037 136.5278720  55.1568539
  86.3801543 136.2989272  54.2398623  86.5220717 137.4849322  55.1699884
  83.3001373 134.1010633  50.1414806  84.2293433 134.2521793  49.9683773
  82.8792403 134.1894654  49.2863452  82.0989705 138.1261298  47.9113343
  81.9600791 137.7580082  48.7839281  81.3104301 138.6408937  47.7397301
  82.6937857 143.2270394  39.2538880  82.8689613 142.7558437  40.0684503
  82.0070645 143.8536160  39.4820141  83.6494920 137.5042900  45.3002181
  83.3144753 137.4643670  46.1959831  83.1498866 136.8387616  44.8272591
  77.6239164 132.9110530  50.8254762  77.4858962 132.1790769  51.4266301
  78.5344088 132.8219430  50.5438950  86.5854112 134.8498935  35.5739241
  85.9683283 134.1245763  35.4772293  86.1170601 135.6108295  35.2306315
  80.2521465 132.6230490  50.3138442  80.9621084 131.9823682  50.2725060
  80.2090773 132.8743384  51.2364623  88.2408244 139.5597843  53.2345021
  88.1820790 138.8757063  52.5675604  88.6427762 140.3016833  52.7825647
  78.9650399 129.6095707  52.1334081  78.4287756 129.1586446  52.7855678
  78.3767107 129.7441616  51.3904546  77.2598943 146.3759757  46.0278740
  77.4995541 147.0078281  46.7057759  76.4168139 146.0247797  46.3144099
  78.3752658 129.0684359  34.6960545  77.4982124 128.9473160  34.3322792
  78.8510411 128.2770437  34.4439434  88.2425651 137.5237427  51.4659001
  87.3552430 137.1863349  51.5885400  88.8124202 136.7920458  51.7027766
  69.8954798 133.8561519  44.7902052  70.5825838 133.5423249  44.2023068
  69.7402927 134.7602883  44.5169304  74.6989520 128.7451715  49.2187076
  74.6147709 128.1377385  48.4837486  73.8772227 129.2360733  49.2196572
  81.7726804 142.1838879  48.4320244  81.6996976 142.9893851  48.9439549
  81.3304197 142.3830845  47.6068265  81.5616584 141.4210649  41.9423066
  80.7784106 141.9632329  42.0361290  82.2609329 141.9384629  42.3417307
  84.8713234 127.2305279  44.5857271  85.3681934 126.4775241  44.2658341
  84.1000216 127.2669595  44.0200480  92.7242992 132.9345644  46.2275562
  92.7132868 133.8170360  45.8569496  91.8560371 132.5817195  46.0330100
  84.2325488 142.0825713  50.5878403  84.9453460 142.7173178  50.5154304
  83.7415517 142.1789579  49.7718405  85.9543015 135.9876966  42.1595694
  85.0199294 136.1078428  41.9900399  86.1319683 135.0849433  41.8955704
  81.4548203 129.3722662  44.3128956  81.0845990 128.8193702  45.0009861
  81.9507295 128.7680795  43.7603956  89.3415566 131.8294285  42.6945728
  89.8076018 132.6622277  42.6206031  89.7923067 131.3639267  43.3990987
  79.2837401 139.8320157  51.4083973  79.9846861 140.4656640  51.5613368
  78.8132516 140.1734888  50.6479613  87.4091797 138.1738106  39.6931881
  87.6851641 138.0594701  40.6025755  86.5396296 137.7755591  39.6544054
  87.3132229 124.1974872  46.7336630  86.3995309 124.4279099  46.9018837
  87.7425330 124.2813316  47.5850662  87.0838687 132.3864764  49.2336524
  86.4310138 132.6340672  48.5788977  87.4619067 131.5728902  48.8999001
  84.0445861 142.4224457  43.3364694  84.2268256 141.6046113  43.7992446
  84.8678847 142.6392150  42.8989584  84.3788027 141.3492642  40.5979743
  84.9075793 140.8385097  39.9849905  84.6416246 141.0335173  41.4625276
  83.1326260 133.1284575  55.7202561  82.4566897 133.0278705  56.3904936
  83.9553894 132.9723789  56.1838558  74.8805119 139.3656512  48.3415076
  75.4658556 138.6200200  48.4742980  74.6829958 139.6760468  49.2251740
  77.7343775 142.4007759  43.3577519  77.0654150 142.8853887  42.8741559
  77.5956644 142.6476980  44.2720897  69.4722774 131.9362112  47.0619519
  69.5106874 131.4025703  47.8556637  68.9663067 131.4097317  46.4430496
  81.8749043 144.4351503  49.9560177  82.4267351 144.5983124  50.7209262
  82.2155237 145.0255940  49.2840202  76.8513537 126.7826652  50.5582062
  76.9154863 127.6441483  50.1459459  76.7880657 126.1700654  49.8254420
  76.3265809 128.8549785  54.2055096  76.9537848 128.4726862  54.8192620
  75.4693728 128.6363987  54.5710788  86.7259918 139.2612760  55.8108831
  87.2699822 139.8742718  55.3163786  86.1446762 139.8192339  56.3275844
  73.1031352 130.6626214  40.1373451  73.3984793 129.7536893  40.0840504
  72.2019388 130.6413954  39.8154453  85.0117431 142.3833478  46.9423859
  84.8868570 141.5823218  46.4334805  85.6696522 142.8779672  46.4537829
  76.6325599 128.7382211  46.1200999  75.9112185 129.3518178  45.9808473
  77.4218855 129.2739975  46.0417645  87.0752339 140.1842498  48.5703409
  86.1282674 140.0647849  48.4981736  87.4235112 139.2964996  48.6529671
  79.4351912 126.0736637  52.3941651  79.9586314 126.3198934  53.1567960
  79.2164246 126.9056672  51.9744788  74.8319193 128.3440312  40.2612776
  74.5031900 127.4637691  40.0787882  75.1858564 128.2887980  41.1489165
  84.0798772 139.9795214  44.7707761  83.9323735 139.0511922  44.9515331
  84.9052266 140.0015305  44.2864837  77.9461017 128.6313282  40.6288254
  78.2857089 129.1599203  39.9066862  78.3933137 128.9693688  41.4046820
  87.6832894 140.8023773  45.8572634  88.6079442 140.5966635  45.7197085
  87.5148197 140.5540174  46.7661976  80.6404457 127.0150332  50.0791322
  80.3001278 126.2158145  50.4812001  79.9343464 127.3152043  49.5068155
  81.2920929 124.0999645  48.5318645  82.1146999 123.6260123  48.4097535
  81.5358993 124.8790128  49.0317331  79.9329164 127.1287903  38.8281546
  80.6537526 127.5069156  38.3245263  79.3094468 127.8476780  38.9316524
  84.0760287 127.8333052  39.7639879  84.2923901 128.7157690  39.4628707
  83.5954354 127.4419266  39.0345521  78.8159508 130.7918765  46.3410623
  78.6704089 131.1059068  47.2334905  78.3384712 131.4103666  45.7881522
  80.6755891 127.7821313  46.3891513  80.6617460 126.8862407  46.0523811
  81.3928319 127.7891977  47.0229799  82.5282022 128.2158654  48.4344640
  82.2699799 129.1375724  48.4328971  81.9967062 127.8189088  49.1245104
  87.4728210 141.3209441  41.2134726  87.6465088 140.7555863  40.4608578
  87.9657102 142.1210336  41.0314216  73.2905170 133.3324110  49.2798284
  72.7458638 134.1083918  49.4118559  74.1684520 133.6794914  49.1217406
  80.0792787 126.6635694  41.6579083  80.2008698 125.7352340  41.8569970
  79.7894829 126.6774380  40.7457398  82.9483977 124.3490604  44.7945803
  82.9705674 124.4129937  43.8397782  83.3652036 123.5095113  44.9886309
  93.3267601 134.0845864  42.8325025  93.7698748 133.3353189  42.4344149
  92.4494112 134.0756000  42.4498757  88.4603383 140.6376205  38.3131624
  89.1554287 141.2582898  38.5318939  88.8026533 139.7871556  38.5884002
  74.0771192 132.4594006  52.1728441  73.3352928 132.6076641  52.7593072
  73.7563936 132.7202272  51.3095191  90.3594806 138.0875911  39.8418955
  90.8846130 138.4263183  39.1168275  90.2717158 137.1522926  39.6582089
  82.0214855 142.0009984  51.9708831  82.3301981 141.7559131  52.8431531
  82.8190337 142.2056623  51.4827702  82.0435467 144.1547894  44.2014208
  81.6040457 143.6624273  44.8947065  82.7943584 143.6120862  43.9606283
  74.5227806 140.3459435  44.2038836  75.3485826 140.0463207  43.8237479
  74.1721858 139.5767057  44.6528625  79.4909339 139.6985903  46.2736510
  78.8689348 139.0356608  45.9738737  80.1614206 139.7247035  45.5910157
  72.7236411 138.2645761  45.1627770  71.8868319 137.8367936  44.9811771
  72.6960056 138.4578205  46.0998561  79.5633866 128.1767691  55.8669016
  79.6122022 129.0529814  55.4846785  80.1056381 127.6345084  55.2940659
  90.0488712 138.7208814  55.1470153  89.2584256 138.7032953  54.6074652
  89.8122067 139.2597108  55.9019189  90.1686587 135.5701281  52.4602881
  90.2184592 135.4051288  53.4018404  90.0600510 134.7028540  52.0700762
  79.0522846 138.2489826  39.7494970  79.2010966 138.9325291  39.0961643
  79.8589289 138.2294916  40.2644426  87.4590349 131.5532209  53.7762188
  88.3600212 131.4138673  53.4846186  87.5338324 131.7186663  54.7160365
  81.7933155 128.9299063  52.6215374  80.9236464 129.2232629  52.3497963
  82.0292635 129.5139508  53.3422638  91.6704784 137.9898222  52.7044903
  91.3789592 138.3528203  53.5408364  91.0576915 137.2765230  52.5258235
  92.8700466 135.5551102  45.2247473  93.7047358 135.9940906  45.3885033
  93.0059595 135.0789755  44.4055719  89.9191972 133.1130837  51.1724961
  90.3946094 133.3058483  50.3643812  88.9957537 133.1690023  50.9268344
  76.8075479 134.2755004  40.7556039  76.5621521 133.3717334  40.9536249
  76.9771393 134.2772154  39.8135517  84.4972189 125.1478680  50.1380795
  85.0154132 125.8839707  49.8127283  84.1427321 125.4542674  50.9727554
  76.0771126 130.0083362  38.2542200  75.3840371 130.0827716  37.5982236
  75.8322878 129.2443705  38.7763717  84.7484783 121.5678963  45.6581691
  85.0286537 120.9002152  46.2842118  85.5335390 121.7608058  45.1456355
  82.5518251 140.7437957  37.2206717  81.9792218 141.3628144  36.7677189
  83.1251045 141.2937318  37.7546639  88.6193641 129.9896597  49.4053266
  89.5711064 130.0894694  49.4265490  88.4497092 129.1974865  49.9151351
  86.6408021 127.0752180  49.5912667  86.0457953 127.3557193  48.8959156
  86.3557717 127.5646081  50.3629408  85.7715511 141.0275107  38.3515300
  86.7046184 140.9620669  38.5548175  85.6838724 141.8631374  37.8929832
  88.4003528 140.3440977  35.3119247  88.3217159 140.0100841  36.2055005
  89.2213195 140.8362745  35.3110720  91.0981719 133.2102717  48.5195566
  91.0658039 132.2718717  48.7055250  91.7082343 133.2886753  47.7861391
  82.9365050 132.0798770  34.5622770  83.8824154 131.9504978  34.6311188
  82.5579295 131.3413431  35.0392198  91.2476207 130.0013760  48.5653849
  90.7315256 129.2172217  48.3783778  92.1316156 129.6732477  48.7300369
  88.9086934 123.7454776  44.5249662  88.7111755 123.4369864  45.4092994
  89.5186640 124.4716414  44.6547592  96.9158269 134.2718723  47.6601603
  97.6461657 134.0104011  48.2209306  96.3065214 133.5347445  47.7003671
  94.9973566 132.4126586  48.2576054  94.2706729 132.2782551  47.6492546
  94.5820853 132.7203415  49.0632772  82.8203742 136.1316516  56.0223427
  83.7406752 136.3095115  56.2163473  82.7853325 135.1872561  55.8703126
  81.1207967 130.0048746  34.4977655  80.2139422 129.7081859  34.5740369
  81.3983948 129.7078564  33.6311941  72.0385907 131.3255109  44.9476702
  71.7188692 130.4720417  44.6551076  71.4919335 131.5403687  45.7034669
  75.8165815 134.0417550  48.6646208  76.0351825 134.9734658  48.6834242
  76.2291589 133.6825525  49.4501012  82.7370033 124.5485636  40.6521896
  81.9270761 124.2032721  41.0277143  83.4254450 124.2393179  41.2409508
  84.6660581 123.6263682  42.2746193  85.2191620 124.0459136  42.9336216
  84.9030667 122.6999431  42.3169149  80.6893680 129.6150756  58.0548957
  80.5890407 130.5645113  57.9861048  80.4715222 129.2868995  57.1825027
  79.8906752 126.8635681  34.6389634  80.7525916 127.1890579  34.8985452
  80.0757096 126.0767177  34.1262700  71.9074167 134.9458021  46.9169823
  71.2137639 134.5311974  46.4039778  72.6547158 134.9878557  46.3203242
  88.0439388 125.7364208  41.7824857  87.4638057 126.3949012  41.4002910
  87.7775321 124.9141552  41.3712275  86.4942954 125.1369265  43.9846178
  86.9942733 125.2485800  43.1760497  87.1378562 124.8330318  44.6246986
  80.5524950 133.0447895  56.8714019  80.0692032 133.8448255  57.0777908
  80.6385889 133.0555840  55.9181463  73.8210910 134.8776275  44.7935838
  73.7981598 134.9763962  43.8417721  74.1311546 135.7241425  45.1153004
  76.4798288 136.9352430  48.9082452  77.4341541 136.9036372  48.8412384
  76.2810811 136.4743053  49.7232678  77.0697670 135.5053546  51.4753250
  77.8890559 135.9997624  51.4988087  77.3434478 134.5885514  51.4470818
  86.8264266 127.8964298  40.8381206  85.9390121 128.1813949  40.6201400
  87.2418255 127.7358061  39.9908483  90.1778802 127.9210819  44.5535545
  90.9539192 128.4107271  44.8260162  89.4526936 128.3468873  45.0107414
  92.6151361 128.6338438  45.6109486  93.2095852 128.3934174  44.9002794
  92.6877944 127.9145569  46.2383022  74.8348516 142.4772049  45.9252650
  74.7002984 141.7172450  45.3590648  74.4180579 143.2012949  45.4581439
  85.9707479 137.6608973  34.9329226  86.6743330 137.8658975  35.5486881
  85.2470128 138.2285735  35.1978309  86.8005290 133.4118834  41.0531496
  86.7440491 133.8687385  40.2139128  87.3533632 132.6509518  40.8754339
  90.6110096 129.2008566  41.8781615  90.3547030 128.8005201  42.7089823
  89.9862964 129.9152360  41.7531754  94.9222434 131.9404639  44.3852907
  94.3621992 132.0097828  45.1584469  94.3165937 131.7645624  43.6652403
  77.9917642 143.3741366  46.1371093  77.8750027 144.3186799  46.0349783
  77.1710089 143.0714928  46.5256892  87.8794177 138.0991502  36.9827686
  88.7139781 137.6672700  36.8005160  87.7178520 137.9273516  37.9104580
  87.5340069 134.6023615  38.3484025  87.4788873 134.4367887  37.4072469
  86.9086124 135.3099648  38.5046215  72.3232584 129.8391680  52.1745447
  72.9691448 129.3290633  52.6632672  72.1149735 130.5760361  52.7488872
  84.8485976 136.9072527  57.6737588  85.7177136 137.0813179  57.3124223
  84.3692728 137.7266944  57.5513317  80.8436195 124.1031724  37.9269343
  80.8314864 125.0473564  38.0837614  81.7359616 123.9201870  37.6328805
  79.0172156 144.0269628  49.3527021  79.9199403 144.0593238  49.6693516
  78.7909527 143.0970079  49.3673357  80.7725758 142.7800615  46.0137100
  79.8221390 142.7802476  45.9001472  81.0758245 142.0333349  45.4973135
  84.6588314 120.6974501  42.1815280  83.8920710 120.1432987  42.3271963
  85.0699019 120.7696370  43.0429432  76.6630075 126.9859297  56.2720461
  77.5261537 126.6296101  56.4823786  76.0895486 126.6473191  56.9595866
  96.5078452 148.6161153  47.0782862  97.1456862 148.4967900  46.3746203
  96.3899295 149.5641997  47.1370815  93.3168158 148.5688581  47.0144387
  92.9786670 148.4529646  46.1264922  94.1857926 148.1679746  46.9945393
  89.1754974 150.4224057  43.0041278  88.6119839 150.3313994  42.2357566
  89.0607369 149.6023962  43.4843771  93.7987941 149.7223433  52.9730593
  93.7876582 149.3276231  52.1011096  93.9608581 148.9889505  53.5664364
  86.7219406 151.9175249  45.8425499  87.5140698 151.5766074  45.4271798
  86.9616056 152.0270224  46.7627652  88.6810160 151.1784162  38.7142877
  89.4541036 150.6313149  38.5755753  89.0335559 152.0428412  38.9257339
  90.5195202 152.5060545  51.9209777  90.2285068 153.4106175  51.8056443
  91.1552187 152.5477072  52.6353846  91.4451409 149.8837393  48.5111136
  92.0414982 149.6593415  47.7968099  91.5026381 149.1422139  49.1136584
  96.0619720 146.3412607  44.1536070  96.8482810 145.9232030  43.8026487
  96.3258425 147.2458699  44.3217719 101.4628148 146.2787840  45.0569049
 102.1953320 145.7087057  45.2906878 100.7067503 145.8909440  45.4975555
  90.7372726 149.2404934  38.5485702  90.6208984 148.5649838  39.2166787
  90.8474986 148.7537308  37.7317855  93.0804267 148.7015081  42.2532391
  92.7162475 148.1745702  42.9645313  93.9371383 148.3113551  42.0798877
  98.9853568 139.9909414  49.5163658  98.6536893 140.8604825  49.2924873
  98.3899181 139.6745698  50.1957688  92.7209754 143.7304981  37.2493740
  92.8884157 144.5985218  37.6164211  92.5306923 143.8932263  36.3255029
  95.4785087 152.1921960  48.9159570  95.1785811 153.0946999  48.8075378
  95.1336147 151.9254143  49.7680723  88.9297569 148.6435757  44.9496275
  88.0048065 148.5111971  45.1573967  89.1781982 149.4229976  45.4466217
  98.8782231 144.7104500  46.5957008  97.9699109 144.6419909  46.3015769
  98.8269827 145.1876445  47.4238833  92.6998975 146.1862639  38.2340407
  92.5798600 146.6319689  39.0725887  92.0051564 146.5347956  37.6753945
  86.2906380 148.2869030  45.7840064  86.4198761 148.5403509  46.6979476
  85.6103831 148.8796738  45.4644719  92.9523097 146.1294146  54.5391905
  92.1756431 146.6888066  54.5294770  93.5913660 146.6150929  55.0606775
 100.7443878 142.9120939  48.3734882 100.1018258 143.2053472  47.7274676
 100.2398806 142.7973859  49.1788078  91.2069469 148.9379599  54.1009872
  91.9484154 149.4764643  53.8244696  90.5006455 149.5645888  54.2581424
  96.6824809 151.0808740  52.6982033  97.0908165 150.6391150  51.9536666
  95.9602071 150.5061367  52.9516226  93.0355879 146.0181346  50.0715590
  93.8817074 146.4420760  50.2150239  92.9754517 145.3614971  50.7654153
  97.0053624 151.6409930  46.4534322  96.3762486 151.8055644  45.7510390
  96.6179286 152.0551540  47.2245286  96.1855324 143.6785715  51.7296764
  95.9416256 144.4327775  51.1931040  96.4615255 144.0571062  52.5644011
  98.1393787 150.2224327  50.4074030  98.3510682 150.8656087  49.7308411
  98.0923535 149.3886644  49.9395960  95.7420016 142.8342148  47.3110602
  94.8804495 143.1323401  47.6027339  95.7682451 143.0512547  46.3791634
  92.5581586 151.3784338  43.7184407  93.0219931 151.6572041  42.9289030
  92.2938384 150.4767783  43.5357498  89.4505667 150.9255820  46.6564171
  90.0207024 151.3543088  46.0181655  90.0413778 150.6438405  47.3548356
  91.4950472 147.5007491  40.5273973  92.1974515 147.9528534  40.9947899
  91.1631100 146.8591310  41.1553866  89.9430833 146.0919247  54.9025182
  89.3129494 146.7735528  55.1360579  89.8366921 145.9802329  53.9578320
  85.2375806 145.7591043  45.8291106  84.4474860 146.0148572  45.3531217
  85.7287053 146.5739381  45.9343147  99.2539615 153.0996283  48.5796387
 100.0757059 152.6976470  48.2979069  99.2502018 152.9964517  49.5312503
  87.1890551 146.1235623  42.7874583  86.3921714 146.2354317  43.3058078
  86.9616143 146.4622275  41.9215473  93.0196219 152.6480326  50.7357097
  93.0840651 153.1100733  51.5715269  92.3107142 152.0177691  50.8639407
  83.5213509 146.0121534  48.2606097  83.7721547 146.8968544  48.5263673
  84.0573057 145.8326135  47.4881189  89.2211576 140.3940013  57.2650433
  88.8278521 139.8406212  57.9398077  90.0377716 140.7050592  57.6556950
  86.1873634 151.8323871  41.1764003  86.6998154 152.6267122  41.3269568
  86.8396346 151.1350162  41.1097604  92.1379537 141.8097892  54.8570690
  92.8789250 142.4105045  54.7775152  92.3697460 141.0675530  54.2988732
  87.2820875 146.9954260  53.1348919  87.1674390 146.0939517  53.4356018
  86.4265393 147.2417956  52.7833736  94.3612713 154.9372000  54.7336420
  93.9176567 154.1508378  54.4157324  95.0229926 155.1251150  54.0680311
  92.9167005 152.7318929  53.6041329  93.4495342 151.9707217  53.3740637
  92.3881086 152.4392581  54.3465484  96.0836700 137.8378995  49.1334971
  95.7400969 138.7280637  49.0574082  96.4515662 137.6480653  48.2704556
  84.1522550 150.1612526  41.9523573  84.9897772 150.5709534  41.7357281
  84.3300818 149.2211968  41.9223767  93.6334094 142.6737307  42.6992645
  92.7775690 142.2844158  42.5198283  94.0461045 142.7529268  41.8392430
  95.1633240 140.2083650  47.0984204  94.6598036 140.1713786  46.2852010
  95.4563847 141.1176393  47.1580861  91.4076126 140.2922380  46.1050386
  92.2729123 140.0965189  45.7456276  91.4753635 140.0632732  47.0319743
  95.8373286 145.7014698  39.4667187  95.5323421 146.0160848  40.3177331
  96.7903728 145.7796118  39.5094520  94.2819718 151.8604922  41.1160141
  93.7541079 151.1257681  40.8033379  93.7807220 152.6379598  40.8700110
  99.2612564 150.0553942  46.2327188  98.6036238 150.7453204  46.3207316
 100.0652963 150.4450374  46.5761174  89.0138445 142.5224588  43.4766753
  89.5882197 142.2999770  42.7439946  89.6009428 142.5913283  44.2295354
  98.0718022 148.4098315  44.2831130  98.5849904 149.0428307  44.7852839
  98.7219246 147.8099510  43.9174490  89.3408032 144.5529049  37.4962638
  88.5045344 144.8903736  37.8171913  89.2012802 144.4178029  36.5589775
  91.3161113 139.3965837  42.2041822  90.6625525 139.0814854  41.5798437
  91.2741587 138.7741577  42.9301645  94.5498853 145.8847771  46.5289470
  93.6321415 146.1062718  46.3711158  94.9658997 145.9594081  45.6701177
  95.3333901 147.2839186  41.6592150  96.0805720 147.7960583  41.3499272
  95.6025490 146.9623239  42.5196544  97.7812738 144.3196302  43.6410940
  97.0435495 143.8073689  43.9721182  98.0339512 143.8796684  42.8294216
  97.8824365 137.0972554  44.2352709  98.1883242 136.2369918  43.9478624
  98.6076970 137.6890175  44.0351703  84.1748722 147.5003241  42.6234307
  83.9773121 146.9072602  41.8985373  83.6195386 147.1955451  43.3410246
  92.1545445 147.3926348  44.7428900  92.2094055 146.4400184  44.6671377
  91.3436647 147.5485787  45.2270198  90.0937805 146.0103407  42.5019279
  89.2805671 146.3097578  42.9084471  90.5896799 145.6159096  43.2193761
  95.6912017 146.4745232  51.3334173  96.0461404 146.7016705  52.1928638
  96.3384148 146.8063609  50.7111428  89.5851880 143.5821763  48.1180514
  90.2251259 143.4410522  47.4203477  88.7529410 143.2956276  47.7419116
 101.4479133 151.6640195  47.0494773 101.8815640 151.5715484  47.8977827
 102.1610714 151.6397695  46.4114789  90.3612184 152.8824193  44.2315506
  91.1552782 152.3874513  44.0298081  89.6503876 152.3542056  43.8683212
  95.1807028 155.2642289  48.5827874  95.2344051 155.8333225  49.3505590
  94.3121810 155.4344174  48.2181911  86.6694947 147.0267275  40.3075259
  85.7392535 146.9651730  40.5245221  86.7652419 146.5043228  39.5111900
  86.5880496 143.5522088  42.8953501  86.8487314 144.4667421  42.7862661
  87.4097669 143.0846530  43.0450113  88.0605422 144.9659845  50.0652325
  88.7328475 144.7577207  49.4164974  87.2335208 144.7681931  49.6257557
  93.9630994 141.5921786  52.0817986  93.3158909 142.2911736  51.9882462
  94.7332009 142.0257930  52.4494234  97.3709792 151.8570638  55.1568539
  97.2195298 151.6281190  54.2398623  97.3614471 152.8141239  55.1699884
  94.1395128 149.4302551  50.1414806  95.0687188 149.5813710  49.9683773
  93.7186158 149.5186572  49.2863452  92.9383460 153.4553215  47.9113343
  92.7994545 153.0872000  48.7839281  92.1498056 153.9700855  47.7397301
  94.4888675 152.8334818  45.3002181  94.1538508 152.7935588  46.1959831
  93.9892621 152.1679534  44.8272591  88.4632919 148.2402448  50.8254762
  88.3252717 147.5082687  51.4266301  89.3737842 148.1511348  50.5438950
  91.0915220 147.9522407  50.3138442  91.8014838 147.3115599  50.2725060
  91.0484528 148.2035302  51.2364623  89.8044153 144.9387625  52.1334081
  89.2681511 144.4878364  52.7855678  89.2160862 145.0733534  51.3904546
  89.2146412 144.3976277  34.6960545  88.3375879 144.2765077  34.3322792
  89.6904166 143.6062355  34.4439434  99.0819405 152.8529345  51.4659001
  98.1946184 152.5155266  51.5885400  99.6517957 152.1212376  51.7027766
  80.7348553 149.1853436  44.7902052  81.4219592 148.8715166  44.2023068
  80.5796681 150.0894801  44.5169304  85.5383275 144.0743633  49.2187076
  85.4541463 143.4669302  48.4837486  84.7165981 144.5652651  49.2196572
  95.7106989 142.5597196  44.5857271  96.2075688 141.8067159  44.2658341
  94.9393970 142.5961513  44.0200480 103.5636746 148.2637562  46.2275562
 103.5526622 149.1462277  45.8569496 102.6954125 147.9109113  46.0330100
  96.7936769 151.3168884  42.1595694  95.8593048 151.4370346  41.9900399
  96.9713438 150.4141350  41.8955704  92.2941957 144.7014579  44.3128956
  91.9239745 144.1485620  45.0009861  92.7901050 144.0972713  43.7603956
 100.1809321 147.1586203  42.6945728 100.6469773 147.9914194  42.6206031
 100.6316821 146.6931184  43.3990987  98.1525983 139.5266790  46.7336630
  97.2389063 139.7571017  46.9018837  98.5819085 139.6105234  47.5850662
  97.9232442 147.7156682  49.2336524  97.2703892 147.9632589  48.5788977
  98.3012822 146.9020820  48.8999001  93.9720015 148.4576493  55.7202561
  93.2960652 148.3570622  56.3904936  94.7947649 148.3015707  56.1838558
  80.3116529 147.2654030  47.0619519  80.3500628 146.7317620  47.8556637
  79.8056822 146.7389235  46.4430496  87.6907291 142.1118570  50.5582062
  87.7548618 142.9733401  50.1459459  87.6274411 141.4992572  49.8254420
  87.1659564 144.1841703  54.2055096  87.7931602 143.8018780  54.8192620
  86.3087482 143.9655905  54.5710788  83.9425106 145.9918132  40.1373451
  84.2378547 145.0828810  40.0840504  83.0413142 145.9705871  39.8154453
  87.4719353 144.0674128  46.1200999  86.7505939 144.6810096  45.9808473
  88.2612609 144.6031893  46.0417645  90.2745667 141.4028555  52.3941651
  90.7980069 141.6490851  53.1567960  90.0558000 142.2348590  51.9744788
  85.6712948 143.6732229  40.2612776  85.3425654 142.7929608  40.0787882
  86.0252319 143.6179898  41.1489165  94.9192527 155.3087132  44.7707761
  94.7717489 154.3803840  44.9515331  95.7446020 155.3307223  44.2864837
  88.7854771 143.9605199  40.6288254  89.1250844 144.4891120  39.9066862
  89.2326892 144.2985605  41.4046820  91.4798212 142.3442250  50.0791322
  91.1395032 141.5450063  50.4812001  90.7737218 142.6443961  49.5068155
  92.1314684 139.4291562  48.5318645  92.9540753 138.9552041  48.4097535
  92.3752747 140.2082046  49.0317331  90.7722918 142.4579821  38.8281546
  91.4931281 142.8361074  38.3245263  90.1488222 143.1768698  38.9316524
  94.9154041 143.1624970  39.7639879  95.1317655 144.0449608  39.4628707
  94.4348108 142.7711183  39.0345521  89.6553262 146.1210683  46.3410623
  89.5097843 146.4350986  47.2334905  89.1778466 146.7395583  45.7881522
  91.5149645 143.1113231  46.3891513  91.5011214 142.2154324  46.0523811
  92.2322073 143.1183895  47.0229799  93.3675776 143.5450571  48.4344640
  93.1093554 144.4667642  48.4328971  92.8360816 143.1481006  49.1245104
  84.1298925 148.6616027  49.2798284  83.5852393 149.4375835  49.4118559
  85.0078274 149.0086832  49.1217406  90.9186541 141.9927611  41.6579083
  91.0402452 141.0644257  41.8569970  90.6288584 142.0066297  40.7457398
  93.7877732 139.6782522  44.7945803  93.8099428 139.7421855  43.8397782
  94.2045791 138.8387030  44.9886309 104.1661356 149.4137781  42.8325025
 104.6092502 148.6645106  42.4344149 103.2887866 149.4047918  42.4498757
  84.9164946 147.7885924  52.1728441  84.1746683 147.9368559  52.7593072
  84.5957691 148.0494189  51.3095191  90.4027621 143.5059609  55.8669016
  90.4515776 144.3821731  55.4846785  90.9450135 142.9637002  55.2940659
 101.0080342 150.8993198  52.4602881 101.0578346 150.7343206  53.4018404
 100.8994265 150.0320457  52.0700762  98.2984104 146.8824126  53.7762188
  99.1993967 146.7430591  53.4846186  98.3732078 147.0478581  54.7160365
  92.6326909 144.2590981  52.6215374  91.7630219 144.5524547  52.3497963
  92.8686390 144.8431426  53.3422638 100.7585727 148.4422754  51.1724961
 101.2339848 148.6350401  50.3643812  99.8351292 148.4981940  50.9268344
  87.6469233 149.6046922  40.7556039  87.4015275 148.7009252  40.9536249
  87.8165148 149.6064072  39.8135517  95.3365943 140.4770598  50.1380795
  95.8547887 141.2131625  49.8127283  94.9821076 140.7834591  50.9727554
  86.9164881 145.3375279  38.2542200  86.2234126 145.4119634  37.5982236
  86.6716633 144.5735623  38.7763717  95.5878537 136.8970881  45.6581691
  95.8680291 136.2294070  46.2842118  96.3729144 137.0899976  45.1456355
  99.4587396 145.3188515  49.4053266 100.4104818 145.4186612  49.4265490
  99.2890846 144.5266783  49.9151351  97.4801775 142.4044098  49.5912667
  96.8851707 142.6849110  48.8959156  97.1951472 142.8937999  50.3629408
 101.9375473 148.5394634  48.5195566 101.9051793 147.6010635  48.7055250
 102.5476097 148.6178671  47.7861391 102.0869962 145.3305678  48.5653849
 101.5709011 144.5464134  48.3783778 102.9709910 145.0024394  48.7300369
  99.7480689 139.0746693  44.5249662  99.5505510 138.7661781  45.4092994
 100.3580394 139.8008332  44.6547592 105.8367320 147.7418504  48.2576054
 105.1100484 147.6074469  47.6492546 105.4214607 148.0495332  49.0632772
  93.6597497 151.4608433  56.0223427  94.5800506 151.6387032  56.2163473
  93.6247080 150.5164479  55.8703126  82.8779662 146.6547027  44.9476702
  82.5582446 145.8012335  44.6551076  82.3313090 146.8695605  45.7034669
  86.6559569 149.3709468  48.6646208  86.8745579 150.3026576  48.6834242
  87.0685343 149.0117442  49.4501012  93.5763787 139.8777553  40.6521896
  92.7664515 139.5324638  41.0277143  94.2648204 139.5685097  41.2409508
  95.5054335 138.9555600  42.2746193  96.0585374 139.3751054  42.9336216
  95.7424422 138.0291348  42.3169149  91.5287435 144.9442674  58.0548957
  91.4284162 145.8937031  57.9861048  91.3108977 144.6160913  57.1825027
  90.7300506 142.1927599  34.6389634  91.5919670 142.5182497  34.8985452
  90.9150850 141.4059095  34.1262700  82.7467922 150.2749938  46.9169823
  82.0531393 149.8603891  46.4039778  83.4940913 150.3170475  46.3203242
  98.8833142 141.0656125  41.7824857  98.3031812 141.7240929  41.4002910
  98.6169075 140.2433470  41.3712275  97.3336709 140.4661183  43.9846178
  97.8336487 140.5777717  43.1760497  97.9772317 140.1622236  44.6246986
  91.3918705 148.3739813  56.8714019  90.9085786 149.1740173  57.0777908
  91.4779644 148.3847757  55.9181463  84.6604664 150.2068192  44.7935838
  84.6375352 150.3055880  43.8417721  84.9705301 151.0533343  45.1153004
  87.3192042 152.2644347  48.9082452  88.2735296 152.2328290  48.8412384
  87.1204566 151.8034971  49.7232678  87.9091424 150.8345463  51.4753250
  88.7284313 151.3289542  51.4988087  88.1828232 149.9177431  51.4470818
  97.6658021 143.2256216  40.8381206  96.7783876 143.5105866  40.6201400
  98.0812010 143.0649979  39.9908483 101.0172557 143.2502737  44.5535545
 101.7932947 143.7399189  44.8260162 100.2920691 143.6760791  45.0107414
 103.4545115 143.9630356  45.6109486 104.0489606 143.7226092  44.9002794
 103.5271699 143.2437486  46.2383022  97.6399044 148.7410752  41.0531496
  97.5834246 149.1979303  40.2139128  98.1927387 147.9801436  40.8754339
 101.4503850 144.5300483  41.8781615 101.1940784 144.1297119  42.7089823
 100.8256718 145.2444277  41.7531754 105.7616188 147.2696557  44.3852907
 105.2015746 147.3389746  45.1584469 105.1559691 147.0937541  43.6652403
  83.1626339 145.1683597  52.1745447  83.8085202 144.6582551  52.6632672
  82.9543490 145.9052279  52.7488872  95.6879731 152.2364445  57.6737588
  96.5570890 152.4105097  57.3124223  95.2086482 153.0558861  57.5513317
  91.6829949 139.4323642  37.9269343  91.6708619 140.3765482  38.0837614
  92.5753371 139.2493787  37.6328805  95.4982068 136.0266418  42.1815280
  94.7314464 135.4724905  42.3271963  95.9092773 136.0988287  43.0429432
  87.5023830 142.3151214  56.2720461  88.3655291 141.9588019  56.4823786
  86.9289240 141.9765109  56.9595866  17.9231661  19.4242132  39.6975899
  17.9120302  19.0294930  38.8256403  18.0852301  18.6908204  40.2909671
  14.6438922  22.2079243  38.6455083  14.3528788  23.1124874  38.5301750
  15.2795907  22.2495771  39.3599153  19.6028807  21.8940659  35.6404877
  19.3029530  22.7965698  35.5320684  19.2579867  21.6272842  36.4926030
  17.0766817  15.8312845  41.2637212  16.3000151  16.3906765  41.2540076
  17.7157380  16.3169628  41.7852082  15.3313189  18.6398298  40.8255179
  16.0727874  19.1783342  40.5490002  14.6250175  19.2664587  40.9826730
  20.8068529  20.7827439  39.4227340  21.2151885  20.3409849  38.6781972
  20.0845790  20.2080066  39.6761533  22.2637507  19.9243026  37.1319336
  22.4754402  20.5674786  36.4553717  22.2167255  19.0905343  36.6641266
  23.3783335  22.8014981  35.3041694  24.2000779  22.3995169  35.0224375
  23.3745738  22.6983216  36.2557809  17.1439938  22.3499025  37.4602404
  17.2084371  22.8119432  38.2960576  16.4350862  21.7196390  37.5884714
  18.4856432  24.6390699  41.4581726  18.0420287  23.8527077  41.1402631
  19.1473646  24.8269849  40.7925617  13.2443554  26.1686500  35.9842405
  13.7950979  26.0403564  35.2119399  12.4055029  26.4681389  35.6337298
  20.5837670  24.9193499  39.4863128  20.5656146  25.7402380  38.9943397
  21.5057591  24.7947574  39.7113269  17.0410725  22.4337628  40.3286636
  17.5739061  21.6725916  40.0985944  16.5124806  22.1411280  41.0710791
  25.5722853  21.3658893  33.7740080  26.0059360  21.2734183  34.6223134
  26.2854434  21.3416394  33.1360096  19.3050748  24.9660988  35.3073180
  19.3587770  25.5351924  36.0750896  18.4365529  25.1362873  34.9427218
  26.4338403  21.4082594  36.3072965  26.6274293  22.3128405  36.5532240
  26.3339021  20.9490013  37.1411550  21.4953511  21.5589337  41.8813846
  21.3439018  21.3299889  40.9643930  21.4858191  22.5159938  41.8945191
  23.2045718  24.5908459  39.9590328  23.1458264  23.9067680  39.2920911
  23.6065236  25.3327449  39.5070954  12.2236417  31.4070373  32.7524047
  12.4633015  32.0388897  33.4303065  11.3805613  31.0558413  33.0389406
  23.2063125  22.5548043  38.1904307  22.3189904  22.2173965  38.3130706
  23.7761676  21.8231075  38.4273073  16.7364279  27.2149496  35.1565551
  16.6634450  28.0204467  35.6684855  16.2941672  27.4141462  34.3313572
  19.1962962  27.1136330  37.3123709  19.9090934  27.7483795  37.2399611
  18.7052991  27.2100196  36.4963711  14.2474876  24.8630773  38.1329280
  14.9484335  25.4967256  38.2858674  13.7769991  25.2045505  37.3724919
  18.0963735  18.1595192  42.4447868  17.4204372  18.0589321  43.1150243
  18.9191369  18.0034405  42.9083865  16.8386518  29.4662119  36.6805484
  17.3904826  29.6293741  37.4454569  17.1792711  30.0566557  36.0085508
  21.6897392  24.2923377  42.5354138  22.2337296  24.9053335  42.0409093
  21.1084237  24.8502955  43.0521151  19.9754905  27.4144095  33.6669166
  19.8506044  26.6133835  33.1580111  20.6333996  27.9090288  33.1783136
  22.0389813  25.2153115  35.2948716  21.0920149  25.0958466  35.2227043
  22.3872586  24.3275613  35.3774977  22.6470368  25.8334390  32.5817941
  23.5716916  25.6277251  32.4442392  22.4785672  25.5850791  33.4907282
  16.9852329  27.0320601  38.6954138  17.2939455  26.7869748  39.5676838
  17.7827811  27.2367239  38.2073008  25.0126186  23.7519431  41.8715459
  24.2221730  23.7343570  41.3319959  24.7759541  24.2907724  42.6264496
  25.1324061  20.6011897  39.1848188  25.1822066  20.4361905  40.1263711
  25.0237985  19.7339156  38.7946069  22.4227824  16.5842825  40.5007494
  23.3237686  16.4449290  40.2091492  22.4975798  16.7497280  41.4405672
  26.6342258  23.0208839  39.4290209  26.3427066  23.3838819  40.2653670
  26.0214389  22.3075847  39.2503541  24.8829446  18.1441453  37.8970267
  25.3583568  18.3369100  37.0889119  23.9595012  18.2000639  37.6513651
  26.0619193  18.2413333  35.2440873  26.0295513  17.3029334  35.4300556
  26.6719817  18.3197370  34.5106697  31.8795743  19.3029340  34.3846909
  32.6099132  19.0414628  34.9454613  31.2702689  18.5658062  34.4248977
  29.9611040  17.4437202  34.9821361  29.2344204  17.3093167  34.3737852
  29.5458327  17.7514031  35.7878079  17.7841217  21.1627132  42.7468734
  18.7044226  21.3405731  42.9408780  17.7490800  20.2183178  42.5948433
  15.6531154  14.6461373  44.7794264  15.5527881  15.5955730  44.7106355
  15.4352697  14.3179611  43.9070334  15.5162425  18.0758511  43.5959325
  15.0329506  18.8758872  43.8023214  15.6023364  18.0866456  42.6426769
  19.8123451  21.9383144  44.3982894  20.6814610  22.1123796  44.0369529
  19.3330202  22.7577560  44.2758624  13.9809631  29.0580245  36.0772328
  14.8836878  29.0903855  36.3938823  13.7547001  28.1280695  36.0918664
  31.4715926  33.6471769  33.8028169  32.1094336  33.5278517  33.0991509
  31.3536769  34.5952613  33.8616121  28.2805633  33.5999198  33.7389694
  27.9424144  33.4840262  32.8510229  29.1495401  33.1990363  33.7190700
  24.1392448  35.4534674  29.7286585  23.5757313  35.3624611  28.9602872
  24.0244843  34.6334578  30.2089077  28.7625416  34.7534049  39.6975899
  28.7514056  34.3586848  38.8256403  28.9246055  34.0200122  40.2909671
  21.6856880  36.9485866  32.5670805  22.4778172  36.6076690  32.1517104
  21.9253530  37.0580841  33.4872958  29.7192007  39.1205642  25.0401050
  29.0679987  39.7059722  24.6535063  30.5136370  39.6511837  25.0996087
  23.6447634  36.2094779  25.4388184  24.4178510  35.6623766  25.3001060
  23.9973033  37.0739028  25.6502645  25.4832677  37.5371161  38.6455083
  25.1922543  38.4416792  38.5301750  26.1189661  37.5787689  39.3599153
  26.4088884  34.9148010  35.2356443  27.0052456  34.6904032  34.5213406
  26.4663855  34.1732755  35.8381891  31.0257195  31.3723223  30.8781377
  31.8120284  30.9542646  30.5271794  31.2895899  32.2769315  31.0463025
  31.1967272  36.8096074  25.5770034  30.5613105  36.8830700  26.2890939
  30.8664679  37.3989672  24.8989113  36.4265622  31.3098457  31.7814356
  37.1590794  30.7397673  32.0152185  35.6704978  30.9220057  32.2220861
  28.0441742  33.7325698  28.9777698  27.6799949  33.2056319  29.6890620
  28.9008858  33.3424167  28.8044183  33.9491042  25.0220031  36.2408964
  33.6174367  25.8915442  36.0170179  33.3536656  24.7056315  36.9202995
  30.4422562  37.2232577  35.6404877  30.1423285  38.1257615  35.5320684
  30.0973621  36.9564760  36.4926030  23.8935043  33.6746373  31.6741581
  22.9685540  33.5422588  31.8819273  24.1419456  34.4540593  32.1711524
  33.8419706  29.7415117  33.3202314  32.9336583  29.6730525  33.0261075
  33.7907301  30.2187062  34.1484140  21.2543854  33.3179647  32.5085370
  21.3836235  33.5714126  33.4224782  20.5741306  33.9107355  32.1890026
  25.4243342  43.9876897  28.6075845  25.3467371  44.9384722  28.6864325
  24.8204985  43.6422769  29.2650771  27.9160571  31.1604762  41.2637212
  27.1393905  31.7198683  41.2540076  28.5551134  31.6461545  41.7852082
  35.7081352  27.9431555  35.0980188  35.0655732  28.2364088  34.4519983
  35.2036281  27.8284476  35.9033385  33.3621516  31.6894728  25.7866047
  34.2739372  31.9222115  25.6113745  32.8531163  32.2731773  25.2241126
  26.1706944  33.9690216  40.8255179  26.9121628  34.5075260  40.5490002
  25.4643929  34.5956505  40.9826730  31.6462283  36.1119356  39.4227340
  32.0545639  35.6701767  38.6781972  30.9239545  35.5371984  39.6761533
  27.9993353  31.0491963  36.7960897  28.8454549  31.4731377  36.9395546
  27.9391991  30.3925587  37.4899460  31.9691098  36.6720547  33.1779629
  31.3399960  36.8366261  32.4755697  31.5816760  37.0862156  33.9490593
  35.8480330  37.6074985  30.5323993  35.1631368  37.9873886  29.9821026
  35.9324179  38.2170311  31.2655940  31.1492799  28.7096331  38.4542071
  30.9053731  29.4638392  37.9176346  31.4252729  29.0881679  39.2889318
  33.1031261  35.2534944  37.1319336  33.3148157  35.8966704  36.4553717
  33.0561010  34.4197260  36.6641266  30.7057490  27.8652764  34.0355908
  29.8441969  28.1634018  34.3272646  30.7319925  28.0823163  33.1036941
  27.5219060  36.4094955  30.4429714  27.9857405  36.6882658  29.6534337
  27.2575858  35.5078400  30.2602805  24.4143141  35.9566436  33.3809477
  24.9844498  36.3853705  32.7426962  25.0051253  35.6749021  34.0793663
  26.4587946  32.5318107  27.2519279  27.1611989  32.9839151  27.7193206
  26.1268574  31.8901926  27.8799172  24.9068307  31.1229864  41.6270489
  24.2766968  31.8046145  41.8605885  24.8004395  31.0112946  40.6823627
  20.2013280  30.7901660  32.5536413  19.4112334  31.0459188  32.0776523
  20.6924527  31.6049998  32.6588453  34.2177089  38.1306899  35.3041694
  35.0394533  37.7287086  35.0224375  34.2139492  38.0275133  36.2557809
  22.1528025  31.1546239  29.5119889  21.3559189  31.2664933  30.0303385
  21.9253617  31.4932891  28.6460780  27.9833693  37.6790942  37.4602404
  28.0478125  38.1411350  38.2960576  27.2744617  37.0488307  37.5884714
  18.4850983  31.0432150  34.9851404  18.7359021  31.9279160  35.2508979
  19.0210531  30.8636752  34.2126495  42.3083082  34.4745648  31.6526665
  41.5546791  33.9053046  31.4970669  42.4430624  34.4408312  32.5997300
  27.6981711  39.3459050  27.3281384  27.5627385  40.1910586  27.7566232
  28.2391523  39.5478328  26.5647318  24.1849050  25.4250630  43.9895740
  23.7915996  24.8716828  44.6643384  25.0015190  25.7361208  44.3802257
  21.1511108  36.8634488  27.9009309  21.6635628  37.6577738  28.0514874
  21.8033821  36.1660778  27.8342911  22.9605993  39.9800244  29.9832063
  23.1372621  40.9018209  29.7953047  23.7562826  39.6658663  30.4126442
  27.1017011  26.8408509  41.5815996  27.8426725  27.4415662  41.5020459
  27.3334934  26.0986147  41.0234039  22.2458349  32.0264876  39.8594226
  22.1311864  31.1250133  40.1601325  21.3902867  32.2728573  39.5079042
  29.3250187  39.9682616  41.4581726  28.8814041  39.1818995  41.1402631
  29.9867400  40.1561767  40.7925617  24.0837308  41.4978418  35.9842405
  24.6344733  41.3695481  35.2119399  23.2448784  41.7973307  35.6337298
  31.4231425  40.2485416  39.4863128  31.4049900  41.0694297  38.9943397
  32.3451345  40.1239492  39.7113269  27.8804479  37.7629546  40.3286636
  28.4132816  37.0017834  40.0985944  27.3518560  37.4703198  41.0710791
  31.0474174  22.8689612  35.8580278  30.7038443  23.7591253  35.7819388
  31.4153137  22.6791269  34.9949863  19.1160025  35.1923142  28.6768880
  19.9535247  35.6020151  28.4602588  19.2938292  34.2522584  28.6469074
  31.0124457  32.8598223  24.3652713  30.4971080  33.6302828  24.6041100
  30.7401765  32.1863359  24.9885774  28.5971568  27.7047924  29.4237951
  27.7413164  27.3154774  29.2443590  29.0098520  27.7839884  28.5637737
  30.1270714  25.2394267  33.8229511  29.6235510  25.2024402  33.0097316
  30.4201321  26.1487010  33.8826168  26.3713600  25.3232997  32.8295693
  27.2366597  25.1275805  32.4701582  26.4391109  25.0943348  33.7565050
  35.9858731  35.6130578  26.3005886  35.2088174  35.2741737  25.8561049
  36.6650212  35.6183201  25.6260851  30.8010760  30.7325315  26.1912494
  30.4960896  31.0471464  27.0422637  31.7541202  30.8106735  26.2339827
  29.2457192  36.8915538  27.8405448  28.7178553  36.1568298  27.5278686
  28.7444695  37.6690215  27.5945416  34.2250038  35.0864559  32.9572494
  33.5673712  35.7763820  33.0452623  35.0290437  35.4760991  33.3006481
  33.0355497  33.4408931  31.0076436  33.5487378  34.0738923  31.5098146
  33.6856721  32.8410127  30.6419796  30.2977871  43.4193256  23.7637107
  29.6239570  43.7224953  24.3722065  30.6843693  44.2222336  23.4142564
  29.5136328  30.9158387  33.2534777  28.5958889  31.1373334  33.0956465
  29.9296471  30.9904698  32.3946484  30.2971375  32.3149803  28.3837457
  31.0443194  32.8271200  28.0744579  30.5662965  31.9933855  29.2441851
  28.5698025  34.8108343  25.3664411  27.6609245  34.5267376  25.4636881
  28.5993109  35.2307422  24.5067718  33.8017293  38.4214933  29.1355579
  33.3479620  37.5805843  29.1920769  33.1711260  39.0576331  29.4730359
  32.7450212  29.3506919  30.3656246  32.0072969  28.8384305  30.6966489
  32.9976986  28.9107301  29.5539523  32.2450232  40.2591430  30.0705397
  32.5373206  40.8196487  29.3517763  32.7548853  40.5519991  30.8258556
  32.8461840  22.1283171  30.9598016  33.1520717  21.2680534  30.6723931
  33.5714445  22.7200791  30.7597009  27.1182919  32.4236964  31.4674207
  27.1731529  31.4710800  31.3916683  26.3074122  32.5796403  31.9515505
  25.0575279  31.0414024  29.2264585  24.2443145  31.3408194  29.6329778
  25.5534274  30.6469713  29.9439068  27.2083857  41.0371781  31.1598850
  27.1660036  41.2632627  30.2307382  28.1246556  40.8035155  31.3084651
  30.6549491  31.5055848  38.0579479  31.0098879  31.7327321  38.9173945
  31.3021622  31.8374225  37.4356735  36.3847228  34.6274284  28.7628808
  36.2465127  34.8175880  27.8349998  36.0283447  35.3893667  29.2196860
  24.5489354  28.6132379  34.8425820  25.1888733  28.4721138  34.1448784
  23.7166885  28.3266893  34.4664422  36.4116608  36.6950811  33.7740080
  36.8453114  36.6026100  34.6223134  37.1248188  36.6708312  33.1360096
  25.3249658  37.9134810  30.9560813  26.1190257  37.4185130  30.7543388
  24.6141350  37.3852673  30.5928518  30.1444503  40.2952905  35.3073180
  30.1981525  40.8643842  36.0750896  29.2759284  40.4654790  34.9427218
  23.0242896  29.9970461  36.7897632  23.6965949  29.7887824  36.1410281
  22.1972682  29.7992547  36.3502864  37.2732157  36.7374512  36.3072965
  37.4668047  37.6420322  36.5532240  37.1732775  36.2781931  37.1411550
  28.9268468  26.6232402  38.8063293  28.2796383  27.3222352  38.7127769
  29.6969483  27.0568546  39.1739541  32.3347266  36.8881255  41.8813846
  32.1832772  36.6591806  40.9643930  32.3251945  37.8451856  41.8945191
  29.1032602  34.4613167  36.8660112  30.0324662  34.6124327  36.6929080
  28.6823632  34.5497188  36.0108759  27.9020934  38.4863832  34.6358650
  27.7632020  38.1182616  35.5084588  27.1135530  39.0011471  34.4642608
  28.4969086  43.5872928  25.9784186  28.6720842  43.1160971  26.7929809
  27.8101874  44.2138694  26.2065447  29.4526149  37.8645434  32.0247488
  29.1175982  37.8246204  32.9205138  28.9530095  37.1990150  31.5517898
  23.4270393  33.2713064  37.5500069  23.2890191  32.5393303  38.1511608
  24.3375317  33.1821965  37.2684257  26.0552694  32.9833024  37.0383749
  26.7652312  32.3426216  36.9970367  26.0122002  33.2345919  37.9609929
  34.0439473  39.9200377  39.9590328  33.9852019  39.2359597  39.2920911
  34.4458991  40.6619367  39.5070954  24.7681628  29.9698242  38.8579388
  24.2318985  29.5188980  39.5100984  24.1798336  30.1044150  38.1149852
  23.0630171  46.7362291  32.7524047  23.3026770  47.3680815  33.4303065
  22.2199368  46.3850331  33.0389406  34.0456880  37.8839961  38.1904307
  33.1583659  37.5465883  38.3130706  34.6155431  37.1522992  38.4273073
  15.6986027  34.2164053  31.5147359  16.3857067  33.9025783  30.9268374
  15.5434156  35.1205417  31.2414610  20.5020749  29.1054249  35.9432383
  20.4178938  28.4979919  35.2082792  19.6803455  29.5963268  35.9441879
  27.5758033  42.5441413  35.1565551  27.5028205  43.3496385  35.6684855
  27.1335426  42.7433379  34.3313572  27.3647813  41.7813183  28.6668372
  26.5815335  42.3234864  28.7606597  28.0640558  42.2987163  29.0662613
  30.6744463  27.5907813  31.3102578  31.1713162  26.8377775  30.9903648
  29.9031444  27.6272130  30.7445787  38.5274220  33.2948178  32.9520869
  38.5164097  34.1772894  32.5814802  37.6591600  32.9419729  32.7575406
  30.0356717  42.4428247  37.3123709  30.7484689  43.0775712  37.2399611
  29.5446745  42.5392113  36.4963711  31.7574244  36.3479500  28.8841001
  30.8230522  36.4680963  28.7145705  31.9350912  35.4451967  28.6201011
  27.2579432  29.7325196  31.0374262  26.8877219  29.1796236  31.7255168
  27.7538524  29.1283329  30.4849262  35.1446795  32.1896819  29.4191035
  35.6107247  33.0224811  29.3451338  35.5954295  31.7241801  30.1236294
  25.0868630  40.1922691  38.1329280  25.7878090  40.8259174  38.2858674
  24.6163745  40.5337422  37.3724919  33.2123026  38.5340641  26.4177187
  33.4882870  38.4197235  27.3271061  32.3427525  38.1358126  26.3789360
  33.1163458  24.5577406  33.4581936  32.2026538  24.7881633  33.6264143
  33.5456559  24.6415850  34.3095969  32.8869916  32.7467298  35.9581830
  32.2341366  32.9943206  35.3034283  33.2650296  31.9331437  35.6244308
  29.8477090  42.7826992  30.0610001  30.0299485  41.9648647  30.5237753
  30.6710076  42.9994684  29.6234891  30.1819256  41.7095177  27.3225049
  30.7107022  41.1987631  26.7095211  30.4447475  41.3937707  28.1870582
  28.9357489  33.4887109  42.4447868  28.2598126  33.3881239  43.1150243
  29.7585123  33.3326323  42.9083865  20.6836348  39.7259046  35.0660383
  21.2689785  38.9802734  35.1988287  20.4861187  40.0363003  35.9497047
  23.5375004  42.7610293  30.0822825  22.8685379  43.2456421  29.5986865
  23.3987873  43.0079514  30.9966204  15.2754003  32.2964646  33.7864826
  15.3138103  31.7628237  34.5801944  14.7694296  31.7699852  33.1675803
  27.6780272  44.7954037  36.6805484  28.2298580  44.9585658  37.4454569
  28.0186466  45.3858475  36.0085508  22.6544765  27.1429187  37.2827368
  22.7186092  28.0044018  36.8704766  22.5911886  26.5303188  36.5499727
  22.1297038  29.2152319  40.9300403  22.7569077  28.8329397  41.5437927
  21.2724957  28.9966521  41.2956095  32.5291146  39.6215294  42.5354138
  33.0731050  40.2345253  42.0409093  31.9477991  40.1794873  43.0521151
  30.8148659  42.7436012  33.6669166  30.6899799  41.9425752  33.1580111
  31.4727750  43.2382206  33.1783136  22.4356828  29.0984745  32.8446306
  21.7143413  29.7120713  32.7053779  23.2250083  29.6342510  32.7662952
  32.8783568  40.5445032  35.2948716  31.9313903  40.4250384  35.2227043
  33.2266341  39.6567531  35.3774977  25.2383141  26.4339171  39.1186958
  25.7617543  26.6801468  39.8813267  25.0195474  27.2659206  38.6990095
  29.8830001  40.3397749  31.4953068  29.7354963  39.4114456  31.6760638
  30.7083495  40.3617839  31.0110143  33.4864123  41.1626307  32.5817941
  34.4110670  40.9569169  32.4442392  33.3179426  40.9142709  33.4907282
  26.4435686  27.3752866  36.8036628  26.1032507  26.5760680  37.2057308
  25.7374692  27.6754577  36.2313461  27.0952158  24.4602179  35.2563951
  27.9178227  23.9862657  35.1342842  27.3390222  25.2392663  35.7562638
  24.6190737  31.1521300  33.0655930  24.4735317  31.4661603  33.9580211
  24.1415940  31.7706200  32.5126829  26.4787120  28.1423848  33.1136819
  26.4648688  27.2464941  32.7769117  27.1959548  28.1494511  33.7475105
  28.3313250  28.5761188  35.1589947  28.0731028  29.4978258  35.1574277
  27.7998291  28.1791622  35.8490411  33.2759439  41.6811975  27.9380032
  33.4496317  41.1158397  27.1853885  33.7688330  42.4812870  27.7559522
  19.0936399  33.6926644  36.0043591  18.5489867  34.4686452  36.1363865
  19.9715749  34.0397448  35.8462712  28.7515206  24.7093138  31.5191109
  28.7736903  24.7732471  30.5643089  29.1683265  23.8697647  31.7131616
  39.1298830  34.4448398  29.5570332  39.5729976  33.6955723  29.1589455
  38.2525341  34.4358534  29.1744064  34.2634612  40.9978739  25.0376931
  34.9585516  41.6185432  25.2564245  34.6057762  40.1474090  25.3129308
  19.8802421  32.8196540  38.8973748  19.1384157  32.9679176  39.4838378
  19.5595165  33.0804806  38.0340497  36.1626035  38.4478445  26.5664261
  36.6877359  38.7865718  25.8413581  36.0748387  37.5125460  26.3827396
  27.8246083  42.3612518  38.6954138  28.1333210  42.1161665  39.5676838
  28.6221565  42.5659157  38.2073008  27.8466695  44.5150428  30.9259514
  27.4071686  44.0226807  31.6192371  28.5974812  43.9723396  30.6851590
  20.3259034  40.7061969  30.9284143  21.1517054  40.4065741  30.5482786
  19.9753086  39.9369591  31.3773931  25.2940568  40.0588437  32.9981816
  24.6720577  39.3959142  32.6984044  25.9645435  40.0849569  32.3155464
  18.5267640  38.6248295  31.8873076  17.6899548  38.1970470  31.7057077
  18.4991285  38.8180739  32.8243867  25.3665095  28.5370225  42.5914322
  25.4153251  29.4132348  42.2092092  25.9087609  27.9947618  42.0185965
  35.8519941  39.0811348  41.8715459  35.0615484  39.0635487  41.3319959
  35.6153295  39.6199642  42.6264496  35.9717816  35.9303815  39.1848188
  36.0215821  35.7653822  40.1263711  35.8631739  35.0631074  38.7946069
  24.8554075  38.6092361  26.4740277  25.0042195  39.2927825  25.8206949
  25.6620518  38.5897451  26.9889732  33.2621578  31.9134743  40.5007494
  34.1631441  31.7741208  40.2091492  33.3369553  32.0789198  41.4405672
  27.5964384  29.2901598  39.3460681  26.7267693  29.5835164  39.0743269
  27.8323864  29.8742043  40.0667944  37.4736013  38.3500756  39.4290209
  37.1820821  38.7130737  40.2653670  36.8608144  37.6367765  39.2503541
  38.6731695  35.9153636  31.9492780  39.5078586  36.3543440  32.1130340
  38.8090824  35.4392289  31.1301025  35.7223201  33.4733371  37.8970267
  36.1977323  33.6661017  37.0889119  34.7988766  33.5292557  37.6513651
  22.6106708  34.6357538  27.4801346  22.3652749  33.7319868  27.6781556
  22.7802622  34.6374689  26.5380824  30.3003417  25.5081215  36.8626101
  30.8185361  26.2442241  36.5372590  29.9458550  25.8145208  37.6972860
  30.5516012  21.9281497  32.3826998  30.8317765  21.2604686  33.0087424
  31.3366618  22.1210593  31.8701662  28.3549480  41.1040491  23.9452024
  27.7823447  41.7230678  23.4922496  28.9282274  41.6539853  24.4791946
  34.4224870  30.3499131  36.1298573  35.3742293  30.4497229  36.1510797
  34.2528320  29.5577400  36.6396657  32.4439249  27.4354714  36.3157974
  31.8489181  27.7159727  35.6204462  32.1588946  27.9248615  37.0874715
  31.5746740  41.3877641  25.0760606  32.5077413  41.3223203  25.2793482
  31.4869953  42.2233908  24.6175139  34.2034757  40.7043511  22.0364554
  34.1248388  40.3703375  22.9300312  35.0244423  41.1965279  22.0356026
  36.9012948  33.5705251  35.2440873  36.8689268  32.6321251  35.4300556
  37.5113571  33.6489287  34.5106697  37.0507436  30.3616294  35.2899156
  36.5346485  29.5774751  35.1029085  37.9347385  30.0335011  35.4545675
  34.7118163  24.1057310  31.2494968  34.5142984  23.7972398  32.1338300
  35.3217869  24.8318949  31.3792898  42.7189498  34.6321258  34.3846909
  43.4492886  34.3706546  34.9454613  42.1096443  33.8949980  34.4248977
  40.8004795  32.7729120  34.9821361  40.0737958  32.6385085  34.3737852
  40.3852082  33.0805949  35.7878079  28.6234971  36.4919050  42.7468734
  29.5437981  36.6697649  42.9408780  28.5884554  35.5475095  42.5948433
  17.8417136  31.6857644  31.6722008  17.5219920  30.8322952  31.3796382
  17.2950564  31.9006222  32.4279976  21.6197044  34.4020085  35.3891515
  21.8383053  35.3337192  35.4079549  22.0322817  34.0428059  36.1746319
  26.4924909  29.9753290  44.7794264  26.3921636  30.9247647  44.7106355
  26.2746451  29.6471529  43.9070334  17.7105396  35.3060555  33.6415130
  17.0168868  34.8914508  33.1285084  18.4578387  35.3481092  33.0448549
  33.8470617  26.0966742  28.5070164  33.2669286  26.7551546  28.1248216
  33.5806549  25.2744086  28.0957582  32.2974183  25.4971799  30.7091484
  32.7973962  25.6088334  29.9005803  32.9409791  25.1932852  31.3492293
  26.3556179  33.4050429  43.5959325  25.8723261  34.2050789  43.8023214
  26.4417118  33.4158374  42.6426769  19.6242139  35.2378809  31.5181145
  19.6012827  35.3366496  30.5663028  19.9342775  36.0843960  31.8398311
  22.2829517  37.2954964  35.6327759  23.2372770  37.2638906  35.5657691
  22.0842040  36.8345588  36.4477985  22.8728899  35.8656080  38.1998557
  23.6921788  36.3600159  38.2233394  23.1465706  34.9488048  38.1716124
  32.6295495  28.2566832  27.5626512  31.7421350  28.5416483  27.3446707
  33.0449484  28.0960596  26.7153789  35.9810031  28.2813353  31.2780852
  36.7570421  28.7709806  31.5505468  35.2558165  28.7071407  31.7352721
  38.4182590  28.9940972  32.3354792  39.0127080  28.7536708  31.6248100
  38.4909173  28.2748103  32.9628328  20.6379745  42.8374583  32.6497957
  20.5034213  42.0774984  32.0835955  20.2211808  43.5615483  32.1826746
  31.7738708  38.0211507  21.6574532  32.4774558  38.2261509  22.2732188
  31.0501357  38.5888269  21.9223616  32.6036519  33.7721368  27.7776802
  32.5471720  34.2289920  26.9384435  33.1564861  33.0112053  27.5999645
  36.4141324  29.5611100  28.6026922  36.1578259  29.1607736  29.4335130
  35.7894193  30.2754894  28.4777061  40.7253662  32.3007173  31.1098213
  40.1653220  32.3700363  31.8829775  40.1197166  32.1248158  30.3897710
  23.7948871  43.7343900  32.8616400  23.6781255  44.6789333  32.7595090
  22.9741317  43.4317462  33.2502199  33.6825406  38.4594036  23.7072992
  34.5171010  38.0275235  23.5250467  33.5209749  38.2876050  24.6349887
  33.3371298  34.9626149  25.0729332  33.2820102  34.7970421  24.1317776
  32.7117353  35.6702182  25.2291521  18.1263813  30.1994214  38.8990754
  18.7722676  29.6893168  39.3877979  17.9180964  30.9362895  39.4734179
  30.6517205  37.2675061  44.3982894  31.5208365  37.4415713  44.0369529
  30.1723957  38.0869478  44.2758624  24.8203385  44.3872162  36.0772328
  25.7230632  44.4195772  36.3938823  24.5940755  43.4572613  36.0918664
  26.5756987  43.1403149  32.7382407  25.6252618  43.1405010  32.6246779
  26.8789473  42.3935883  32.2218441  22.4661304  27.3461831  42.9965768
  23.3292765  26.9898636  43.2069093  21.8926715  27.0075726  43.6841172
  42.3109681  48.9763687  33.8028169  42.9488091  48.8570435  33.0991509
  42.1930524  49.9244531  33.8616121  39.1199387  48.9291115  33.7389694
  38.7817899  48.8132180  32.8510229  39.9889155  48.5282280  33.7190700
  34.9786203  50.7826592  29.7286585  34.4151068  50.6916529  28.9602872
  34.8638598  49.9626496  30.2089077  39.6019170  50.0825967  39.6975899
  39.5907811  49.6878765  38.8256403  39.7639810  49.3492040  40.2909671
  32.5250635  52.2777783  32.5670805  33.3171927  51.9368608  32.1517104
  32.7647285  52.3872758  33.4872958  40.5585761  54.4497559  25.0401050
  39.9073741  55.0351640  24.6535063  41.3530124  54.9803754  25.0996087
  34.4841389  51.5386697  25.4388184  35.2572265  50.9915684  25.3001060
  34.8366788  52.4030946  25.6502645  36.3226431  52.8663079  38.6455083
  36.0316297  53.7708710  38.5301750  36.9583416  52.9079606  39.3599153
  37.2482638  50.2439927  35.2356443  37.8446210  50.0195950  34.5213406
  37.3057610  49.5024673  35.8381891  36.8207666  47.6979363  23.0706634
  37.0733187  47.1760884  22.3090097  35.8832226  47.5345508  23.1733317
  41.8650949  46.7015141  30.8781377  42.6514039  46.2834564  30.5271794
  42.1289654  47.6061233  31.0463025  42.0361027  52.1387991  25.5770034
  41.4006860  52.2122618  26.2890939  41.7058433  52.7281590  24.8989113
  47.2659376  46.6390374  31.7814356  47.9984548  46.0689591  32.0152185
  46.5098732  46.2511975  32.2220861  36.5403955  49.6007469  25.2731009
  36.4240213  48.9252372  25.9412093  36.6506215  49.1139843  24.4563162
  38.8835496  49.0617616  28.9777698  38.5193703  48.5348237  29.6890620
  39.7402612  48.6716085  28.8044183  44.7884797  40.3511948  36.2408964
  44.4568122  41.2207359  36.0170179  44.1930410  40.0348232  36.9202995
  38.5240983  44.0907515  23.9739047  38.6915385  44.9587752  24.3409518
  38.3338152  44.2534797  23.0500336  41.2816316  52.5524494  35.6404877
  40.9817039  53.4549533  35.5320684  40.9367376  52.2856678  36.4926030
  34.7328798  49.0038291  31.6741581  33.8079294  48.8714505  31.8819273
  34.9813211  49.7832510  32.1711524  44.6813460  45.0707034  33.3202314
  43.7730337  45.0022443  33.0261075  44.6301056  45.5478979  34.1484140
  38.5030204  46.5465173  24.9585713  38.3829829  46.9922224  25.7971194
  37.8082792  46.8950491  24.3999252  32.0937609  48.6471565  32.5085370
  32.2229990  48.9006044  33.4224782  31.4135060  49.2399273  32.1890026
  36.2637096  59.3168815  28.6075845  36.1861126  60.2676640  28.6864325
  35.6598740  58.9714687  29.2650771  38.7554326  46.4896680  41.2637212
  37.9787660  47.0490600  41.2540076  39.3944889  46.9753463  41.7852082
  46.5475106  43.2723473  35.0980188  45.9049487  43.5656006  34.4519983
  46.0430035  43.1576393  35.9033385  44.2015270  47.0186646  25.7866047
  45.1133126  47.2514033  25.6113745  43.6924917  47.6023690  25.2241126
  37.0100698  49.2982133  40.8255179  37.7515383  49.8367177  40.5490002
  36.3037684  49.9248422  40.9826730  42.4856038  51.4411274  39.4227340
  42.8939394  50.9993684  38.6781972  41.7633299  50.8663901  39.6761533
  38.8387108  46.3783881  36.7960897  39.6848303  46.8023294  36.9395546
  38.7785746  45.7217505  37.4899460  42.8084852  52.0012465  33.1779629
  42.1793715  52.1658179  32.4755697  42.4210515  52.4154074  33.9490593
  46.6874084  52.9366902  30.5323993  46.0025123  53.3165804  29.9821026
  46.7717934  53.5462229  31.2655940  41.9886553  44.0388249  38.4542071
  41.7447485  44.7930310  37.9176346  42.2646484  44.4173597  39.2889318
  43.9425016  50.5826861  37.1319336  44.1541911  51.2258621  36.4553717
  43.8954764  49.7489178  36.6641266  41.5451245  43.1944682  34.0355908
  40.6835724  43.4925936  34.3272646  41.5713680  43.4115081  33.1036941
  38.3612814  51.7386873  30.4429714  38.8251160  52.0174576  29.6534337
  38.0969612  50.8370317  30.2602805  35.2536895  51.2858354  33.3809477
  35.8238252  51.7145623  32.7426962  35.8445007  51.0040939  34.0793663
  37.2981700  47.8610025  27.2519279  38.0005744  48.3131069  27.7193206
  36.9662329  47.2193844  27.8799172  35.7462062  46.4521782  41.6270489
  35.1160722  47.1338062  41.8605885  35.6398150  46.3404863  40.6823627
  31.0407034  46.1193578  32.5536413  30.2506088  46.3751106  32.0776523
  31.5318282  46.9341915  32.6588453  45.0570844  53.4598817  35.3041694
  45.8788288  53.0579004  35.0224375  45.0533247  53.3567051  36.2557809
  32.9921780  46.4838157  29.5119889  32.1952943  46.5956851  30.0303385
  32.7647372  46.8224809  28.6460780  38.8227447  53.0082860  37.4602404
  38.8871880  53.4703267  38.2960576  38.1138371  52.3780225  37.5884714
  29.3244737  46.3724068  34.9851404  29.5752776  47.2571078  35.2508979
  29.8604286  46.1928670  34.2126495  53.1476837  49.8037565  31.6526665
  52.3940545  49.2344963  31.4970669  53.2824378  49.7700230  32.5997300
  38.5375465  54.6750968  27.3281384  38.4021140  55.5202503  27.7566232
  39.0785278  54.8770245  26.5647318  35.0242805  40.7542547  43.9895740
  34.6309750  40.2008746  44.6643384  35.8408945  41.0653126  44.3802257
  31.9904862  52.1926406  27.9009309  32.5029383  52.9869656  28.0514874
  32.6427575  51.4952696  27.8342911  33.7999747  55.3092162  29.9832063
  33.9766375  56.2310127  29.7953047  34.5956581  54.9950581  30.4126442
  37.9410766  42.1700427  41.5815996  38.6820479  42.7707580  41.5020459
  38.1728688  41.4278064  41.0234039  33.0852104  47.3556794  39.8594226
  32.9705619  46.4542051  40.1601325  32.2296621  47.6020491  39.5079042
  40.1643941  55.2974534  41.4581726  39.7207796  54.5110913  41.1402631
  40.8261155  55.4853685  40.7925617  34.9231063  56.8270336  35.9842405
  35.4738488  56.6987399  35.2119399  34.0842538  57.1265225  35.6337298
  42.2625179  55.5777334  39.4863128  42.2443655  56.3986215  38.9943397
  43.1845100  55.4531409  39.7113269  38.7198234  53.0921464  40.3286636
  39.2526570  52.3309752  40.0985944  38.1912315  52.7995115  41.0710791
  41.8867929  38.1981529  35.8580278  41.5432198  39.0883171  35.7819388
  42.2546891  38.0083187  34.9949863  29.9553779  50.5215060  28.6768880
  30.7929001  50.9312068  28.4602588  30.1332047  49.5814502  28.6469074
  41.8518211  48.1890141  24.3652713  41.3364835  48.9594745  24.6041100
  41.5795520  47.5155277  24.9885774  39.4365322  43.0339841  29.4237951
  38.5806919  42.6446692  29.2443590  39.8492274  43.1131802  28.5637737
  40.9664469  40.5686185  33.8229511  40.4629265  40.5316320  33.0097316
  41.2595076  41.4778927  33.8826168  37.2107355  40.6524914  32.8295693
  38.0760352  40.4567723  32.4701582  37.2784864  40.4235266  33.7565050
  46.8252485  50.9422495  26.3005886  46.0481928  50.6033655  25.8561049
  47.5043966  50.9475118  25.6260851  41.6404514  46.0617233  26.1912494
  41.3354650  46.3763382  27.0422637  42.5934957  46.1398653  26.2339827
  40.0850946  52.2207456  27.8405448  39.5572308  51.4860216  27.5278686
  39.5838449  52.9982132  27.5945416  45.0643792  50.4156476  32.9572494
  44.4067467  51.1055738  33.0452623  45.8684192  50.8052908  33.3006481
  34.8169674  42.8827122  30.2012060  35.3913426  42.6602304  29.4685253
  35.4040656  42.9515817  30.9540661  43.8749251  48.7700849  31.0076436
  44.3881133  49.4030841  31.5098146  44.5250475  48.1702045  30.6419796
  35.1439261  44.9131583  24.2207945  34.3076573  45.2506270  24.5417220
  35.0044031  44.7780563  23.2835082  37.1192342  39.7568371  28.9287129
  36.4656754  39.4417388  28.3043744  37.0772816  39.1344112  29.6546952
  38.2303546  50.0387666  20.8440421  37.3230608  49.8076920  21.0431570
  38.7274578  49.2425286  21.0314403  41.1371625  58.7485173  23.7637107
  40.4633324  59.0516870  24.3722065  41.5237447  59.5514254  23.4142564
  40.3530082  46.2450305  33.2534777  39.4352643  46.4665252  33.0956465
  40.7690226  46.3196615  32.3946484  41.1365130  47.6441720  28.3837457
  41.8836949  48.1563118  28.0744579  41.4056719  47.3225773  29.2441851
  39.4091780  50.1400261  25.3664411  38.5002999  49.8559294  25.4636881
  39.4386864  50.5599340  24.5067718  44.6411047  53.7506851  29.1355579
  44.1873374  52.9097761  29.1920769  44.0105014  54.3868249  29.4730359
  43.5843967  44.6798837  30.3656246  42.8466724  44.1676223  30.6966489
  43.8370740  44.2399218  29.5539523  43.0843987  55.5883347  30.0705397
  43.3766961  56.1488404  29.3517763  43.5942607  55.8811908  30.8258556
  43.6855594  37.4575089  30.9598016  43.9914471  36.5972452  30.6723931
  44.4108199  38.0492709  30.7597009  29.9779950  47.8605775  29.3479613
  29.7804350  47.2675136  28.6230680  29.4226614  47.5557985  30.0655552
  37.9576674  47.7528882  31.4674207  38.0125284  46.8002718  31.3916683
  37.1467876  47.9088321  31.9515505  39.1067868  51.6809005  22.7052490
  38.6687298  50.9644864  22.2458127  39.8478309  51.9085120  22.1437581
  35.8969034  46.3705941  29.2264585  35.0836899  46.6700112  29.6329778
  36.3928028  45.9761630  29.9439068  38.0477612  56.3663698  31.1598850
  38.0053791  56.5924545  30.2307382  38.9640311  56.1327073  31.3084651
  41.4943246  46.8347766  38.0579479  41.8492633  47.0619239  38.9173945
  42.1415377  47.1666143  37.4356735  47.2240983  49.9566202  28.7628808
  47.0858881  50.1467798  27.8349998  46.8677201  50.7185585  29.2196860
  35.3883109  43.9424297  34.8425820  36.0282488  43.8013056  34.1448784
  34.5560639  43.6558810  34.4664422  47.2510362  52.0242729  33.7740080
  47.6846869  51.9318018  34.6223134  47.9641943  52.0000229  33.1360096
  36.1643413  53.2426727  30.9560813  36.9584011  52.7477048  30.7543388
  35.4535105  52.7144591  30.5928518  40.9838257  55.6244823  35.3073180
  41.0375279  56.1935759  36.0750896  40.1153038  55.7946708  34.9427218
  32.4726176  47.3869809  27.0320566  31.5423764  47.3254265  27.2490528
  32.5683648  46.8645762  26.2357207  32.3911725  43.9124622  29.6198807
  32.6518542  44.8269955  29.5107968  33.2128897  43.4449065  29.7695420
  33.8636650  45.3262379  36.7897632  34.5359704  45.1179741  36.1410281
  33.0366437  45.1284465  36.3502864  48.1125912  52.0666429  36.3072965
  48.3061802  52.9712240  36.5532240  48.0126530  51.6073849  37.1411550
  39.7662222  41.9524320  38.8063293  39.1190137  42.6514270  38.7127769
  40.5363238  42.3860464  39.1739541  43.1741020  52.2173172  41.8813846
  43.0226527  51.9883724  40.9643930  43.1645700  53.1743774  41.8945191
  39.9426357  49.7905085  36.8660112  40.8718417  49.9416245  36.6929080
  39.5217387  49.8789106  36.0108759  38.7414689  53.8155749  34.6358650
  38.6025774  53.4474534  35.5084588  37.9529285  54.3303389  34.4642608
  39.3362841  58.9164846  25.9784186  39.5114596  58.4452889  26.7929809
  38.6495629  59.5430612  26.2065447  40.2919904  53.1937352  32.0247488
  39.9569736  53.1538122  32.9205138  39.7923849  52.5282068  31.5517898
  34.2664148  48.6004982  37.5500069  34.1283946  47.8685221  38.1511608
  35.1769071  48.5113882  37.2684257  43.2279095  50.5393386  22.2984547
  42.6108266  49.8140215  22.2017600  42.7595584  51.3002747  21.9551622
  36.8946448  48.3124941  37.0383749  37.6046067  47.6718134  36.9970367
  36.8515756  48.5637836  37.9609929  44.8833227  55.2492295  39.9590328
  44.8245773  54.5651515  39.2920911  45.2852745  55.9911285  39.5070954
  35.6075382  45.2990159  38.8579388  35.0712739  44.8480898  39.5100984
  35.0192091  45.4336068  38.1149852  33.9023926  62.0654209  32.7524047
  34.1420524  62.6972733  33.4303065  33.0593122  61.7142249  33.0389406
  35.0177641  44.7578811  21.4205852  34.1407108  44.6367612  21.0568098
  35.4935394  43.9664889  21.1684740  44.8850634  53.2131879  38.1904307
  43.9977413  52.8757801  38.3130706  45.4549185  52.4814910  38.4273073
  26.5379781  49.5455970  31.5147359  27.2250821  49.2317701  30.9268374
  26.3827910  50.4497335  31.2414610  31.3414504  44.4346167  35.9432383
  31.2572692  43.8271837  35.2082792  30.5197210  44.9255185  35.9441879
  38.4151788  57.8733331  35.1565551  38.3421959  58.6788303  35.6684855
  37.9729181  58.0725297  34.3313572  38.2041567  57.1105101  28.6668372
  37.4209089  57.6526781  28.7606597  38.9034312  57.6279081  29.0662613
  41.5138217  42.9199731  31.3102578  42.0106917  42.1669693  30.9903648
  40.7425199  42.9564047  30.7445787  49.3667975  48.6240096  32.9520869
  49.3557851  49.5064812  32.5814802  48.4985354  48.2711647  32.7575406
  40.8750471  57.7720165  37.3123709  41.5878443  58.4067630  37.2399611
  40.3840500  57.8684031  36.4963711  42.5967998  51.6771418  28.8841001
  41.6624277  51.7972880  28.7145705  42.7744667  50.7743885  28.6201011
  38.0973186  45.0617114  31.0374262  37.7270974  44.5088154  31.7255168
  38.5932279  44.4575247  30.4849262  45.9840549  47.5188737  29.4191035
  46.4501002  48.3516729  29.3451338  46.4348050  47.0533719  30.1236294
  35.9262385  55.5214609  38.1329280  36.6271844  56.1551092  38.2858674
  35.4557500  55.8629340  37.3724919  44.0516781  53.8632558  26.4177187
  44.3276624  53.7489153  27.3271061  43.1821279  53.4650043  26.3789360
  43.9557212  39.8869324  33.4581936  43.0420292  40.1173551  33.6264143
  44.3850314  39.9707768  34.3095969  43.7263671  48.0759216  35.9581830
  43.0735121  48.3235123  35.3034283  44.1044051  47.2623354  35.6244308
  40.6870845  58.1118909  30.0610001  40.8693239  57.2940565  30.5237753
  41.5103831  58.3286601  29.6234891  41.0213010  57.0387094  27.3225049
  41.5500776  56.5279549  26.7095211  41.2841230  56.7229625  28.1870582
  39.7751244  48.8179027  42.4447868  39.0991881  48.7173156  43.1150243
  40.5978878  48.6618241  42.9083865  31.5230103  55.0550964  35.0660383
  32.1083540  54.3094652  35.1988287  31.3254941  55.3654920  35.9497047
  34.3768758  58.0902211  30.0822825  33.7079133  58.5748339  29.5986865
  34.2381628  58.3371431  30.9966204  26.1147758  47.6256564  33.7864826
  26.1531857  47.0920155  34.5801944  25.6088050  47.0991769  33.1675803
  38.5174027  60.1245955  36.6805484  39.0692335  60.2877576  37.4454569
  38.8580220  60.7150392  36.0085508  33.4938520  42.4721104  37.2827368
  33.5579846  43.3335935  36.8704766  33.4305640  41.8595106  36.5499727
  32.9690792  44.5444237  40.9300403  33.5962831  44.1621314  41.5437927
  32.1118711  44.3258439  41.2956095  43.3684901  54.9507212  42.5354138
  43.9124805  55.5637170  42.0409093  42.7871746  55.5086790  43.0521151
  29.7456335  46.3520666  26.8618757  30.0409776  45.4431344  26.8085811
  28.8444371  46.3308405  26.5399760  41.6542414  58.0727930  33.6669166
  41.5293553  57.2717670  33.1580111  42.3121505  58.5674123  33.1783136
  33.2750582  44.4276663  32.8446306  32.5537168  45.0412630  32.7053779
  34.0643838  44.9634427  32.7662952  43.7177322  55.8736950  35.2948716
  42.7707658  55.7542301  35.2227043  44.0660095  54.9859448  35.3774977
  36.0776896  41.7631089  39.1186958  36.6011297  42.0093386  39.8813267
  35.8589229  42.5951124  38.6990095  31.4744177  44.0334764  26.9858082
  31.1456883  43.1532143  26.8033188  31.8283547  43.9782432  27.8734472
  40.7223756  55.6689666  31.4953068  40.5748718  54.7406374  31.6760638
  41.5477249  55.6909757  31.0110143  34.5886000  44.3207733  27.3533560
  34.9282072  44.8493655  26.6312169  35.0358120  44.6588140  28.1292127
  44.3257877  56.4918225  32.5817941  45.2504425  56.2861086  32.4442392
  44.1573181  56.2434626  33.4907282  37.2829441  42.7044784  36.8036628
  36.9426261  41.9052597  37.2057308  36.5768447  43.0046495  36.2313461
  37.9345912  39.7894097  35.2563951  38.7571982  39.3154575  35.1342842
  38.1783976  40.5684580  35.7562638  36.5754147  42.8182355  25.5526853
  37.2962509  43.1963608  25.0490570  35.9519451  43.5371232  25.6561831
  40.7185270  43.5227504  26.4885185  40.9348884  44.4052142  26.1874013
  40.2379337  43.1313717  25.7590827  35.4584491  46.4813217  33.0655930
  35.3129072  46.7953520  33.9580211  34.9809695  47.0998118  32.5126829
  37.3180874  43.4715765  33.1136819  37.3042443  42.5756859  32.7769117
  38.0353302  43.4786429  33.7475105  39.1707005  43.9053105  35.1589947
  38.9124783  44.8270176  35.1574277  38.6392045  43.5083540  35.8490411
  44.1153194  57.0103893  27.9380032  44.2890071  56.4450315  27.1853885
  44.6082085  57.8104787  27.7559522  29.9330153  49.0218562  36.0043591
  29.3883621  49.7978370  36.1363865  30.8109503  49.3689366  35.8462712
  36.7217770  42.3530146  28.3824390  36.8433681  41.4246792  28.5815277
  36.4319812  42.3668831  27.4702705  39.5908960  40.0385056  31.5191109
  39.6130657  40.1024389  30.5643089  40.0077019  39.1989565  31.7131616
  49.9692585  49.7740315  29.5570332  50.4123731  49.0247641  29.1589455
  49.0919095  49.7650452  29.1744064  45.1028366  56.3270657  25.0376931
  45.7979271  56.9477350  25.2564245  45.4451516  55.4766008  25.3129308
  30.7196175  48.1488458  38.8973748  29.9777911  48.2971093  39.4838378
  30.3988920  48.4096724  38.0340497  47.0019789  53.7770362  26.5664261
  47.5271113  54.1157635  25.8413581  46.9142142  52.8417378  26.3827396
  38.6639838  57.6904436  38.6954138  38.9726964  57.4453583  39.5676838
  39.4615320  57.8951075  38.2073008  38.6860450  59.8442346  30.9259514
  38.2465440  59.3518724  31.6192371  39.4368567  59.3015313  30.6851590
  31.1652789  56.0353887  30.9284143  31.9910809  55.7357658  30.5482786
  30.8146841  55.2661509  31.3773931  36.1334322  55.3880355  32.9981816
  35.5114331  54.7251060  32.6984044  36.8039189  55.4141487  32.3155464
  29.3661394  53.9540213  31.8873076  28.5293302  53.5262387  31.7057077
  29.3385039  54.1472656  32.8243867  36.2058850  43.8662143  42.5914322
  36.2547005  44.7424266  42.2092092  36.7481364  43.3239536  42.0185965
  46.6913695  54.4103266  41.8715459  45.9009239  54.3927405  41.3319959
  46.4547050  54.9491560  42.6264496  46.8111570  51.2595732  39.1848188
  46.8609575  51.0945740  40.1263711  46.7025494  50.3922992  38.7946069
  35.6947829  53.9384278  26.4740277  35.8435949  54.6219743  25.8206949
  36.5014272  53.9189368  26.9889732  44.1015333  47.2426661  40.5007494
  45.0025195  47.1033125  40.2091492  44.1763307  47.4081115  41.4405672
  38.4358138  44.6193515  39.3460681  37.5661447  44.9127081  39.0743269
  38.6717618  45.2033960  40.0667944  48.3129767  53.6792674  39.4290209
  48.0214575  54.0422655  40.2653670  47.7001898  52.9659682  39.2503541
  49.5125449  51.2445554  31.9492780  50.3472341  51.6835358  32.1130340
  49.6484578  50.7684207  31.1301025  46.5616955  48.8025289  37.8970267
  47.0371077  48.9952935  37.0889119  45.6382521  48.8584474  37.6513651
  33.4500462  49.9649456  27.4801346  33.2046504  49.0611786  27.6781556
  33.6196377  49.9666606  26.5380824  41.1397172  40.8373132  36.8626101
  41.6579116  41.5734159  36.5372590  40.7852305  41.1437125  37.6972860
  32.7196110  45.6977813  24.9787507  32.0265354  45.7722168  24.3227543
  32.4747861  44.9338157  25.5009024  41.3909766  37.2573415  32.3826998
  41.6711520  36.5896604  33.0087424  42.1760373  37.4502510  31.8701662
  39.1943235  56.4332409  23.9452024  38.6217202  57.0522596  23.4922496
  39.7676028  56.9831770  24.4791946  45.2618624  45.6791049  36.1298573
  46.2136047  45.7789146  36.1510797  45.0922075  44.8869317  36.6396657
  43.2833004  42.7646632  36.3157974  42.6882936  43.0451645  35.6204462
  42.9982701  43.2540533  37.0874715  42.4140494  56.7169559  25.0760606
  43.3471167  56.6515120  25.2793482  42.3263707  57.5525826  24.6175139
  45.0428511  56.0335429  22.0364554  44.9642143  55.6995293  22.9300312
  45.8638178  56.5257197  22.0356026  47.7406702  48.8997168  35.2440873
  47.7083022  47.9613169  35.4300556  48.3507326  48.9781205  34.5106697
  39.5790033  47.7693221  21.2868077  40.5249138  47.6399429  21.3556495
  39.2004278  47.0307883  21.7637505  47.8901191  45.6908212  35.2899156
  47.3740239  44.9066668  35.1029085  48.7741139  45.3626928  35.4545675
  45.5511918  39.4349227  31.2494968  45.3536739  39.1264316  32.1338300
  46.1611623  40.1610866  31.3792898  53.5583252  49.9613175  34.3846909
  54.2886641  49.6998463  34.9454613  52.9490198  49.2241897  34.4248977
  51.6398549  48.1021038  34.9821361  50.9131713  47.9677003  34.3737852
  51.2245836  48.4097866  35.7878079  39.4628726  51.8210968  42.7468734
  40.3831735  51.9989567  42.9408780  39.4278309  50.8767013  42.5948433
  37.7632950  45.6943198  21.2222962  36.8564406  45.3976310  21.2985675
  38.0408931  45.3973016  20.3557248  28.6810891  47.0149561  31.6722008
  28.3613675  46.1614869  31.3796382  28.1344319  47.2298139  32.4279976
  32.4590798  49.7312002  35.3891515  32.6776808  50.6629110  35.4079549
  32.8716572  49.3719977  36.1746319  39.3795016  40.2380087  27.3767203
  38.5695744  39.8927172  27.7522449  40.0679433  39.9287631  27.9654815
  41.3085564  39.3158134  28.9991500  41.8616603  39.7353588  29.6581523
  41.5455651  38.3893882  29.0414456  37.3318663  45.3045208  44.7794264
  37.2315390  46.2539565  44.7106355  37.1140205  44.9763447  43.9070334
  36.5331735  42.5530133  21.3634941  37.3950899  42.8785031  21.6230758
  36.7182079  41.7661629  20.8508007  28.5499151  50.6352473  33.6415130
  27.8562622  50.2206425  33.1285084  29.2972142  50.6773009  33.0448549
  44.6864371  41.4258659  28.5070164  44.1063040  42.0843463  28.1248216
  44.4200304  40.6036004  28.0957582  43.1367938  40.8263717  30.7091484
  43.6367716  40.9380252  29.9005803  43.7803546  40.5224770  31.3492293
  37.1949934  48.7342347  43.5959325  36.7117015  49.5342707  43.8023214
  37.2810873  48.7450292  42.6426769  30.4635893  50.5670726  31.5181145
  30.4406581  50.6658414  30.5663028  30.7736530  51.4135877  31.8398311
  33.1223271  52.6246881  35.6327759  34.0766525  52.5930824  35.5657691
  32.9235795  52.1637505  36.4477985  33.7122653  51.1947998  38.1998557
  34.5315542  51.6892076  38.2233394  33.9859461  50.2779966  38.1716124
  43.4689249  43.5858750  27.5626512  42.5815104  43.8708400  27.3446707
  43.8843238  43.4252513  26.7153789  46.8203785  43.6105271  31.2780852
  47.5964176  44.1001723  31.5505468  46.0951920  44.0363325  31.7352721
  49.2576344  44.3232890  32.3354792  49.8520835  44.0828626  31.6248100
  49.3302928  43.6040021  32.9628328  31.4773500  58.1666501  32.6497957
  31.3427968  57.4066902  32.0835955  31.0605562  58.8907401  32.1826746
  42.6132463  53.3503425  21.6574532  43.3168313  53.5553427  22.2732188
  41.8895112  53.9180186  21.9223616  43.4430273  49.1013286  27.7776802
  43.3865474  49.5581837  26.9384435  43.9958616  48.3403970  27.5999645
  47.2535079  44.8903018  28.6026922  46.9972013  44.4899653  29.4335130
  46.6287947  45.6046812  28.4777061  51.5647417  47.6299091  31.1098213
  51.0046975  47.6992280  31.8829775  50.9590920  47.4540076  30.3897710
  34.6342626  59.0635818  32.8616400  34.5175010  60.0081250  32.7595090
  33.8135072  58.7609380  33.2502199  44.5219160  53.7885954  23.7072992
  45.3564764  53.3567152  23.5250467  44.3603503  53.6167967  24.6349887
  44.1765052  50.2918067  25.0729332  44.1213856  50.1262338  24.1317776
  43.5511108  50.9994100  25.2291521  28.9657567  45.5286131  38.8990754
  29.6116431  45.0185085  39.3877979  28.7574718  46.2654813  39.4734179
  41.4910960  52.5966979  44.3982894  42.3602119  52.7707631  44.0369529
  41.0117711  53.4161396  44.2758624  37.4861178  39.7926176  24.6514650
  37.4739848  40.7368016  24.8082921  38.3784600  39.6096321  24.3574111
  35.6597140  59.7164080  36.0772328  36.5624386  59.7487690  36.3938823
  35.4334510  58.7864531  36.0918664  37.4150742  58.4695066  32.7382407
  36.4646373  58.4696928  32.6246779  37.7183228  57.7227801  32.2218441
  41.3013297  36.3868953  28.9060587  40.5345693  35.8327439  29.0517269
  41.7124002  36.4590821  29.7674738  33.3055058  42.6753748  42.9965768
  34.1686520  42.3190553  43.2069093  32.7320469  42.3367643  43.6841172
  53.1503435  64.3055605  33.8028169  53.7881845  64.1862352  33.0991509
  53.0324278  65.2536449  33.8616121  49.9593142  64.2583033  33.7389694
  49.6211653  64.1424098  32.8510229  50.8282910  63.8574198  33.7190700
  45.8179957  66.1118509  29.7286585  45.2544822  66.0208446  28.9602872
  45.7032352  65.2918414  30.2089077  50.4412925  65.4117885  39.6975899
  50.4301565  65.0170683  38.8256403  50.6033564  64.6783957  40.2909671
  43.3644389  67.6069701  32.5670805  44.1565681  67.2660526  32.1517104
  43.6041039  67.7164676  33.4872958  51.3979516  69.7789477  25.0401050
  50.7467496  70.3643557  24.6535063  52.1923879  70.3095672  25.0996087
  45.3235143  66.8678614  25.4388184  46.0966019  66.3207601  25.3001060
  45.6760542  67.7322864  25.6502645  47.1620186  68.1954996  38.6455083
  46.8710052  69.1000627  38.5301750  47.7977170  68.2371524  39.3599153
  48.0876393  65.5731845  35.2356443  48.6839965  65.3487867  34.5213406
  48.1451364  64.8316590  35.8381891  47.6601421  63.0271280  23.0706634
  47.9126942  62.5052802  22.3090097  46.7225980  62.8637426  23.1733317
  52.7044704  62.0307059  30.8781377  53.4907793  61.6126482  30.5271794
  52.9683408  62.9353151  31.0463025  52.8754781  67.4679909  25.5770034
  52.2400614  67.5414535  26.2890939  52.5452188  68.0573508  24.8989113
  58.1053131  61.9682292  31.7814356  58.8378303  61.3981509  32.0152185
  57.3492487  61.5803892  32.2220861  47.3797710  64.9299386  25.2731009
  47.2633968  64.2544290  25.9412093  47.4899970  64.4431760  24.4563162
  49.7229251  64.3909533  28.9777698  49.3587458  63.8640154  29.6890620
  50.5796367  64.0008002  28.8044183  49.3634738  59.4199433  23.9739047
  49.5309140  60.2879669  24.3409518  49.1731907  59.5826715  23.0500336
  52.1210071  67.8816412  35.6404877  51.8210794  68.7841451  35.5320684
  51.7761130  67.6148595  36.4926030  45.5722552  64.3330209  31.6741581
  44.6473049  64.2006423  31.8819273  45.8206965  65.1124428  32.1711524
  55.5207215  60.3998952  33.3202314  54.6124092  60.3314361  33.0261075
  55.4694810  60.8770897  34.1484140  49.3423958  61.8757091  24.9585713
  49.2223584  62.3214141  25.7971194  48.6476547  62.2242408  24.3999252
  42.9331363  63.9763482  32.5085370  43.0623744  64.2297961  33.4224782
  42.2528815  64.5691190  32.1890026  47.1030851  74.6460732  28.6075845
  47.0254880  75.5968557  28.6864325  46.4992494  74.3006605  29.2650771
  49.5948080  61.8188598  41.2637212  48.8181414  62.3782518  41.2540076
  50.2338643  62.3045381  41.7852082  57.3868861  58.6015391  35.0980188
  56.7443241  58.8947924  34.4519983  56.8823789  58.4868311  35.9033385
  55.0409025  62.3478564  25.7866047  55.9526881  62.5805950  25.6113745
  54.5318672  62.9315608  25.2241126  47.8494453  64.6274051  40.8255179
  48.5909137  65.1659095  40.5490002  47.1431438  65.2540340  40.9826730
  49.6780862  61.7075798  36.7960897  50.5242058  62.1315212  36.9395546
  49.6179500  61.0509423  37.4899460  53.6478607  67.3304382  33.1779629
  53.0187469  67.4950096  32.4755697  53.2604269  67.7445992  33.9490593
  57.5267839  68.2658820  30.5323993  56.8418877  68.6457721  29.9821026
  57.6111688  68.8754147  31.2655940  54.7818770  65.9118779  37.1319336
  54.9935666  66.5550539  36.4553717  54.7348519  65.0781096  36.6641266
  52.3844999  58.5236600  34.0355908  51.5229478  58.8217853  34.3272646
  52.4107434  58.7406999  33.1036941  49.2006569  67.0678790  30.4429714
  49.6644914  67.3466493  29.6534337  48.9363367  66.1662235  30.2602805
  46.0930650  66.6150272  33.3809477  46.6632007  67.0437540  32.7426962
  46.6838762  66.3332857  34.0793663  48.1375455  63.1901943  27.2519279
  48.8399498  63.6422986  27.7193206  47.8056083  62.5485762  27.8799172
  46.5855816  61.7813699  41.6270489  45.9554477  62.4629980  41.8605885
  46.4791904  61.6696781  40.6823627  41.8800789  61.4485495  32.5536413
  41.0899843  61.7043024  32.0776523  42.3712036  62.2633833  32.6588453
  55.8964598  68.7890734  35.3041694  56.7182042  68.3870922  35.0224375
  55.8927001  68.6858969  36.2557809  43.8315534  61.8130075  29.5119889
  43.0346697  61.9248769  30.0303385  43.6041126  62.1516727  28.6460780
  49.6621202  68.3374778  37.4602404  49.7265634  68.7995185  38.2960576
  48.9532126  67.7072143  37.5884714  40.1638492  61.7015986  34.9851404
  40.4146530  62.5862996  35.2508979  40.6998040  61.5220587  34.2126495
  63.9870591  65.1329483  31.6526665  63.2334300  64.5636881  31.4970669
  64.1218133  65.0992147  32.5997300  49.3769219  70.0042885  27.3281384
  49.2414894  70.8494421  27.7566232  49.9179032  70.2062163  26.5647318
  42.8298617  67.5218323  27.9009309  43.3423137  68.3161574  28.0514874
  43.4821330  66.8244614  27.8342911  44.6393502  70.6384080  29.9832063
  44.8160130  71.5602044  29.7953047  45.4350335  70.3242499  30.4126442
  48.7804520  57.4992344  41.5815996  49.5214233  58.0999497  41.5020459
  49.0122443  56.7569982  41.0234039  43.9245858  62.6848711  39.8594226
  43.8099373  61.7833969  40.1601325  43.0690376  62.9312408  39.5079042
  45.7624817  72.1562253  35.9842405  46.3132242  72.0279317  35.2119399
  44.9236293  72.4557142  35.6337298  52.7261683  53.5273447  35.8580278
  52.3825952  54.4175089  35.7819388  53.0940646  53.3375105  34.9949863
  40.7947534  65.8506978  28.6768880  41.6322756  66.2603986  28.4602588
  40.9725801  64.9106420  28.6469074  52.6911966  63.5182058  24.3652713
  52.1758589  64.2886663  24.6041100  52.4189274  62.8447194  24.9885774
  50.2759077  58.3631759  29.4237951  49.4200673  57.9738609  29.2443590
  50.6886029  58.4423720  28.5637737  51.8058223  55.8978102  33.8229511
  51.3023019  55.8608237  33.0097316  52.0988830  56.8070845  33.8826168
  48.0501109  55.9816832  32.8295693  48.9154106  55.7859641  32.4701582
  48.1178618  55.7527184  33.7565050  57.6646240  66.2714413  26.3005886
  56.8875683  65.9325572  25.8561049  58.3437721  66.2767036  25.6260851
  52.4798269  61.3909150  26.1912494  52.1748405  61.7055300  27.0422637
  53.4328711  61.4690570  26.2339827  50.9244701  67.5499374  27.8405448
  50.3966062  66.8152133  27.5278686  50.4232204  68.3274050  27.5945416
  55.9037547  65.7448394  32.9572494  55.2461221  66.4347656  33.0452623
  56.7077946  66.1344826  33.3006481  45.6563428  58.2119040  30.2012060
  46.2307180  57.9894221  29.4685253  46.2434411  58.2807734  30.9540661
  54.7143006  64.0992767  31.0076436  55.2274887  64.7322759  31.5098146
  55.3644230  63.4993962  30.6419796  45.9833016  60.2423501  24.2207945
  45.1470328  60.5798188  24.5417220  45.8437785  60.1072481  23.2835082
  47.9586096  55.0860289  28.9287129  47.3050508  54.7709306  28.3043744
  47.9166570  54.4636029  29.6546952  49.0697301  65.3679584  20.8440421
  48.1624363  65.1368837  21.0431570  49.5668333  64.5717203  21.0314403
  51.9765380  74.0777091  23.7637107  51.3027079  74.3808788  24.3722065
  52.3631202  74.8806171  23.4142564  51.1923836  61.5742222  33.2534777
  50.2746398  61.7957169  33.0956465  51.6083980  61.6488533  32.3946484
  51.9758884  62.9733638  28.3837457  52.7230703  63.4855035  28.0744579
  52.2450474  62.6517691  29.2441851  50.2485534  65.4692179  25.3664411
  49.3396754  65.1851212  25.4636881  50.2780618  65.8891257  24.5067718
  55.4804802  69.0798768  29.1355579  55.0267129  68.2389678  29.1920769
  54.8498769  69.7160167  29.4730359  54.4237721  60.0090754  30.3656246
  53.6860478  59.4968141  30.6966489  54.6764495  59.5691136  29.5539523
  53.9237741  70.9175265  30.0705397  54.2160715  71.4780322  29.3517763
  54.4336362  71.2103826  30.8258556  54.5249349  52.7867006  30.9598016
  54.8308226  51.9264370  30.6723931  55.2501954  53.3784627  30.7597009
  40.8173705  63.1897693  29.3479613  40.6198105  62.5967054  28.6230680
  40.2620369  62.8849903  30.0655552  48.7970428  63.0820799  31.4674207
  48.8519038  62.1294636  31.3916683  47.9861630  63.2380239  31.9515505
  49.9461622  67.0100922  22.7052490  49.5081052  66.2936781  22.2458127
  50.6872063  67.2377037  22.1437581  46.7362788  61.6997859  29.2264585
  45.9230654  61.9992030  29.6329778  47.2321783  61.3053548  29.9439068
  48.8871366  71.6955616  31.1598850  48.8447545  71.9216462  30.2307382
  49.8034065  71.4618991  31.3084651  58.0634737  65.2858120  28.7628808
  57.9252636  65.4759715  27.8349998  57.7070956  66.0477502  29.2196860
  46.2276863  59.2716215  34.8425820  46.8676242  59.1304974  34.1448784
  45.3954394  58.9850728  34.4664422  58.0904117  67.3534647  33.7740080
  58.5240623  67.2609936  34.6223134  58.8035697  67.3292147  33.1360096
  47.0037167  68.5718645  30.9560813  47.7977766  68.0768965  30.7543388
  46.2928859  68.0436508  30.5928518  51.8232012  70.9536741  35.3073180
  51.8769034  71.5227677  36.0750896  50.9546793  71.1238626  34.9427218
  43.3119931  62.7161727  27.0320566  42.3817519  62.6546182  27.2490528
  43.4077403  62.1937680  26.2357207  43.2305480  59.2416540  29.6198807
  43.4912297  60.1561873  29.5107968  44.0522652  58.7740982  29.7695420
  44.7030405  60.6554297  36.7897632  45.3753458  60.4471659  36.1410281
  43.8760191  60.4576383  36.3502864  58.9519666  67.3958347  36.3072965
  59.1455556  68.3004158  36.5532240  58.8520284  66.9365766  37.1411550
  50.7820111  65.1197003  36.8660112  51.7112171  65.2708162  36.6929080
  50.3611141  65.2081023  36.0108759  49.5808443  69.1447667  34.6358650
  49.4419529  68.7766451  35.5084588  48.7923039  69.6595307  34.4642608
  50.1756595  74.2456764  25.9784186  50.3508351  73.7744807  26.7929809
  49.4889383  74.8722530  26.2065447  51.1313658  68.5229270  32.0247488
  50.7963491  68.4830040  32.9205138  50.6317604  67.8573986  31.5517898
  45.1057902  63.9296900  37.5500069  44.9677700  63.1977139  38.1511608
  46.0162826  63.8405800  37.2684257  54.0672850  65.8685304  22.2984547
  53.4502020  65.1432132  22.2017600  53.5989338  66.6294664  21.9551622
  47.7340203  63.6416859  37.0383749  48.4439821  63.0010051  36.9970367
  47.6909511  63.8929754  37.9609929  46.4469137  60.6282077  38.8579388
  45.9106494  60.1772815  39.5100984  45.8585845  60.7627986  38.1149852
  44.7417680  77.3946126  32.7524047  44.9814279  78.0264650  33.4303065
  43.8986877  77.0434166  33.0389406  45.8571396  60.0870728  21.4205852
  44.9800862  59.9659529  21.0568098  46.3329149  59.2956807  21.1684740
  37.3773536  64.8747888  31.5147359  38.0644576  64.5609618  30.9268374
  37.2221665  65.7789253  31.2414610  42.1808258  59.7638085  35.9432383
  42.0966447  59.1563754  35.2082792  41.3590964  60.2547103  35.9441879
  49.2545542  73.2025249  35.1565551  49.1815714  74.0080220  35.6684855
  48.8122935  73.4017215  34.3313572  49.0435322  72.4397019  28.6668372
  48.2602844  72.9818699  28.7606597  49.7428067  72.9570998  29.0662613
  52.3531972  58.2491648  31.3102578  52.8500671  57.4961611  30.9903648
  51.5818953  58.2855965  30.7445787  60.2061729  63.9532014  32.9520869
  60.1951606  64.8356729  32.5814802  59.3379109  63.6003565  32.7575406
  53.4361753  67.0063335  28.8841001  52.5018031  67.1264798  28.7145705
  53.6138421  66.1035802  28.6201011  48.9366941  60.3909031  31.0374262
  48.5664728  59.8380072  31.7255168  49.4326033  59.7867165  30.4849262
  56.8234304  62.8480655  29.4191035  57.2894756  63.6808646  29.3451338
  57.2741804  62.3825636  30.1236294  46.7656139  70.8506526  38.1329280
  47.4665599  71.4843009  38.2858674  46.2951254  71.1921258  37.3724919
  54.8910535  69.1924476  26.4177187  55.1670379  69.0781071  27.3271061
  54.0215034  68.7941961  26.3789360  54.7950967  55.2161242  33.4581936
  53.8814046  55.4465469  33.6264143  55.2244068  55.2999686  34.3095969
  51.5264599  73.4410827  30.0610001  51.7086994  72.6232483  30.5237753
  52.3497585  73.6578519  29.6234891  51.8606765  72.3679012  27.3225049
  52.3894531  71.8571467  26.7095211  52.1234984  72.0521542  28.1870582
  42.3623857  70.3842881  35.0660383  42.9477294  69.6386569  35.1988287
  42.1648696  70.6946838  35.9497047  45.2162512  73.4194129  30.0822825
  44.5472888  73.9040256  29.5986865  45.0775382  73.6663349  30.9966204
  36.9541512  62.9548482  33.7864826  36.9925612  62.4212072  34.5801944
  36.4481805  62.4283687  33.1675803  49.3567781  75.4537872  36.6805484
  49.9086089  75.6169494  37.4454569  49.6973975  76.0442310  36.0085508
  44.3332274  57.8013022  37.2827368  44.3973601  58.6627853  36.8704766
  44.2699395  57.1887024  36.5499727  43.8084547  59.8736155  40.9300403
  44.4356586  59.4913232  41.5437927  42.9512466  59.6550356  41.2956095
  40.5850090  61.6812584  26.8618757  40.8803531  60.7723262  26.8085811
  39.6838125  61.6600323  26.5399760  52.4936168  73.4019848  33.6669166
  52.3687308  72.6009588  33.1580111  53.1515259  73.8966041  33.1783136
  44.1144337  59.7568580  32.8446306  43.3930922  60.3704548  32.7053779
  44.9037592  60.2926345  32.7662952  54.5571077  71.2028868  35.2948716
  53.6101412  71.0834219  35.2227043  54.9053850  70.3151366  35.3774977
  46.9170650  57.0923007  39.1186958  47.4405052  57.3385303  39.8813267
  46.6982983  57.9243042  38.6990095  42.3137931  59.3626681  26.9858082
  41.9850637  58.4824060  26.8033188  42.6677302  59.3074350  27.8734472
  51.5617510  70.9981584  31.4953068  51.4142472  70.0698291  31.6760638
  52.3871004  71.0201675  31.0110143  45.4279754  59.6499651  27.3533560
  45.7675827  60.1785572  26.6312169  45.8751875  59.9880057  28.1292127
  55.1651632  71.8210143  32.5817941  56.0898179  71.6153004  32.4442392
  54.9966935  71.5726544  33.4907282  48.1223195  58.0336702  36.8036628
  47.7820016  57.2344515  37.2057308  47.4162201  58.3338413  36.2313461
  48.7739667  55.1186014  35.2563951  49.5965736  54.6446492  35.1342842
  49.0177731  55.8976498  35.7562638  47.4147901  58.1474273  25.5526853
  48.1356264  58.5255525  25.0490570  46.7913206  58.8663150  25.6561831
  51.5579024  58.8519422  26.4885185  51.7742639  59.7344060  26.1874013
  51.0773092  58.4605635  25.7590827  46.2978246  61.8105135  33.0655930
  46.1522826  62.1245438  33.9580211  45.8203449  62.4290035  32.5126829
  48.1574629  58.8007683  33.1136819  48.1436197  57.9048776  32.7769117
  48.8747057  58.8078347  33.7475105  50.0100759  59.2345023  35.1589947
  49.7518537  60.1562094  35.1574277  49.4785800  58.8375458  35.8490411
  54.9546948  72.3395810  27.9380032  55.1283826  71.7742233  27.1853885
  55.4475839  73.1396705  27.7559522  40.7723908  64.3510479  36.0043591
  40.2277376  65.1270287  36.1363865  41.6503258  64.6981284  35.8462712
  47.5611525  57.6822063  28.3824390  47.6827436  56.7538709  28.5815277
  47.2713567  57.6960749  27.4702705  50.4302715  55.3676974  31.5191109
  50.4524412  55.4316307  30.5643089  50.8470774  54.5281482  31.7131616
  60.8086339  65.1032233  29.5570332  61.2517485  64.3539558  29.1589455
  59.9312850  65.0942370  29.1744064  55.9422121  71.6562575  25.0376931
  56.6373025  72.2769267  25.2564245  56.2845271  70.8057926  25.3129308
  41.5589930  63.4780376  38.8973748  40.8171666  63.6263011  39.4838378
  41.2382674  63.7388641  38.0340497  57.8413544  69.1062280  26.5664261
  58.3664868  69.4449553  25.8413581  57.7535896  68.1709295  26.3827396
  49.5254204  75.1734263  30.9259514  49.0859195  74.6810642  31.6192371
  50.2762321  74.6307231  30.6851590  42.0046543  71.3645804  30.9284143
  42.8304563  71.0649576  30.5482786  41.6540595  70.5953427  31.3773931
  46.9728077  70.7172273  32.9981816  46.3508086  70.0542978  32.6984044
  47.6432944  70.7433404  32.3155464  40.2055148  69.2832131  31.8873076
  39.3687057  68.8554305  31.7057077  40.1778794  69.4764574  32.8243867
  46.5341584  69.2676196  26.4740277  46.6829704  69.9511660  25.8206949
  47.3408027  69.2481286  26.9889732  60.3519204  66.5737471  31.9492780
  61.1866095  67.0127276  32.1130340  60.4878333  66.0976125  31.1301025
  44.2894216  65.2941373  27.4801346  44.0440258  64.3903703  27.6781556
  44.4590131  65.2958524  26.5380824  43.5589864  61.0269731  24.9787507
  42.8659109  61.1014086  24.3227543  43.3141616  60.2630075  25.5009024
  52.2303521  52.5865332  32.3826998  52.5105274  51.9188521  33.0087424
  53.0154127  52.7794428  31.8701662  50.0336989  71.7624326  23.9452024
  49.4610956  72.3814513  23.4922496  50.6069783  72.3123688  24.4791946
  53.2534249  72.0461476  25.0760606  54.1864922  71.9807038  25.2793482
  53.1657462  72.8817743  24.6175139  55.8822265  71.3627347  22.0364554
  55.8035897  71.0287210  22.9300312  56.7031932  71.8549115  22.0356026
  58.5800457  64.2289086  35.2440873  58.5476777  63.2905087  35.4300556
  59.1901080  64.3073123  34.5106697  50.4183788  63.0985139  21.2868077
  51.3642892  62.9691347  21.3556495  50.0398032  62.3599801  21.7637505
  58.7294945  61.0200130  35.2899156  58.2133994  60.2358586  35.1029085
  59.6134894  60.6918846  35.4545675  56.3905672  54.7641145  31.2494968
  56.1930493  54.4556233  32.1338300  57.0005378  55.4902784  31.3792898
  64.3977007  65.2905093  34.3846909  65.1280395  65.0290381  34.9454613
  63.7883952  64.5533815  34.4248977  62.4792304  63.4312956  34.9821361
  61.7525467  63.2968920  34.3737852  62.0639591  63.7389784  35.7878079
  48.6026705  61.0235115  21.2222962  47.6958160  60.7268228  21.2985675
  48.8802686  60.7264934  20.3557248  39.5204645  62.3441479  31.6722008
  39.2007429  61.4906787  31.3796382  38.9738073  62.5590057  32.4279976
  43.2984553  65.0603920  35.3891515  43.5170562  65.9921028  35.4079549
  43.7110326  64.7011894  36.1746319  50.2188770  55.5672005  27.3767203
  49.4089499  55.2219090  27.7522449  50.9073187  55.2579549  27.9654815
  52.1479319  54.6450052  28.9991500  52.7010357  55.0645505  29.6581523
  52.3849405  53.7185800  29.0414456  47.3725489  57.8822051  21.3634941
  48.2344653  58.2076949  21.6230758  47.5575833  57.0953547  20.8508007
  39.3892905  65.9644390  33.6415130  38.6956377  65.5498343  33.1285084
  40.1365896  66.0064927  33.0448549  55.5258126  56.7550577  28.5070164
  54.9456795  57.4135381  28.1248216  55.2594058  55.9327922  28.0957582
  53.9761692  56.1555635  30.7091484  54.4761471  56.2672169  29.9005803
  54.6197300  55.8516688  31.3492293  41.3029648  65.8962644  31.5181145
  41.2800336  65.9950331  30.5663028  41.6130284  66.7427795  31.8398311
  43.9617025  67.9538799  35.6327759  44.9160279  67.9222741  35.5657691
  43.7629549  67.4929423  36.4477985  44.5516408  66.5239915  38.1998557
  45.3709297  67.0183994  38.2233394  44.8253215  65.6071883  38.1716124
  54.3083004  58.9150668  27.5626512  53.4208859  59.2000318  27.3446707
  54.7236993  58.7544431  26.7153789  57.6597540  58.9397188  31.2780852
  58.4357930  59.4293641  31.5505468  56.9345674  59.3655243  31.7352721
  60.0970099  59.6524808  32.3354792  60.6914589  59.4120544  31.6248100
  60.1696682  58.9331938  32.9628328  42.3167254  73.4958419  32.6497957
  42.1821722  72.7358820  32.0835955  41.8999317  74.2199319  32.1826746
  53.4526217  68.6795342  21.6574532  54.1562067  68.8845345  22.2732188
  52.7288866  69.2472104  21.9223616  54.2824028  64.4305203  27.7776802
  54.2259229  64.8873755  26.9384435  54.8352370  63.6695888  27.5999645
  58.0928833  60.2194935  28.6026922  57.8365768  59.8191571  29.4335130
  57.4681702  60.9338729  28.4777061  62.4041171  62.9591009  31.1098213
  61.8440729  63.0284198  31.8829775  61.7984675  62.7831993  30.3897710
  45.4736380  74.3927736  32.8616400  45.3568764  75.3373168  32.7595090
  44.6528826  74.0901297  33.2502199  55.3612915  69.1177871  23.7072992
  56.1958519  68.6859070  23.5250467  55.1997258  68.9459885  24.6349887
  55.0158807  65.6209985  25.0729332  54.9607611  65.4554256  24.1317776
  54.3904862  66.3286018  25.2291521  39.8051322  60.8578049  38.8990754
  40.4510185  60.3477003  39.3877979  39.5968473  61.5946731  39.4734179
  48.3254932  55.1218094  24.6514650  48.3133602  56.0659934  24.8082921
  49.2178354  54.9388239  24.3574111  46.4990894  75.0455998  36.0772328
  47.4018141  75.0779608  36.3938823  46.2728264  74.1156449  36.0918664
  48.2544496  73.7986984  32.7382407  47.3040127  73.7988846  32.6246779
  48.5576982  73.0519719  32.2218441  52.1407052  51.7160870  28.9060587
  51.3739448  51.1619357  29.0517269  52.5517757  51.7882739  29.7674738
  63.9897190  79.6347522  33.8028169  64.6275600  79.5154270  33.0991509
  63.8718033  80.5828366  33.8616121  60.7986896  79.5874951  33.7389694
  60.4605408  79.4716015  32.8510229  61.6676664  79.1866116  33.7190700
  56.6573712  81.4410427  29.7286585  56.0938577  81.3500364  28.9602872
  56.5426107  80.6210331  30.2089077  61.2806679  80.7409802  39.6975899
  61.2695320  80.3462601  38.8256403  61.4427319  80.0075875  40.2909671
  54.2038144  82.9361619  32.5670805  54.9959436  82.5952443  32.1517104
  54.4434794  83.0456594  33.4872958  62.2373270  85.1081395  25.0401050
  61.5861250  85.6935475  24.6535063  63.0317633  85.6387590  25.0996087
  56.1628898  82.1970532  25.4388184  56.9359774  81.6499519  25.3001060
  56.5154296  83.0614781  25.6502645  58.0013940  83.5246914  38.6455083
  57.7103806  84.4292545  38.5301750  58.6370925  83.5663442  39.3599153
  58.9270147  80.9023763  35.2356443  59.5233719  80.6779785  34.5213406
  58.9845119  80.1608508  35.8381891  58.4995175  78.3563198  23.0706634
  58.7520696  77.8344719  22.3090097  57.5619735  78.1929343  23.1733317
  63.5438458  77.3598976  30.8781377  64.3301547  76.9418400  30.5271794
  63.8077163  78.2645069  31.0463025  63.7148536  82.7971827  25.5770034
  63.0794369  82.8706453  26.2890939  63.3845942  83.3865425  24.8989113
  68.9446885  77.2974210  31.7814356  69.6772057  76.7273426  32.0152185
  68.1886241  76.9095810  32.2220861  58.2191464  80.2591304  25.2731009
  58.1027722  79.5836207  25.9412093  58.3293724  79.7723678  24.4563162
  60.5623005  79.7201451  28.9777698  60.1981212  79.1932072  29.6890620
  61.4190121  79.3299920  28.8044183  66.4672306  71.0095784  36.2408964
  66.1355631  71.8791195  36.0170179  65.8717919  70.6932068  36.9202995
  60.2028492  74.7491351  23.9739047  60.3702894  75.6171587  24.3409518
  60.0125661  74.9118632  23.0500336  62.9603825  83.2108330  35.6404877
  62.6604548  84.1133368  35.5320684  62.6154885  82.9440513  36.4926030
  56.4116307  79.6622126  31.6741581  55.4866803  79.5298341  31.8819273
  56.6600720  80.4416346  32.1711524  66.3600969  75.7290870  33.3202314
  65.4517846  75.6606278  33.0261075  66.3088565  76.2062815  34.1484140
  60.1817713  77.2049008  24.9585713  60.0617338  77.6506059  25.7971194
  59.4870301  77.5534326  24.3999252  53.7725118  79.3055400  32.5085370
  53.9017499  79.5589879  33.4224782  53.0922569  79.8983108  32.1890026
  57.9424605  89.9752650  28.6075845  57.8648635  90.9260475  28.6864325
  57.3386249  89.6298522  29.2650771  68.2262615  73.9307308  35.0980188
  67.5836996  74.2239841  34.4519983  67.7217544  73.8160229  35.9033385
  65.8802779  77.6770481  25.7866047  66.7920635  77.9097868  25.6113745
  65.3712426  78.2607526  25.2241126  58.6888207  79.9565969  40.8255179
  59.4302892  80.4951013  40.5490002  57.9825193  80.5832258  40.9826730
  60.5174617  77.0367716  36.7960897  61.3635812  77.4607130  36.9395546
  60.4573255  76.3801340  37.4899460  64.4872361  82.6596300  33.1779629
  63.8581224  82.8242014  32.4755697  64.0998024  83.0737909  33.9490593
  68.3661593  83.5950738  30.5323993  67.6812631  83.9749639  29.9821026
  68.4505443  84.2046064  31.2655940  65.6212525  81.2410697  37.1319336
  65.8329420  81.8842457  36.4553717  65.5742273  80.4073013  36.6641266
  63.2238754  73.8528517  34.0355908  62.3623233  74.1509771  34.3272646
  63.2501189  74.0698916  33.1036941  60.0400323  82.3970708  30.4429714
  60.5038669  82.6758411  29.6534337  59.7757121  81.4954153  30.2602805
  56.9324404  81.9442189  33.3809477  57.5025761  82.3729458  32.7426962
  57.5232516  81.6624774  34.0793663  58.9769209  78.5193860  27.2519279
  59.6793253  78.9714904  27.7193206  58.6449838  77.8777679  27.8799172
  52.7194543  76.7777413  32.5536413  51.9293597  77.0334942  32.0776523
  53.2105791  77.5925751  32.6588453  66.7358353  84.1182652  35.3041694
  67.5575797  83.7162839  35.0224375  66.7320756  84.0150886  36.2557809
  54.6709289  77.1421992  29.5119889  53.8740452  77.2540686  30.0303385
  54.4434881  77.4808644  28.6460780  60.5014956  83.6666695  37.4602404
  60.5659389  84.1287103  38.2960576  59.7925880  83.0364060  37.5884714
  51.0032246  77.0307903  34.9851404  51.2540285  77.9154913  35.2508979
  51.5391795  76.8512505  34.2126495  74.8264346  80.4621401  31.6526665
  74.0728054  79.8928799  31.4970669  74.9611887  80.4284065  32.5997300
  60.2162974  85.3334803  27.3281384  60.0808649  86.1786339  27.7566232
  60.7572786  85.5354081  26.5647318  53.6692371  82.8510241  27.9009309
  54.1816892  83.6453491  28.0514874  54.3215084  82.1536531  27.8342911
  55.4787256  85.9675997  29.9832063  55.6553884  86.8893962  29.7953047
  56.2744090  85.6534416  30.4126442  54.7639613  78.0140629  39.8594226
  54.6493128  77.1125886  40.1601325  53.9084130  78.2604326  39.5079042
  61.8431450  85.9558369  41.4581726  61.3995305  85.1694748  41.1402631
  62.5048664  86.1437520  40.7925617  56.6018572  87.4854171  35.9842405
  57.1525997  87.3571234  35.2119399  55.7630047  87.7849060  35.6337298
  63.9412688  86.2361169  39.4863128  63.9231164  87.0570050  38.9943397
  64.8632608  86.1115245  39.7113269  60.3985743  83.7505299  40.3286636
  60.9314079  82.9893587  40.0985944  59.8699824  83.4578951  41.0710791
  63.5655438  68.8565365  35.8580278  63.2219707  69.7467007  35.7819388
  63.9334400  68.6667022  34.9949863  51.6341288  81.1798895  28.6768880
  52.4716510  81.5895904  28.4602588  51.8119556  80.2398337  28.6469074
  63.5305720  78.8473976  24.3652713  63.0152344  79.6178581  24.6041100
  63.2583029  78.1739112  24.9885774  61.1152831  73.6923677  29.4237951
  60.2594428  73.3030527  29.2443590  61.5279783  73.7715638  28.5637737
  62.6451978  71.2270020  33.8229511  62.1416774  71.1900155  33.0097316
  62.9382585  72.1362763  33.8826168  58.8894864  71.3108750  32.8295693
  59.7547861  71.1151558  32.4701582  58.9572373  71.0819101  33.7565050
  68.5039994  81.6006331  26.3005886  67.7269437  81.2617490  25.8561049
  69.1831475  81.6058954  25.6260851  63.3192023  76.7201068  26.1912494
  63.0142159  77.0347217  27.0422637  64.2722466  76.7982488  26.2339827
  61.7638455  82.8791291  27.8405448  61.2359817  82.1444051  27.5278686
  61.2625958  83.6565968  27.5945416  66.7431301  81.0740312  32.9572494
  66.0854976  81.7639573  33.0452623  67.5471701  81.4636744  33.3006481
  56.4957183  73.5410958  30.2012060  57.0700935  73.3186139  29.4685253
  57.0828165  73.6099652  30.9540661  65.5536760  79.4284685  31.0076436
  66.0668642  80.0614676  31.5098146  66.2037984  78.8285880  30.6419796
  56.8226770  75.5715419  24.2207945  55.9864082  75.9090105  24.5417220
  56.6831540  75.4364398  23.2835082  58.7979851  70.4152207  28.9287129
  58.1444263  70.1001224  28.3043744  58.7560325  69.7927947  29.6546952
  59.9091055  80.6971502  20.8440421  59.0018117  80.4660755  21.0431570
  60.4062087  79.9009121  21.0314403  62.8159134  89.4069009  23.7637107
  62.1420833  89.7100706  24.3722065  63.2024956  90.2098089  23.4142564
  62.0317591  76.9034140  33.2534777  61.1140152  77.1249087  33.0956465
  62.4477735  76.9780451  32.3946484  62.8152639  78.3025556  28.3837457
  63.5624458  78.8146953  28.0744579  63.0844228  77.9809608  29.2441851
  61.0879289  80.7984096  25.3664411  60.1790508  80.5143129  25.4636881
  61.1174373  81.2183175  24.5067718  66.3198556  84.4090686  29.1355579
  65.8660883  83.5681596  29.1920769  65.6892523  85.0452084  29.4730359
  65.2631476  75.3382672  30.3656246  64.5254233  74.8260058  30.6966489
  65.5158249  74.8983054  29.5539523  64.7631496  86.2467183  30.0705397
  65.0554470  86.8072240  29.3517763  65.2730116  86.5395744  30.8258556
  65.3643103  68.1158924  30.9598016  65.6701980  67.2556287  30.6723931
  66.0895708  68.7076544  30.7597009  51.6567459  78.5189611  29.3479613
  51.4591859  77.9258971  28.6230680  51.1014123  78.2141821  30.0655552
  59.6364183  78.4112717  31.4674207  59.6912793  77.4586553  31.3916683
  58.8255385  78.5672156  31.9515505  60.7855377  82.3392840  22.7052490
  60.3474807  81.6228699  22.2458127  61.5265818  82.5668955  22.1437581
  57.5756543  77.0289777  29.2264585  56.7624408  77.3283947  29.6329778
  58.0715537  76.6345466  29.9439068  59.7265121  87.0247534  31.1598850
  59.6841300  87.2508380  30.2307382  60.6427820  86.7910908  31.3084651
  68.9028491  80.6150037  28.7628808  68.7646390  80.8051633  27.8349998
  68.5464710  81.3769420  29.2196860  57.0670618  74.6008132  34.8425820
  57.7069997  74.4596891  34.1448784  56.2348148  74.3142646  34.4664422
  68.9297871  82.6826564  33.7740080  69.3634378  82.5901853  34.6223134
  69.6429452  82.6584065  33.1360096  57.8430922  83.9010563  30.9560813
  58.6371520  83.4060883  30.7543388  57.1322614  83.3728426  30.5928518
  62.6625766  86.2828658  35.3073180  62.7162788  86.8519595  36.0750896
  61.7940547  86.4530543  34.9427218  54.1513685  78.0453645  27.0320566
  53.2211273  77.9838100  27.2490528  54.2471157  77.5229597  26.2357207
  54.0699234  74.5708457  29.6198807  54.3306051  75.4853791  29.5107968
  54.8916406  74.1032900  29.7695420  55.5424159  75.9846215  36.7897632
  56.2147213  75.7763577  36.1410281  54.7153946  75.7868301  36.3502864
  69.7913421  82.7250265  36.3072965  69.9849311  83.6296075  36.5532240
  69.6914039  82.2657684  37.1411550  61.4449731  72.6108155  38.8063293
  60.7977646  73.3098105  38.7127769  62.2150747  73.0444299  39.1739541
  61.6213866  80.4488920  36.8660112  62.5505926  80.6000080  36.6929080
  61.2004896  80.5372941  36.0108759  60.4202198  84.4739585  34.6358650
  60.2813283  84.1058369  35.5084588  59.6316794  84.9887224  34.4642608
  61.0150350  89.5748681  25.9784186  61.1902105  89.1036724  26.7929809
  60.3283138  90.2014447  26.2065447  61.9707413  83.8521187  32.0247488
  61.6357245  83.8121957  32.9205138  61.4711358  83.1865903  31.5517898
  55.9451657  79.2588817  37.5500069  55.8071455  78.5269056  38.1511608
  56.8556580  79.1697718  37.2684257  64.9066604  81.1977222  22.2984547
  64.2895775  80.4724050  22.2017600  64.4383093  81.9586582  21.9551622
  58.5733957  78.9708777  37.0383749  59.2833576  78.3301969  36.9970367
  58.5303265  79.2221672  37.9609929  66.5620736  85.9076130  39.9590328
  66.5033282  85.2235350  39.2920911  66.9640254  86.6495120  39.5070954
  57.2862891  75.9573995  38.8579388  56.7500248  75.5064733  39.5100984
  56.6979600  76.0919904  38.1149852  55.5811435  92.7238044  32.7524047
  55.8208033  93.3556568  33.4303065  54.7380631  92.3726084  33.0389406
  56.6965150  75.4162646  21.4205852  55.8194617  75.2951447  21.0568098
  57.1722903  74.6248724  21.1684740  66.5638143  83.8715714  38.1904307
  65.6764922  83.5341636  38.3130706  67.1336694  83.1398745  38.4273073
  48.2167290  80.2039806  31.5147359  48.9038330  79.8901536  30.9268374
  48.0615419  81.1081170  31.2414610  53.0202013  75.0930002  35.9432383
  52.9360201  74.4855672  35.2082792  52.1984719  75.5839021  35.9441879
  60.0939297  88.5317166  35.1565551  60.0209468  89.3372138  35.6684855
  59.6516690  88.7309132  34.3313572  59.8829076  87.7688936  28.6668372
  59.0996598  88.3110617  28.7606597  60.5821821  88.2862916  29.0662613
  63.1925726  73.5783566  31.3102578  63.6894426  72.8253528  30.9903648
  62.4212708  73.6147883  30.7445787  71.0455484  79.2823931  32.9520869
  71.0345360  80.1648647  32.5814802  70.1772863  78.9295482  32.7575406
  62.5537980  88.4304000  37.3123709  63.2665952  89.0651465  37.2399611
  62.0628009  88.5267866  36.4963711  64.2755507  82.3355253  28.8841001
  63.3411786  82.4556716  28.7145705  64.4532176  81.4327720  28.6201011
  59.7760695  75.7200949  31.0374262  59.4058483  75.1671989  31.7255168
  60.2719788  75.1159082  30.4849262  67.6628058  78.1772572  29.4191035
  68.1288511  79.0100564  29.3451338  68.1135559  77.7117554  30.1236294
  57.6049894  86.1798444  38.1329280  58.3059353  86.8134927  38.2858674
  57.1345009  86.5213175  37.3724919  65.7304290  84.5216394  26.4177187
  66.0064133  84.4072988  27.3271061  64.8608788  84.1233879  26.3789360
  65.6344721  70.5453159  33.4581936  64.7207801  70.7757386  33.6264143
  66.0637823  70.6291603  34.3095969  65.4051180  78.7343051  35.9581830
  64.7522630  78.9818959  35.3034283  65.7831560  77.9207190  35.6244308
  62.3658354  88.7702745  30.0610001  62.5480748  87.9524400  30.5237753
  63.1891340  88.9870437  29.6234891  62.7000519  87.6970930  27.3225049
  63.2288285  87.1863384  26.7095211  62.9628739  87.3813460  28.1870582
  53.2017612  85.7134799  35.0660383  53.7871049  84.9678487  35.1988287
  53.0042450  86.0238756  35.9497047  56.0556267  88.7486046  30.0822825
  55.3866642  89.2332174  29.5986865  55.9169137  88.9955267  30.9966204
  47.7935267  78.2840399  33.7864826  47.8319366  77.7503990  34.5801944
  47.2875559  77.7575605  33.1675803  60.1961536  90.7829790  36.6805484
  60.7479844  90.9461411  37.4454569  60.5367729  91.3734228  36.0085508
  65.0472410  85.6091047  42.5354138  65.5912314  86.2221006  42.0409093
  64.4659255  86.1670626  43.0521151  51.4243844  77.0104501  26.8618757
  51.7197285  76.1015180  26.8085811  50.5231880  76.9892241  26.5399760
  63.3329923  88.7311765  33.6669166  63.2081062  87.9301505  33.1580111
  63.9909014  89.2257959  33.1783136  54.9538091  75.0860498  32.8446306
  54.2324677  75.6996466  32.7053779  55.7431347  75.6218263  32.7662952
  65.3964831  86.5320785  35.2948716  64.4495167  86.4126137  35.2227043
  65.7447604  85.6443284  35.3774977  57.7564405  72.4214924  39.1186958
  58.2798806  72.6677221  39.8813267  57.5376738  73.2534959  38.6990095
  53.1531686  74.6918599  26.9858082  52.8244392  73.8115978  26.8033188
  53.5071056  74.6366268  27.8734472  62.4011265  86.3273502  31.4953068
  62.2536227  85.3990209  31.6760638  63.2264758  86.3493592  31.0110143
  56.2673509  74.9791569  27.3533560  56.6069581  75.5077490  26.6312169
  56.7145629  75.3171975  28.1292127  66.0045386  87.1502060  32.5817941
  66.9291934  86.9444922  32.4442392  65.8360690  86.9018462  33.4907282
  58.9616950  73.3628620  36.8036628  58.6213770  72.5636433  37.2057308
  58.2555956  73.6630330  36.2313461  59.6133421  70.4477932  35.2563951
  60.4359491  69.9738410  35.1342842  59.8571485  71.2268416  35.7562638
  58.2541656  73.4766190  25.5526853  58.9750018  73.8547443  25.0490570
  57.6306960  74.1955067  25.6561831  62.3972779  74.1811339  26.4885185
  62.6136393  75.0635977  26.1874013  61.9166846  73.7897553  25.7590827
  57.1372000  77.1397053  33.0655930  56.9916581  77.4537356  33.9580211
  56.6597204  77.7581953  32.5126829  58.9968383  74.1299601  33.1136819
  58.9829952  73.2340694  32.7769117  59.7140811  74.1370264  33.7475105
  60.8494514  74.5636941  35.1589947  60.5912292  75.4854011  35.1574277
  60.3179554  74.1667375  35.8490411  65.7940703  87.6687728  27.9380032
  65.9677580  87.1034150  27.1853885  66.2869594  88.4688623  27.7559522
  51.6117662  79.6802397  36.0043591  51.0671130  80.4562205  36.1363865
  52.4897012  80.0273201  35.8462712  58.4005279  73.0113981  28.3824390
  58.5221190  72.0830627  28.5815277  58.1107321  73.0252667  27.4702705
  61.2696469  70.6968891  31.5191109  61.2918166  70.7608224  30.5643089
  61.6864528  69.8573400  31.7131616  71.6480094  80.4324151  29.5570332
  72.0911240  79.6831476  29.1589455  70.7706604  80.4234287  29.1744064
  66.7815875  86.9854492  25.0376931  67.4766780  87.6061185  25.2564245
  67.1239025  86.1349844  25.3129308  52.3983684  78.8072293  38.8973748
  51.6565420  78.9554929  39.4838378  52.0776429  79.0680559  38.0340497
  68.6807298  84.4354198  26.5664261  69.2058622  84.7741471  25.8413581
  68.5929651  83.5001213  26.3827396  60.3427347  88.3488271  38.6954138
  60.6514473  88.1037418  39.5676838  61.1402829  88.5534910  38.2073008
  60.3647959  90.5026181  30.9259514  59.9252949  90.0102560  31.6192371
  61.1156076  89.9599149  30.6851590  52.8440298  86.6937722  30.9284143
  53.6698318  86.3941494  30.5482786  52.4934350  85.9245344  31.3773931
  57.8121831  86.0464190  32.9981816  57.1901840  85.3834895  32.6984044
  58.4826698  86.0725322  32.3155464  51.0448903  84.6124048  31.8873076
  50.2080811  84.1846223  31.7057077  51.0172548  84.8056492  32.8243867
  68.3701204  85.0687101  41.8715459  67.5796748  85.0511240  41.3319959
  68.1334559  85.6075395  42.6264496  68.4899079  81.9179568  39.1848188
  68.5397084  81.7529575  40.1263711  68.3813003  81.0506827  38.7946069
  57.3735338  84.5968114  26.4740277  57.5223458  85.2803578  25.8206949
  58.1801781  84.5773204  26.9889732  69.9917276  84.3376509  39.4290209
  69.7002084  84.7006490  40.2653670  69.3789407  83.6243518  39.2503541
  71.1912958  81.9029389  31.9492780  72.0259850  82.3419193  32.1130340
  71.3272087  81.4268042  31.1301025  68.2404464  79.4609124  37.8970267
  68.7158586  79.6536770  37.0889119  67.3170030  79.5168310  37.6513651
  55.1287971  80.6233291  27.4801346  54.8834013  79.7195621  27.6781556
  55.2983886  80.6250442  26.5380824  62.8184681  71.4956968  36.8626101
  63.3366625  72.2317994  36.5372590  62.4639814  71.8020961  37.6972860
  54.3983619  76.3561649  24.9787507  53.7052863  76.4306004  24.3227543
  54.1535370  75.5921992  25.5009024  63.0697275  67.9157250  32.3826998
  63.3499029  67.2480439  33.0087424  63.8547882  68.1086346  31.8701662
  60.8730744  87.0916244  23.9452024  60.3004711  87.7106431  23.4922496
  61.4463537  87.6415606  24.4791946  66.9406133  76.3374884  36.1298573
  67.8923556  76.4372982  36.1510797  66.7709584  75.5453153  36.6396657
  64.9620513  73.4230467  36.3157974  64.3670445  73.7035480  35.6204462
  64.6770210  73.9124368  37.0874715  64.0928003  87.3753394  25.0760606
  65.0258676  87.3098956  25.2793482  64.0051216  88.2109661  24.6175139
  66.7216020  86.6919264  22.0364554  66.6429652  86.3579128  22.9300312
  67.5425687  87.1841032  22.0356026  69.4194211  79.5581004  35.2440873
  69.3870531  78.6197004  35.4300556  70.0294835  79.6365040  34.5106697
  61.2577542  78.4277057  21.2868077  62.2036647  78.2983265  21.3556495
  60.8791787  77.6891719  21.7637505  69.5688700  76.3492047  35.2899156
  69.0527748  75.5650504  35.1029085  70.4528648  76.0210764  35.4545675
  67.2299427  70.0933063  31.2494968  67.0324248  69.7848151  32.1338300
  67.8399132  70.8194702  31.3792898  75.2370761  80.6197011  34.3846909
  75.9674149  80.3582299  34.9454613  74.6277706  79.8825733  34.4248977
  73.3186058  78.7604873  34.9821361  72.5919222  78.6260838  34.3737852
  72.9033345  79.0681702  35.7878079  61.1416235  82.4794803  42.7468734
  62.0619244  82.6573402  42.9408780  61.1065818  81.5350848  42.5948433
  59.4420459  76.3527033  21.2222962  58.5351915  76.0560146  21.2985675
  59.7196440  76.0556851  20.3557248  50.3598400  77.6733397  31.6722008
  50.0401184  76.8198705  31.3796382  49.8131828  77.8881975  32.4279976
  54.1378307  80.3895838  35.3891515  54.3564317  81.3212945  35.4079549
  54.5504081  80.0303812  36.1746319  61.0582525  70.8963923  27.3767203
  60.2483253  70.5511008  27.7522449  61.7466942  70.5871467  27.9654815
  62.9873073  69.9741970  28.9991500  63.5404112  70.3937423  29.6581523
  63.2243160  69.0477718  29.0414456  58.2119244  73.2113968  21.3634941
  59.0738408  73.5368867  21.6230758  58.3969588  72.4245464  20.8508007
  50.2286660  81.2936308  33.6415130  49.5350131  80.8790261  33.1285084
  50.9759651  81.3356845  33.0448549  66.3651880  72.0842495  28.5070164
  65.7850549  72.7427299  28.1248216  66.0987813  71.2619839  28.0957582
  64.8155447  71.4847553  30.7091484  65.3155225  71.5964087  29.9005803
  65.4591055  71.1808605  31.3492293  52.1423402  81.2254562  31.5181145
  52.1194090  81.3242249  30.5663028  52.4524039  82.0719713  31.8398311
  54.8010780  83.2830717  35.6327759  55.7554034  83.2514659  35.5657691
  54.6023304  82.8221341  36.4477985  55.3910162  81.8531833  38.1998557
  56.2103051  82.3475912  38.2233394  55.6646970  80.9363801  38.1716124
  65.1476758  74.2442585  27.5626512  64.2602613  74.5292236  27.3446707
  65.5630747  74.0836349  26.7153789  68.4991294  74.2689106  31.2780852
  69.2751685  74.7585559  31.5505468  67.7739429  74.6947160  31.7352721
  70.9363853  74.9816725  32.3354792  71.5308344  74.7412461  31.6248100
  71.0090437  74.2623856  32.9628328  53.1561009  88.8250336  32.6497957
  53.0215477  88.0650737  32.0835955  52.7393071  89.5491236  32.1826746
  64.2919972  84.0087260  21.6574532  64.9955822  84.2137262  22.2732188
  63.5682621  84.5764022  21.9223616  65.1217782  79.7597121  27.7776802
  65.0652983  80.2165673  26.9384435  65.6746125  78.9987806  27.5999645
  68.9322588  75.5486853  28.6026922  68.6759522  75.1483489  29.4335130
  68.3075456  76.2630647  28.4777061  73.2434926  78.2882926  31.1098213
  72.6834484  78.3576116  31.8829775  72.6378429  78.1123911  30.3897710
  56.3130135  89.7219653  32.8616400  56.1962519  90.6665086  32.7595090
  55.4922581  89.4193215  33.2502199  66.2006669  84.4469789  23.7072992
  67.0352273  84.0150988  23.5250467  66.0391012  84.2751803  24.6349887
  65.8552561  80.9501902  25.0729332  65.8001365  80.7846174  24.1317776
  65.2298617  81.6577935  25.2291521  50.6445076  76.1869967  38.8990754
  51.2903940  75.6768921  39.3877979  50.4362227  76.9238648  39.4734179
  59.1648687  70.4510011  24.6514650  59.1527357  71.3951851  24.8082921
  60.0572109  70.2680157  24.3574111  57.3384649  90.3747915  36.0772328
  58.2411895  90.4071526  36.3938823  57.1122019  89.4448366  36.0918664
  59.0938251  89.1278902  32.7382407  58.1433882  89.1280763  32.6246779
  59.3970737  88.3811636  32.2218441  62.9800806  67.0452788  28.9060587
  62.2133202  66.4911275  29.0517269  63.3911511  67.1174657  29.7674738
  74.8290944  94.9639440  33.8028169  75.4669354  94.8446188  33.0991509
  74.7111787  95.9120284  33.8616121  71.6380651  94.9166868  33.7389694
  71.2999162  94.8007933  32.8510229  72.5070419  94.5158033  33.7190700
  67.4967466  96.7702345  29.7286585  66.9332331  96.6792282  28.9602872
  67.3819861  95.9502249  30.2089077  72.1200434  96.0701720  39.6975899
  72.1089074  95.6754518  38.8256403  72.2821073  95.3367793  40.2909671
  65.0431898  98.2653536  32.5670805  65.8353190  97.9244361  32.1517104
  65.2828548  98.3748511  33.4872958  73.0767025 100.4373312  25.0401050
  72.4255005 101.0227393  24.6535063  73.8711388 100.9679507  25.0996087
  67.0022652  97.5262450  25.4388184  67.7753528  96.9791437  25.3001060
  67.3548051  98.3906699  25.6502645  68.8407695  98.8538832  38.6455083
  68.5497561  99.7584463  38.5301750  69.4764679  98.8955359  39.3599153
  69.7663902  96.2315680  35.2356443  70.3627474  96.0071703  34.5213406
  69.8238873  95.4900426  35.8381891  69.3388930  93.6855116  23.0706634
  69.5914451  93.1636637  22.3090097  68.4013489  93.5221261  23.1733317
  74.3832213  92.6890894  30.8781377  75.1695302  92.2710317  30.5271794
  74.6470917  93.5936986  31.0463025  74.5542290  98.1263744  25.5770034
  73.9188123  98.1998371  26.2890939  74.2239697  98.7157343  24.8989113
  79.7840640  92.6266127  31.7814356  80.5165812  92.0565344  32.0152185
  79.0279996  92.2387728  32.2220861  69.0585219  95.5883222  25.2731009
  68.9421477  94.9128125  25.9412093  69.1687479  95.1015596  24.4563162
  71.4016760  95.0493369  28.9777698  71.0374967  94.5223990  29.6890620
  72.2583876  94.6591838  28.8044183  77.3066060  86.3387701  36.2408964
  76.9749385  87.2083112  36.0170179  76.7111674  86.0223985  36.9202995
  71.0422247  90.0783268  23.9739047  71.2096649  90.9463505  24.3409518
  70.8519416  90.2410550  23.0500336  73.7997580  98.5400247  35.6404877
  73.4998303  99.4425286  35.5320684  73.4548639  98.2732431  36.4926030
  67.2510061  94.9914044  31.6741581  66.3260558  94.8590258  31.8819273
  67.4994474  95.7708263  32.1711524  77.1994724  91.0582788  33.3202314
  76.2911601  90.9898196  33.0261075  77.1482319  91.5354732  34.1484140
  71.0211467  92.5340926  24.9585713  70.9011093  92.9797977  25.7971194
  70.3264056  92.8826244  24.3999252  64.6118872  94.6347318  32.5085370
  64.7411253  94.8881797  33.4224782  63.9316324  95.2275026  32.1890026
  68.7818360 105.3044568  28.6075845  68.7042389 106.2552393  28.6864325
  68.1780003 104.9590440  29.2650771  71.2735589  92.4772433  41.2637212
  70.4968923  93.0366353  41.2540076  71.9126152  92.9629216  41.7852082
  79.0656370  89.2599226  35.0980188  78.4230750  89.5531759  34.4519983
  78.5611298  89.1452146  35.9033385  76.7196534  93.0062399  25.7866047
  77.6314390  93.2389786  25.6113745  76.2106181  93.5899443  25.2241126
  69.5281962  95.2857886  40.8255179  70.2696646  95.8242930  40.5490002
  68.8218947  95.9124175  40.9826730  75.0037301  97.4287027  39.4227340
  75.4120657  96.9869437  38.6781972  74.2814563  96.8539654  39.6761533
  71.3568371  92.3659634  36.7960897  72.2029567  92.7899047  36.9395546
  71.2967009  91.7093258  37.4899460  75.3266116  97.9888218  33.1779629
  74.6974978  98.1533932  32.4755697  74.9391778  98.4029827  33.9490593
  79.2055348  98.9242655  30.5323993  78.5206386  99.3041557  29.9821026
  79.2899197  99.5337982  31.2655940  74.5067817  90.0264002  38.4542071
  74.2628749  90.7806063  37.9176346  74.7827747  90.4049350  39.2889318
  76.4606279  96.5702614  37.1319336  76.6723175  97.2134374  36.4553717
  76.4136028  95.7364931  36.6641266  74.0632508  89.1820435  34.0355908
  73.2016987  89.4801689  34.3272646  74.0894943  89.3990834  33.1036941
  70.8794078  97.7262626  30.4429714  71.3432423  98.0050329  29.6534337
  70.6150876  96.8246070  30.2602805  67.7718159  97.2734107  33.3809477
  68.3419516  97.7021376  32.7426962  68.3626271  96.9916692  34.0793663
  69.8162964  93.8485778  27.2519279  70.5187007  94.3006822  27.7193206
  69.4843592  93.2069597  27.8799172  68.2643325  92.4397535  41.6270489
  67.6341986  93.1213815  41.8605885  68.1579413  92.3280616  40.6823627
  63.5588298  92.1069331  32.5536413  62.7687352  92.3626859  32.0776523
  64.0499545  92.9217669  32.6588453  77.5752107  99.4474570  35.3041694
  78.3969551  99.0454757  35.0224375  77.5714510  99.3442804  36.2557809
  65.5103043  92.4713910  29.5119889  64.7134206  92.5832604  30.0303385
  65.2828635  92.8100562  28.6460780  71.3408711  98.9958613  37.4602404
  71.4053143  99.4579020  38.2960576  70.6319635  98.3655978  37.5884714
  61.8426001  92.3599821  34.9851404  62.0934039  93.2446831  35.2508979
  62.3785549  92.1804423  34.2126495  85.6658100  95.7913318  31.6526665
  84.9121809  95.2220716  31.4970669  85.8005642  95.7575983  32.5997300
  71.0556728 100.6626721  27.3281384  70.9202403 101.5078256  27.7566232
  71.5966541 100.8645998  26.5647318  67.5424068  86.7418300  43.9895740
  67.1491014  86.1884499  44.6643384  68.3590208  87.0528879  44.3802257
  64.5086126  98.1802159  27.9009309  65.0210646  98.9745409  28.0514874
  65.1608839  97.4828449  27.8342911  66.3181011 101.2967915  29.9832063
  66.4947639 102.2185880  29.7953047  67.1137844 100.9826334  30.4126442
  70.4592029  88.1576180  41.5815996  71.2001742  88.7583333  41.5020459
  70.6909952  87.4153817  41.0234039  65.6033367  93.3432547  39.8594226
  65.4886882  92.4417804  40.1601325  64.7477885  93.5896244  39.5079042
  72.6825205 101.2850287  41.4581726  72.2389059 100.4986666  41.1402631
  73.3442418 101.4729438  40.7925617  67.4412326 102.8146089  35.9842405
  67.9919751 102.6863152  35.2119399  66.6023802 103.1140978  35.6337298
  74.7806443 101.5653087  39.4863128  74.7624918 102.3861968  38.9943397
  75.7026363 101.4407162  39.7113269  71.2379497  99.0797217  40.3286636
  71.7707834  98.3185505  40.0985944  70.7093578  98.7870868  41.0710791
  74.4049192  84.1857283  35.8580278  74.0613461  85.0758924  35.7819388
  74.7728155  83.9958940  34.9949863  62.4735043  96.5090813  28.6768880
  63.3110265  96.9187821  28.4602588  62.6513310  95.5690255  28.6469074
  74.3699475  94.1765894  24.3652713  73.8546098  94.9470498  24.6041100
  74.0976783  93.5031030  24.9885774  71.9546586  89.0215594  29.4237951
  71.0988182  88.6322445  29.2443590  72.3673538  89.1007555  28.5637737
  73.4845732  86.5561938  33.8229511  72.9810528  86.5192073  33.0097316
  73.7776339  87.4654680  33.8826168  69.7288618  86.6400667  32.8295693
  70.5941615  86.4443476  32.4701582  69.7966127  86.4111019  33.7565050
  79.3433749  96.9298248  26.3005886  78.5663192  96.5909408  25.8561049
  80.0225230  96.9350871  25.6260851  74.1585778  92.0492986  26.1912494
  73.8535914  92.3639135  27.0422637  75.1116220  92.1274406  26.2339827
  72.6032210  98.2083209  27.8405448  72.0753571  97.4735969  27.5278686
  72.1019713  98.9857885  27.5945416  77.5825056  96.4032230  32.9572494
  76.9248730  97.0931491  33.0452623  78.3865455  96.7928661  33.3006481
  67.3350937  88.8702875  30.2012060  67.9094689  88.6478057  29.4685253
  67.9221920  88.9391570  30.9540661  76.3930515  94.7576602  31.0076436
  76.9062396  95.3906594  31.5098146  77.0431738  94.1577798  30.6419796
  67.6620525  90.9007336  24.2207945  66.8257837  91.2382023  24.5417220
  67.5225294  90.7656316  23.2835082  69.6373605  85.7444124  28.9287129
  68.9838017  85.4293141  28.3043744  69.5954079  85.1219865  29.6546952
  70.7484810  96.0263419  20.8440421  69.8411872  95.7952673  21.0431570
  71.2455842  95.2301039  21.0314403  73.6552889 104.7360926  23.7637107
  72.9814588 105.0392623  24.3722065  74.0418711 105.5390007  23.4142564
  72.8711345  92.2326058  33.2534777  71.9533907  92.4541005  33.0956465
  73.2871489  92.3072368  32.3946484  73.6546393  93.6317473  28.3837457
  74.4018212  94.1438871  28.0744579  73.9237983  93.3101526  29.2441851
  71.9273043  96.1276014  25.3664411  71.0184263  95.8435047  25.4636881
  71.9568127  96.5475093  24.5067718  77.1592311  99.7382604  29.1355579
  76.7054638  98.8973514  29.1920769  76.5286278 100.3744002  29.4730359
  76.1025230  90.6674590  30.3656246  75.3647987  90.1551976  30.6966489
  76.3552004  90.2274971  29.5539523  75.6025250 101.5759100  30.0705397
  75.8948224 102.1364157  29.3517763  76.1123871 101.8687661  30.8258556
  76.2036858  83.4450842  30.9598016  76.5095735  82.5848205  30.6723931
  76.9289463  84.0368462  30.7597009  62.4961214  93.8481528  29.3479613
  62.2985614  93.2550889  28.6230680  61.9407878  93.5433738  30.0655552
  70.4757937  93.7404635  31.4674207  70.5306547  92.7878471  31.3916683
  69.6649139  93.8964074  31.9515505  71.6249131  97.6684758  22.7052490
  71.1868561  96.9520617  22.2458127  72.3659572  97.8960873  22.1437581
  68.4150297  92.3581695  29.2264585  67.6018163  92.6575865  29.6329778
  68.9109292  91.9637383  29.9439068  70.5658875 102.3539451  31.1598850
  70.5235054 102.5800298  30.2307382  71.4821574 102.1202826  31.3084651
  74.0124509  92.8223519  38.0579479  74.3673897  93.0494992  38.9173945
  74.6596640  93.1541896  37.4356735  79.7422246  95.9441955  28.7628808
  79.6040145  96.1343551  27.8349998  79.3858465  96.7061338  29.2196860
  67.9064372  89.9300050  34.8425820  68.5463751  89.7888809  34.1448784
  67.0741903  89.6434563  34.4664422  79.7691626  98.0118482  33.7740080
  80.2028132  97.9193771  34.6223134  80.4823206  97.9875982  33.1360096
  68.6824676  99.2302480  30.9560813  69.4765275  98.7352801  30.7543388
  67.9716368  98.7020344  30.5928518  73.5019520 101.6120576  35.3073180
  73.5556543 102.1811512  36.0750896  72.6334302 101.7822461  34.9427218
  64.9907439  93.3745562  27.0320566  64.0605028  93.3130018  27.2490528
  65.0864911  92.8521515  26.2357207  64.9092989  89.9000375  29.6198807
  65.1699806  90.8145708  29.5107968  65.7310161  89.4324818  29.7695420
  66.3817914  91.3138132  36.7897632  67.0540967  91.1055494  36.1410281
  65.5547700  91.1160218  36.3502864  80.6307175  98.0542183  36.3072965
  80.8243065  98.9587993  36.5532240  80.5307793  97.5949602  37.1411550
  72.2843486  87.9400073  38.8063293  71.6371401  88.6390023  38.7127769
  73.0544501  88.3736217  39.1739541  75.6922284  98.2048925  41.8813846
  75.5407790  97.9759477  40.9643930  75.6826963  99.1619527  41.8945191
  72.4607620  95.7780838  36.8660112  73.3899680  95.9291998  36.6929080
  72.0398650  95.8664859  36.0108759  71.2595952  99.8031502  34.6358650
  71.1207038  99.4350287  35.5084588  70.4710548 100.3179142  34.4642608
  71.8544104 104.9040599  25.9784186  72.0295860 104.4328642  26.7929809
  71.1676892 105.5306365  26.2065447  72.8101167  99.1813105  32.0247488
  72.4751000  99.1413875  32.9205138  72.3105113  98.5157821  31.5517898
  66.7845411  94.5880735  37.5500069  66.6465209  93.8560974  38.1511608
  67.6950335  94.4989635  37.2684257  75.7460359  96.5269139  22.2984547
  75.1289529  95.8015968  22.2017600  75.2776847  97.2878500  21.9551622
  69.4127712  94.3000694  37.0383749  70.1227330  93.6593887  36.9970367
  69.3697020  94.5513589  37.9609929  77.4014490 101.2368048  39.9590328
  77.3427037 100.5527268  39.2920911  77.8034009 101.9787038  39.5070954
  68.1256646  91.2865912  38.8579388  67.5894003  90.8356651  39.5100984
  67.5373354  91.4211821  38.1149852  66.4205189 108.0529962  32.7524047
  66.6601788 108.6848486  33.4303065  65.5774386 107.7018002  33.0389406
  67.5358905  90.7454564  21.4205852  66.6588371  90.6243365  21.0568098
  68.0116658  89.9540642  21.1684740  77.4031898  99.2007632  38.1904307
  76.5158677  98.8633554  38.3130706  77.9730449  98.4690663  38.4273073
  59.0561045  95.5331724  31.5147359  59.7432085  95.2193454  30.9268374
  58.9009174  96.4373088  31.2414610  63.8595767  90.4221920  35.9432383
  63.7753956  89.8147590  35.2082792  63.0378473  90.9130938  35.9441879
  70.9333051 103.8609084  35.1565551  70.8603223 104.6664056  35.6684855
  70.4910444 104.0601050  34.3313572  70.7222831 103.0980854  28.6668372
  69.9390353 103.6402534  28.7606597  71.4215576 103.6154834  29.0662613
  74.0319481  88.9075484  31.3102578  74.5288180  88.1545446  30.9903648
  73.2606462  88.9439800  30.7445787  81.8849238  94.6115849  32.9520869
  81.8739115  95.4940565  32.5814802  81.0166618  94.2587400  32.7575406
  73.3931735 103.7595918  37.3123709  74.1059707 104.3943383  37.2399611
  72.9021763 103.8559784  36.4963711  75.1149262  97.6647171  28.8841001
  74.1805540  97.7848633  28.7145705  75.2925930  96.7619638  28.6201011
  70.6154450  91.0492867  31.0374262  70.2452237  90.4963907  31.7255168
  71.1113542  90.4451000  30.4849262  78.5021813  93.5064490  29.4191035
  78.9682265  94.3392482  29.3451338  78.9529313  93.0409472  30.1236294
  68.4443648 101.5090362  38.1329280  69.1453108 102.1426845  38.2858674
  67.9738763 101.8505093  37.3724919  76.5698044  99.8508311  26.4177187
  76.8457888  99.7364906  27.3271061  75.7002543  99.4525796  26.3789360
  76.4738476  85.8745077  33.4581936  75.5601555  86.1049304  33.6264143
  76.9031577  85.9583521  34.3095969  76.2444934  94.0634969  35.9581830
  75.5916384  94.3110877  35.3034283  76.6225314  93.2499107  35.6244308
  73.2052108 104.0994662  30.0610001  73.3874503 103.2816318  30.5237753
  74.0285094 104.3162354  29.6234891  73.5394274 103.0262847  27.3225049
  74.0682040 102.5155302  26.7095211  73.8022493 102.7105378  28.1870582
  72.2932507  94.8054780  42.4447868  71.6173144  94.7048909  43.1150243
  73.1160141  94.6493994  42.9083865  64.0411366 101.0426717  35.0660383
  64.6264803 100.2970405  35.1988287  63.8436205 101.3530673  35.9497047
  66.8950021 104.0777964  30.0822825  66.2260397 104.5624092  29.5986865
  66.7562891 104.3247184  30.9966204  58.6329021  93.6132317  33.7864826
  58.6713121  93.0795908  34.5801944  58.1269314  93.0867522  33.1675803
  71.0355290 106.1121708  36.6805484  71.5873598 106.2753329  37.4454569
  71.3761484 106.7026145  36.0085508  66.0119783  88.4596857  37.2827368
  66.0761110  89.3211688  36.8704766  65.9486904  87.8470859  36.5499727
  65.4872056  90.5319990  40.9300403  66.1144095  90.1497067  41.5437927
  64.6299975  90.3134192  41.2956095  75.8866164 100.9382965  42.5354138
  76.4306068 101.5512923  42.0409093  75.3053009 101.4962543  43.0521151
  62.2637599  92.3396419  26.8618757  62.5591040  91.4307097  26.8085811
  61.3625634  92.3184158  26.5399760  74.1723677 104.0603683  33.6669166
  74.0474817 103.2593423  33.1580111  74.8302768 104.5549876  33.1783136
  65.7931846  90.4152416  32.8446306  65.0718431  91.0288383  32.7053779
  66.5825101  90.9510180  32.7662952  76.2358586 101.8612703  35.2948716
  75.2888921 101.7418054  35.2227043  76.5841359 100.9735201  35.3774977
  68.5958159  87.7506842  39.1186958  69.1192561  87.9969139  39.8813267
  68.3770492  88.5826877  38.6990095  63.9925440  90.0210517  26.9858082
  63.6638146  89.1407896  26.8033188  64.3464811  89.9658185  27.8734472
  73.2405019 101.6565419  31.4953068  73.0929981 100.7282127  31.6760638
  74.0658513 101.6785510  31.0110143  67.1067263  90.3083486  27.3533560
  67.4463336  90.8369408  26.6312169  67.5539384  90.6463893  28.1292127
  76.8439141 102.4793978  32.5817941  77.7685688 102.2736839  32.4442392
  76.6754444 102.2310379  33.4907282  69.8010704  88.6920537  36.8036628
  69.4607524  87.8928350  37.2057308  69.0949710  88.9922248  36.2313461
  70.4527176  85.7769850  35.2563951  71.2753245  85.3030328  35.1342842
  70.6965239  86.5560333  35.7562638  69.0935410  88.8058108  25.5526853
  69.8143773  89.1839361  25.0490570  68.4700715  89.5246985  25.6561831
  73.2366533  89.5103257  26.4885185  73.4530148  90.3927895  26.1874013
  72.7560600  89.1189470  25.7590827  67.9765755  92.4688970  33.0655930
  67.8310335  92.7829273  33.9580211  67.4990958  93.0873871  32.5126829
  69.8362138  89.4591518  33.1136819  69.8223706  88.5632612  32.7769117
  70.5534566  89.4662182  33.7475105  71.6888268  89.8928858  35.1589947
  71.4306046  90.8145929  35.1574277  71.1573309  89.4959293  35.8490411
  76.6334457 102.9979646  27.9380032  76.8071335 102.4326068  27.1853885
  77.1263348 103.7980540  27.7559522  62.4511417  95.0094315  36.0043591
  61.9064885  95.7854123  36.1363865  63.3290767  95.3565119  35.8462712
  69.2399034  88.3405899  28.3824390  69.3614945  87.4122545  28.5815277
  68.9501076  88.3544584  27.4702705  72.1090224  86.0260809  31.5191109
  72.1311921  86.0900142  30.5643089  72.5258283  85.1865318  31.7131616
  82.4873848  95.7616069  29.5570332  82.9304994  95.0123394  29.1589455
  81.6100359  95.7526205  29.1744064  77.6209630 102.3146410  25.0376931
  78.3160534 102.9353103  25.2564245  77.9632780 101.4641761  25.3129308
  63.2377439  94.1364211  38.8973748  62.4959175  94.2846846  39.4838378
  62.9170183  94.3972477  38.0340497  79.5201053  99.7646116  26.5664261
  80.0452377 100.1033388  25.8413581  79.4323405  98.8293131  26.3827396
  71.1821101 103.6780189  38.6954138  71.4908228 103.4329336  39.5676838
  71.9796583 103.8826828  38.2073008  71.2041713 105.8318099  30.9259514
  70.7646704 105.3394477  31.6192371  71.9549830 105.2891066  30.6851590
  63.6834052 102.0229640  30.9284143  64.5092072 101.7233412  30.5482786
  63.3328104 101.2537262  31.3773931  68.6515586 101.3756108  32.9981816
  68.0295595 100.7126813  32.6984044  69.3220452 101.4017240  32.3155464
  61.8842657  99.9415966  31.8873076  61.0474566  99.5138140  31.7057077
  61.8566303 100.1348409  32.8243867  68.7240113  89.8537896  42.5914322
  68.7728269  90.7300019  42.2092092  69.2662627  89.3115289  42.0185965
  79.2094959 100.3979019  41.8715459  78.4190502 100.3803158  41.3319959
  78.9728313 100.9367313  42.6264496  79.3292834  97.2471486  39.1848188
  79.3790839  97.0821493  40.1263711  79.2206757  96.3798745  38.7946069
  68.2129092  99.9260031  26.4740277  68.3617213 100.6095496  25.8206949
  69.0195536  99.9065121  26.9889732  76.6196596  93.2302414  40.5007494
  77.5206459  93.0908878  40.2091492  76.6944571  93.3956868  41.4405672
  70.9539402  90.6069268  39.3460681  70.0842711  90.9002834  39.0743269
  71.1898882  91.1909713  40.0667944  80.8311031  99.6668427  39.4290209
  80.5395839 100.0298408  40.2653670  80.2183162  98.9535435  39.2503541
  82.0306713  97.2321307  31.9492780  82.8653604  97.6711111  32.1130340
  82.1665842  96.7559960  31.1301025  79.0798219  94.7901042  37.8970267
  79.5552340  94.9828688  37.0889119  78.1563784  94.8460227  37.6513651
  65.9681725  95.9525209  27.4801346  65.7227767  95.0487539  27.6781556
  66.1377640  95.9542359  26.5380824  73.6578435  86.8248885  36.8626101
  74.1760379  87.5609912  36.5372590  73.3033568  87.1312879  37.6972860
  65.2377373  91.6853566  24.9787507  64.5446618  91.7597921  24.3227543
  64.9929125  90.9213910  25.5009024  73.9091030  83.2449168  32.3826998
  74.1892783  82.5772357  33.0087424  74.6941636  83.4378263  31.8701662
  71.7124498 102.4208162  23.9452024  71.1398465 103.0398349  23.4922496
  72.2857292 102.9707523  24.4791946  77.7799888  91.6666802  36.1298573
  78.7317311  91.7664899  36.1510797  77.6103338  90.8745070  36.6396657
  75.8014267  88.7522385  36.3157974  75.2064199  89.0327398  35.6204462
  75.5163964  89.2416286  37.0874715  74.9321758 102.7045312  25.0760606
  75.8652431 102.6390873  25.2793482  74.8444971 103.5401579  24.6175139
  77.5609774 102.0211182  22.0364554  77.4823406 101.6871046  22.9300312
  78.3819441 102.5132950  22.0356026  80.2587966  94.8872921  35.2440873
  80.2264286  93.9488922  35.4300556  80.8688589  94.9656958  34.5106697
  72.0971297  93.7568974  21.2868077  73.0430401  93.6275183  21.3556495
  71.7185541  93.0183636  21.7637505  80.4082454  91.6783965  35.2899156
  79.8921503  90.8942422  35.1029085  81.2922403  91.3502681  35.4545675
  78.0693181  85.4224980  31.2494968  77.8718002  85.1140069  32.1338300
  78.6792887  86.1486619  31.3792898  86.0764516  95.9488928  34.3846909
  86.8067904  95.6874216  34.9454613  85.4671461  95.2117650  34.4248977
  84.1579813  94.0896791  34.9821361  83.4312976  93.9552756  34.3737852
  83.7427100  94.3973619  35.7878079  71.9809989  97.8086721  42.7468734
  72.9012999  97.9865320  42.9408780  71.9459572  96.8642766  42.5948433
  70.2814214  91.6818951  21.2222962  69.3745669  91.3852064  21.2985675
  70.5590195  91.3848769  20.3557248  61.1992154  93.0025314  31.6722008
  60.8794938  92.1490622  31.3796382  60.6525582  93.2173892  32.4279976
  64.9772062  95.7187755  35.3891515  65.1958071  96.6504863  35.4079549
  65.3897835  95.3595730  36.1746319  71.8976279  86.2255841  27.3767203
  71.0877008  85.8802925  27.7522449  72.5860696  85.9163384  27.9654815
  73.8266828  85.3033887  28.9991500  74.3797866  85.7229341  29.6581523
  74.0636914  84.3769635  29.0414456  69.8499927  91.2920961  44.7794264
  69.7496654  92.2415318  44.7106355  69.6321469  90.9639200  43.9070334
  69.0512998  88.5405886  21.3634941  69.9132162  88.8660784  21.6230758
  69.2363342  87.7537382  20.8508007  61.0680414  96.6228226  33.6415130
  60.3743885  96.2082178  33.1285084  61.8153405  96.6648762  33.0448549
  77.2045635  87.4134412  28.5070164  76.6244304  88.0719217  28.1248216
  76.9381567  86.5911757  28.0957582  75.6549201  86.8139470  30.7091484
  76.1548980  86.9256005  29.9005803  76.2984809  86.5100523  31.3492293
  69.7131197  94.7218100  43.5959325  69.2298279  95.5218460  43.8023214
  69.7992136  94.7326045  42.6426769  62.9817157  96.5546479  31.5181145
  62.9587845  96.6534167  30.5663028  63.2917793  97.4011630  31.8398311
  65.6404534  98.6122635  35.6327759  66.5947788  98.5806577  35.5657691
  65.4417058  98.1513258  36.4477985  66.2303917  97.1823751  38.1998557
  67.0496806  97.6767829  38.2233394  66.5040724  96.2655719  38.1716124
  75.9870513  89.5734503  27.5626512  75.0996368  89.8584153  27.3446707
  76.4024502  89.4128266  26.7153789  79.3385049  89.5981024  31.2780852
  80.1145439  90.0877476  31.5505468  78.6133183  90.0239078  31.7352721
  81.7757608  90.3108643  32.3354792  82.3702098  90.0704379  31.6248100
  81.8484191  89.5915774  32.9628328  63.9954763 104.1542254  32.6497957
  63.8609231 103.3942655  32.0835955  63.5786826 104.8783154  32.1826746
  75.1313726  99.3379178  21.6574532  75.8349576  99.5429180  22.2732188
  74.4076375  99.9055939  21.9223616  75.9611537  95.0889039  27.7776802
  75.9046738  95.5457590  26.9384435  76.5139879  94.3279723  27.5999645
  79.7716342  90.8778771  28.6026922  79.5153277  90.4775406  29.4335130
  79.1469210  91.5922565  28.4777061  84.0828680  93.6174844  31.1098213
  83.5228238  93.6868033  31.8829775  83.4772184  93.4415829  30.3897710
  67.1523889 105.0511571  32.8616400  67.0356273 105.9957004  32.7595090
  66.3316335 104.7485133  33.2502199  77.0400424  99.7761707  23.7072992
  77.8746028  99.3442905  23.5250467  76.8784767  99.6043720  24.6349887
  76.6946316  96.2793820  25.0729332  76.6395120  96.1138091  24.1317776
  76.0692371  96.9869853  25.2291521  61.4838831  91.5161884  38.8990754
  62.1297694  91.0060838  39.3877979  61.2755982  92.2530566  39.4734179
  74.0092223  98.5842732  44.3982894  74.8783383  98.7583384  44.0369529
  73.5298975  99.4037149  44.2758624  70.0042441  85.7801929  24.6514650
  69.9921111  86.7243769  24.8082921  70.8965863  85.5972074  24.3574111
  68.1778403 105.7039833  36.0772328  69.0805650 105.7363443  36.3938823
  67.9515773 104.7740284  36.0918664  69.9332005 104.4570819  32.7382407
  68.9827636 104.4572681  32.6246779  70.2364491 103.7103554  32.2218441
  73.8194561  82.3744706  28.9060587  73.0526957  81.8203192  29.0517269
  74.2305266  82.4466574  29.7674738  65.8236322  88.6629501  42.9965768
  66.6867783  88.3066306  43.2069093  65.2501732  88.3243396  43.6841172
  85.6684699 110.2931358  33.8028169  86.3063109 110.1738105  33.0991509
  85.5505542 111.2412202  33.8616121  82.4774405 110.2458786  33.7389694
  82.1392917 110.1299851  32.8510229  83.3464173 109.8449951  33.7190700
  78.3361221 112.0994262  29.7286585  77.7726086 112.0084199  28.9602872
  78.2213616 111.2794167  30.2089077  82.9594188 111.3993638  39.6975899
  82.9482829 111.0046436  38.8256403  83.1214828 110.6659710  40.2909671
  75.8825653 113.5945454  32.5670805  76.6746945 113.2536279  32.1517104
  76.1222303 113.7040429  33.4872958  83.9160779 115.7665230  25.0401050
  83.2648759 116.3519310  24.6535063  84.7105142 116.2971425  25.0996087
  77.8416407 112.8554367  25.4388184  78.6147283 112.3083354  25.3001060
  78.1941805 113.7198617  25.6502645  79.6801449 114.1830749  38.6455083
  79.3891315 115.0876380  38.5301750  80.3158434 114.2247277  39.3599153
  80.6057656 111.5607598  35.2356443  81.2021228 111.3363620  34.5213406
  80.6632628 110.8192343  35.8381891  80.1782684 109.0147033  23.0706634
  80.4308205 108.4928555  22.3090097  79.2407244 108.8513179  23.1733317
  85.2225967 108.0182812  30.8781377  86.0089056 107.6002235  30.5271794
  85.4864672 108.9228904  31.0463025  85.3936045 113.4555662  25.5770034
  84.7581878 113.5290289  26.2890939  85.0633451 114.0449261  24.8989113
  90.6234394 107.9558045  31.7814356  91.3559566 107.3857262  32.0152185
  89.8673750 107.5679645  32.2220861  79.8978973 110.9175139  25.2731009
  79.7815231 110.2420043  25.9412093  80.0081233 110.4307513  24.4563162
  82.2410514 110.3785286  28.9777698  81.8768721 109.8515907  29.6890620
  83.0977630 109.9883755  28.8044183  88.1459815 101.6679619  36.2408964
  87.8143140 102.5375030  36.0170179  87.5505428 101.3515903  36.9202995
  81.8816001 105.4075186  23.9739047  82.0490403 106.2755422  24.3409518
  81.6913170 105.5702468  23.0500336  84.6391334 113.8692165  35.6404877
  84.3392057 114.7717204  35.5320684  84.2942394 113.6024348  36.4926030
  78.0903816 110.3205962  31.6741581  77.1654312 110.1882176  31.8819273
  78.3388229 111.1000181  32.1711524  88.0388478 106.3874705  33.3202314
  87.1305355 106.3190114  33.0261075  87.9876074 106.8646650  34.1484140
  81.8605222 107.8632844  24.9585713  81.7404847 108.3089894  25.7971194
  81.1657810 108.2118161  24.3999252  75.4512627 109.9639235  32.5085370
  75.5805008 110.2173714  33.4224782  74.7710078 110.5566943  32.1890026
  79.6212114 120.6336485  28.6075845  79.5436144 121.5844310  28.6864325
  79.0173758 120.2882358  29.2650771  82.1129344 107.8064351  41.2637212
  81.3362678 108.3658271  41.2540076  82.7519907 108.2921134  41.7852082
  89.9050124 104.5891144  35.0980188  89.2624505 104.8823677  34.4519983
  89.4005053 104.4744064  35.9033385  87.5590288 108.3354317  25.7866047
  88.4708144 108.5681704  25.6113745  87.0499935 108.9191361  25.2241126
  80.3675716 110.6149804  40.8255179  81.1090401 111.1534848  40.5490002
  79.6612702 111.2416093  40.9826730  85.8431056 112.7578945  39.4227340
  86.2514412 112.3161355  38.6781972  85.1208317 112.1831572  39.6761533
  82.1962126 107.6951551  36.7960897  83.0423321 108.1190965  36.9395546
  82.1360763 107.0385176  37.4899460  86.1659870 113.3180135  33.1779629
  85.5368733 113.4825849  32.4755697  85.7785532 113.7321745  33.9490593
  90.0449102 114.2534573  30.5323993  89.3600140 114.6333474  29.9821026
  90.1292952 114.8629900  31.2655940  85.3461571 105.3555920  38.4542071
  85.1022503 106.1097980  37.9176346  85.6221502 105.7341267  39.2889318
  87.3000034 111.8994532  37.1319336  87.5116929 112.5426292  36.4553717
  87.2529782 111.0656849  36.6641266  84.9026263 104.5112353  34.0355908
  84.0410742 104.8093606  34.3272646  84.9288698 104.7282752  33.1036941
  81.7187832 113.0554543  30.4429714  82.1826178 113.3342246  29.6534337
  81.4544630 112.1537988  30.2602805  78.6111913 112.6026025  33.3809477
  79.1813270 113.0313293  32.7426962  79.2020025 112.3208610  34.0793663
  80.6556718 109.1777696  27.2519279  81.3580762 109.6298739  27.7193206
  80.3237347 108.5361515  27.8799172  79.1037080 107.7689452  41.6270489
  78.4735740 108.4505733  41.8605885  78.9973168 107.6572534  40.6823627
  74.3982052 107.4361248  32.5536413  73.6081106 107.6918777  32.0776523
  74.8893300 108.2509586  32.6588453  88.4145862 114.7766488  35.3041694
  89.2363306 114.3746675  35.0224375  88.4108265 114.6734722  36.2557809
  76.3496798 107.8005828  29.5119889  75.5527961 107.9124522  30.0303385
  76.1222390 108.1392480  28.6460780  82.1802465 114.3250531  37.4602404
  82.2446898 114.7870938  38.2960576  81.4713389 113.6947896  37.5884714
  72.6819755 107.6891739  34.9851404  72.9327794 108.5738749  35.2508979
  73.2179304 107.5096340  34.2126495  96.5051855 111.1205236  31.6526665
  95.7515563 110.5512634  31.4970669  96.6399396 111.0867900  32.5997300
  81.8950483 115.9918638  27.3281384  81.7596158 116.8370174  27.7566232
  82.4360295 116.1937916  26.5647318  78.3817823 102.0710218  43.9895740
  77.9884768 101.5176417  44.6643384  79.1983963 102.3820797  44.3802257
  75.3479880 113.5094076  27.9009309  75.8604401 114.3037327  28.0514874
  76.0002593 112.8120367  27.8342911  77.1574765 116.6259833  29.9832063
  77.3341393 117.5477797  29.7953047  77.9531599 116.3118252  30.4126442
  81.2985784 103.4868097  41.5815996  82.0395497 104.0875250  41.5020459
  81.5303706 102.7445735  41.0234039  76.4427122 108.6724465  39.8594226
  76.3280637 107.7709722  40.1601325  75.5871639 108.9188161  39.5079042
  83.5218959 116.6142205  41.4581726  83.0782814 115.8278583  41.1402631
  84.1836173 116.8021355  40.7925617  78.2806081 118.1438006  35.9842405
  78.8313506 118.0155070  35.2119399  77.4417556 118.4432895  35.6337298
  85.6200197 116.8945005  39.4863128  85.6018673 117.7153886  38.9943397
  86.5420117 116.7699080  39.7113269  82.0773252 114.4089134  40.3286636
  82.6101588 113.6477422  40.0985944  81.5487333 114.1162786  41.0710791
  85.2442947  99.5149200  35.8580278  84.9007216 100.4050842  35.7819388
  85.6121909  99.3250858  34.9949863  73.3128797 111.8382731  28.6768880
  74.1504019 112.2479739  28.4602588  73.4907065 110.8982173  28.6469074
  85.2093229 109.5057811  24.3652713  84.6939853 110.2762416  24.6041100
  84.9370538 108.8322947  24.9885774  82.7940340 104.3507512  29.4237951
  81.9381937 103.9614362  29.2443590  83.2067292 104.4299473  28.5637737
  84.3239487 101.8853855  33.8229511  83.8204283 101.8483991  33.0097316
  84.6170094 102.7946598  33.8826168  80.5682373 101.9692585  32.8295693
  81.4335370 101.7735394  32.4701582  80.6359882 101.7402937  33.7565050
  90.1827503 112.2590166  26.3005886  89.4056946 111.9201325  25.8561049
  90.8618984 112.2642789  25.6260851  84.9979532 107.3784903  26.1912494
  84.6929668 107.6931053  27.0422637  85.9509975 107.4566323  26.2339827
  83.4425964 113.5375127  27.8405448  82.9147326 112.8027886  27.5278686
  82.9413467 114.3149803  27.5945416  88.4218810 111.7324147  32.9572494
  87.7642485 112.4223409  33.0452623  89.2259210 112.1220579  33.3006481
  78.1744692 104.1994793  30.2012060  78.7488444 103.9769974  29.4685253
  78.7615674 104.2683487  30.9540661  87.2324269 110.0868520  31.0076436
  87.7456151 110.7198512  31.5098146  87.8825493 109.4869715  30.6419796
  78.5014279 106.2299254  24.2207945  77.6651591 106.5673941  24.5417220
  78.3619049 106.0948234  23.2835082  80.4767360 101.0736042  28.9287129
  79.8231772 100.7585059  28.3043744  80.4347834 100.4511782  29.6546952
  81.5878564 111.3555337  20.8440421  80.6805626 111.1244590  21.0431570
  82.0849596 110.5592956  21.0314403  84.4946643 120.0652844  23.7637107
  83.8208342 120.3684541  24.3722065  84.8812465 120.8681924  23.4142564
  83.7105100 107.5617975  33.2534777  82.7927661 107.7832922  33.0956465
  84.1265244 107.6364286  32.3946484  84.4940148 108.9609391  28.3837457
  85.2411967 109.4730788  28.0744579  84.7631737 108.6393444  29.2441851
  82.7666798 111.4567932  25.3664411  81.8578017 111.1726965  25.4636881
  82.7961882 111.8767010  24.5067718  87.9986065 115.0674521  29.1355579
  87.5448392 114.2265431  29.1920769  87.3680032 115.7035920  29.4730359
  86.9418985 105.9966507  30.3656246  86.2041742 105.4843894  30.6966489
  87.1945758 105.5566889  29.5539523  86.4419005 116.9051018  30.0705397
  86.7341979 117.4656075  29.3517763  86.9517625 117.1979579  30.8258556
  87.0430612  98.7742759  30.9598016  87.3489489  97.9140123  30.6723931
  87.7683217  99.3660380  30.7597009  73.3354968 109.1773446  29.3479613
  73.1379368 108.5842807  28.6230680  72.7801632 108.8725656  30.0655552
  81.3151692 109.0696552  31.4674207  81.3700302 108.1170389  31.3916683
  80.5042894 109.2255992  31.9515505  82.4642886 112.9976676  22.7052490
  82.0262316 112.2812534  22.2458127  83.2053327 113.2252790  22.1437581
  79.2544052 107.6873612  29.2264585  78.4411917 107.9867783  29.6329778
  79.7503046 107.2929301  29.9439068  81.4052630 117.6831369  31.1598850
  81.3628809 117.9092215  30.2307382  82.3215329 117.4494744  31.3084651
  84.8518264 108.1515437  38.0579479  85.2067651 108.3786910  38.9173945
  85.4990395 108.4833813  37.4356735  90.5816000 111.2733873  28.7628808
  90.4433899 111.4635469  27.8349998  90.2252219 112.0353255  29.2196860
  78.7458127 105.2591968  34.8425820  79.3857506 105.1180727  34.1448784
  77.9135657 104.9726481  34.4664422  90.6085380 113.3410400  33.7740080
  91.0421887 113.2485689  34.6223134  91.3216961 113.3167900  33.1360096
  79.5218431 114.5594398  30.9560813  80.3159029 114.0644718  30.7543388
  78.8110123 114.0312261  30.5928518  84.3413275 116.9412494  35.3073180
  84.3950297 117.5103430  36.0750896  83.4728056 117.1114379  34.9427218
  75.8301194 108.7037480  27.0320566  74.8998782 108.6421935  27.2490528
  75.9258666 108.1813433  26.2357207  75.7486743 105.2292293  29.6198807
  76.0093560 106.1437626  29.5107968  76.5703915 104.7616735  29.7695420
  77.2211668 106.6430050  36.7897632  77.8934722 106.4347412  36.1410281
  76.3941455 106.4452136  36.3502864  91.4700930 113.3834100  36.3072965
  91.6636820 114.2879911  36.5532240  91.3701548 112.9241519  37.1411550
  83.1237240 103.2691991  38.8063293  82.4765155 103.9681940  38.7127769
  83.8938256 103.7028135  39.1739541  86.5316038 113.5340843  41.8813846
  86.3801545 113.3051395  40.9643930  86.5220718 114.4911444  41.8945191
  83.3001375 111.1072756  36.8660112  84.2293435 111.2583915  36.6929080
  82.8792405 111.1956776  36.0108759  82.0989707 115.1323420  34.6358650
  81.9600792 114.7642205  35.5084588  81.3104303 115.6471060  34.4642608
  82.6937858 120.2332517  25.9784186  82.8689614 119.7620560  26.7929809
  82.0070647 120.8598283  26.2065447  83.6494922 114.5105023  32.0247488
  83.3144754 114.4705793  32.9205138  83.1498867 113.8449739  31.5517898
  77.6239166 109.9172653  37.5500069  77.4858964 109.1852892  38.1511608
  78.5344089 109.8281553  37.2684257  86.5854113 111.8561057  22.2984547
  85.9683284 111.1307885  22.2017600  86.1170602 112.6170417  21.9551622
  80.2521466 109.6292612  37.0383749  80.9621085 108.9885804  36.9970367
  80.2090774 109.8805507  37.9609929  88.2408245 116.5659965  39.9590328
  88.1820791 115.8819186  39.2920911  88.6427763 117.3078956  39.5070954
  78.9650400 106.6157830  38.8579388  78.4287757 106.1648569  39.5100984
  78.3767109 106.7503739  38.1149852  77.2598944 123.3821879  32.7524047
  77.4995542 124.0140404  33.4303065  76.4168140 123.0309919  33.0389406
  78.3752659 106.0746481  21.4205852  77.4982126 105.9535282  21.0568098
  78.8510412 105.2832560  21.1684740  88.2425652 114.5299549  38.1904307
  87.3552431 114.1925471  38.3130706  88.8124203 113.7982581  38.4273073
  69.8954799 110.8623641  31.5147359  70.5825839 110.5485371  30.9268374
  69.7402928 111.7665006  31.2414610  74.6989521 105.7513838  35.9432383
  74.6147710 105.1439507  35.2082792  73.8772228 106.2422856  35.9441879
  81.7726806 119.1901002  35.1565551  81.6996977 119.9955973  35.6684855
  81.3304199 119.3892968  34.3313572  81.5616585 118.4272772  28.6668372
  80.7784107 118.9694452  28.7606597  82.2609330 118.9446751  29.0662613
  84.8713235 104.2367401  31.3102578  85.3681935 103.4837364  30.9903648
  84.1000217 104.2731718  30.7445787  92.7242993 109.9407767  32.9520869
  92.7132869 110.8232482  32.5814802  91.8560372 109.5879318  32.7575406
  84.2325489 119.0887836  37.3123709  84.9453461 119.7235301  37.2399611
  83.7415518 119.1851702  36.4963711  85.9543016 112.9939088  28.8841001
  85.0199295 113.1140551  28.7145705  86.1319685 112.0911555  28.6201011
  81.4548204 106.3784784  31.0374262  81.0845992 105.8255825  31.7255168
  81.9507297 105.7742918  30.4849262  89.3415567 108.8356408  29.4191035
  89.8076020 109.6684399  29.3451338  89.7923068 108.3701389  30.1236294
  79.2837403 116.8382279  38.1329280  79.9846862 117.4718762  38.2858674
  78.8132518 117.1797011  37.3724919  87.4091799 115.1800229  26.4177187
  87.6851642 115.0656824  27.3271061  86.5396297 114.7817714  26.3789360
  87.3132230 101.2036995  33.4581936  86.3995310 101.4341222  33.6264143
  87.7425332 101.2875439  34.3095969  87.0838689 109.3926887  35.9581830
  86.4310139 109.6402794  35.3034283  87.4619069 108.5791025  35.6244308
  84.0445863 119.4286580  30.0610001  84.2268257 118.6108236  30.5237753
  84.8678849 119.6454272  29.6234891  84.3788028 118.3554765  27.3225049
  84.9075794 117.8447220  26.7095211  84.6416248 118.0397295  28.1870582
  83.1326262 110.1346698  42.4447868  82.4566899 110.0340827  43.1150243
  83.9553896 109.9785912  42.9083865  74.8805121 116.3718634  35.0660383
  75.4658558 115.6262322  35.1988287  74.6829959 116.6822591  35.9497047
  77.7343776 119.4069882  30.0822825  77.0654151 119.8916009  29.5986865
  77.5956646 119.6539102  30.9966204  69.4722775 108.9424235  33.7864826
  69.5106875 108.4087825  34.5801944  68.9663068 108.4159440  33.1675803
  81.8749045 121.4413625  36.6805484  82.4267353 121.6045247  37.4454569
  82.2155238 122.0318063  36.0085508  76.8513538 103.7888775  37.2827368
  76.9154864 104.6503606  36.8704766  76.7880658 103.1762777  36.5499727
  76.3265810 105.8611908  40.9300403  76.9537849 105.4788985  41.5437927
  75.4693729 105.6426110  41.2956095  86.7259919 116.2674883  42.5354138
  87.2699823 116.8804841  42.0409093  86.1446764 116.8254461  43.0521151
  73.1031353 107.6688337  26.8618757  73.3984794 106.7599015  26.8085811
  72.2019389 107.6476076  26.5399760  85.0117432 119.3895601  33.6669166
  84.8868571 118.5885341  33.1580111  85.6696523 119.8841794  33.1783136
  76.6325600 105.7444333  32.8446306  75.9112186 106.3580301  32.7053779
  77.4218856 106.2802098  32.7662952  87.0752340 117.1904621  35.2948716
  86.1282676 117.0709972  35.2227043  87.4235113 116.3027119  35.3774977
  79.4351914 103.0798760  39.1186958  79.9586315 103.3261056  39.8813267
  79.2164247 103.9118795  38.6990095  74.8319195 105.3502434  26.9858082
  74.5031901 104.4699813  26.8033188  75.1858565 105.2950103  27.8734472
  84.0798774 116.9857337  31.4953068  83.9323736 116.0574044  31.6760638
  84.9052267 117.0077428  31.0110143  77.9461018 105.6375404  27.3533560
  78.2857090 106.1661325  26.6312169  78.3933138 105.9755810  28.1292127
  87.6832895 117.8085896  32.5817941  88.6079443 117.6028757  32.4442392
  87.5148199 117.5602297  33.4907282  80.6404459 104.0212455  36.8036628
  80.3001279 103.2220268  37.2057308  79.9343465 104.3214166  36.2313461
  81.2920930 101.1061767  35.2563951  82.1147000 100.6322245  35.1342842
  81.5358994 101.8852251  35.7562638  79.9329165 104.1350026  25.5526853
  80.6537527 104.5131279  25.0490570  79.3094469 104.8538903  25.6561831
  84.0760288 104.8395175  26.4885185  84.2923902 105.7219813  26.1874013
  83.5954355 104.4481388  25.7590827  78.8159509 107.7980888  33.0655930
  78.6704090 108.1121191  33.9580211  78.3384713 108.4165788  32.5126829
  80.6755892 104.7883436  33.1136819  80.6617461 103.8924529  32.7769117
  81.3928320 104.7954100  33.7475105  82.5282023 105.2220776  35.1589947
  82.2699801 106.1437847  35.1574277  81.9967063 104.8251211  35.8490411
  87.4728212 118.3271563  27.9380032  87.6465089 117.7617986  27.1853885
  87.9657103 119.1272458  27.7559522  73.2905171 110.3386232  36.0043591
  72.7458639 111.1146040  36.1363865  74.1684521 110.6857037  35.8462712
  80.0792788 103.6697816  28.3824390  80.2008699 102.7414462  28.5815277
  79.7894830 103.6836502  27.4702705  82.9483978 101.3552727  31.5191109
  82.9705675 101.4192060  30.5643089  83.3652037 100.5157235  31.7131616
  93.3267603 111.0907986  29.5570332  93.7698749 110.3415311  29.1589455
  92.4494113 111.0818123  29.1744064  88.4603384 117.6438328  25.0376931
  89.1554289 118.2645020  25.2564245  88.8026534 116.7933679  25.3129308
  74.0771193 109.4656129  38.8973748  73.3352929 109.6138764  39.4838378
  73.7563938 109.7264394  38.0340497  90.3594807 115.0938033  26.5664261
  90.8846131 115.4325306  25.8413581  90.2717160 114.1585049  26.3827396
  82.0214856 119.0072107  38.6954138  82.3301982 118.7621254  39.5676838
  82.8190338 119.2118745  38.2073008  82.0435468 121.1610016  30.9259514
  81.6040458 120.6686395  31.6192371  82.7943585 120.6182984  30.6851590
  74.5227807 117.3521557  30.9284143  75.3485827 117.0525329  30.5482786
  74.1721859 116.5829180  31.3773931  79.4909340 116.7048026  32.9981816
  78.8689349 116.0418731  32.6984044  80.1614207 116.7309157  32.3155464
  72.7236412 115.2707884  31.8873076  71.8868320 114.8430058  31.7057077
  72.6960057 115.4640327  32.8243867  79.5633868 105.1829814  42.5914322
  79.6122023 106.0591936  42.2092092  80.1056382 104.6407207  42.0185965
  90.0488713 115.7270937  41.8715459  89.2584257 115.7095076  41.3319959
  89.8122068 116.2659231  42.6264496  90.1686588 112.5763403  39.1848188
  90.2184593 112.4113411  40.1263711  90.0600512 111.7090662  38.7946069
  79.0522847 115.2551949  26.4740277  79.2010967 115.9387413  25.8206949
  79.8589290 115.2357039  26.9889732  87.4590351 108.5594331  40.5007494
  88.3600213 108.4200796  40.2091492  87.5338325 108.7248786  41.4405672
  81.7933156 105.9361186  39.3460681  80.9236465 106.2294752  39.0743269
  82.0292636 106.5201631  40.0667944  91.6704785 114.9960345  39.4290209
  91.3789593 115.3590325  40.2653670  91.0576916 114.2827353  39.2503541
  92.8700467 112.5613224  31.9492780  93.7047359 113.0003029  32.1130340
  93.0059596 112.0851878  31.1301025  89.9191973 110.1192959  37.8970267
  90.3946095 110.3120606  37.0889119  88.9957539 110.1752145  37.6513651
  76.8075480 111.2817127  27.4801346  76.5621522 110.3779457  27.6781556
  76.9771395 111.2834277  26.5380824  84.4972190 102.1540803  36.8626101
  85.0154134 102.8901830  36.5372590  84.1427323 102.4604796  37.6972860
  76.0771127 107.0145484  24.9787507  75.3840372 107.0889839  24.3227543
  75.8322879 106.2505828  25.5009024  84.7484784  98.5741085  32.3826998
  85.0286538  97.9064275  33.0087424  85.5335391  98.7670181  31.8701662
  82.5518253 117.7500079  23.9452024  81.9792220 118.3690266  23.4922496
  83.1251046 118.2999441  24.4791946  88.6193642 106.9958719  36.1298573
  89.5711065 107.0956817  36.1510797  88.4497093 106.2036988  36.6396657
  86.6408022 104.0814303  36.3157974  86.0457954 104.3619315  35.6204462
  86.3557719 104.5708204  37.0874715  85.7715512 118.0337229  25.0760606
  86.7046185 117.9682791  25.2793482  85.6838725 118.8693496  24.6175139
  88.4003529 117.3503100  22.0364554  88.3217160 117.0162963  22.9300312
  89.2213196 117.8424868  22.0356026  91.0981720 110.2164839  35.2440873
  91.0658040 109.2780840  35.4300556  91.7082344 110.2948876  34.5106697
  82.9365051 109.0860892  21.2868077  83.8824156 108.9567100  21.3556495
  82.5579296 108.3475554  21.7637505  91.2476209 107.0075883  35.2899156
  90.7315257 106.2234339  35.1029085  92.1316157 106.6794599  35.4545675
  88.9086936 100.7516898  31.2494968  88.7111757 100.4431986  32.1338300
  89.5186641 101.4778537  31.3792898  96.9158270 111.2780846  34.3846909
  97.6461658 111.0166134  34.9454613  96.3065215 110.5409568  34.4248977
  94.9973567 109.4188709  34.9821361  94.2706731 109.2844673  34.3737852
  94.5820854 109.7265537  35.7878079  82.8203744 113.1378638  42.7468734
  83.7406753 113.3157237  42.9408780  82.7853327 112.1934684  42.5948433
  81.1207968 107.0110868  21.2222962  80.2139424 106.7143981  21.2985675
  81.3983949 106.7140687  20.3557248  72.0385909 108.3317232  31.6722008
  71.7188693 107.4782540  31.3796382  71.4919337 108.5465810  32.4279976
  75.8165816 111.0479673  35.3891515  76.0351826 111.9796781  35.4079549
  76.2291590 110.6887647  36.1746319  82.7370034 101.5547758  27.3767203
  81.9270762 101.2094843  27.7522449  83.4254451 101.2455302  27.9654815
  84.6660582 100.6325805  28.9991500  85.2191621 101.0521258  29.6581523
  84.9030669  99.7061553  29.0414456  80.6893681 106.6212879  44.7794264
  80.5890408 107.5707236  44.7106355  80.4715223 106.2931118  43.9070334
  79.8906753 103.8697804  21.3634941  80.7525917 104.1952702  21.6230758
  80.0757097 103.0829300  20.8508007  71.9074169 111.9520143  33.6415130
  71.2137640 111.5374096  33.1285084  72.6547160 111.9940680  33.0448549
  88.0439389 102.7426330  28.5070164  87.4638058 103.4011134  28.1248216
  87.7775322 101.9203675  28.0957582  86.4942956 102.1431388  30.7091484
  86.9942734 102.2547922  29.9005803  87.1378564 101.8392441  31.3492293
  80.5524951 110.0510017  43.5959325  80.0692033 110.8510378  43.8023214
  80.6385891 110.0617962  42.6426769  73.8210911 111.8838397  31.5181145
  73.7981599 111.9826084  30.5663028  74.1311548 112.7303548  31.8398311
  76.4798289 113.9414552  35.6327759  77.4341542 113.9098495  35.5657691
  76.2810813 113.4805176  36.4477985  77.0697671 112.5115668  38.1998557
  77.8890560 113.0059747  38.2233394  77.3434479 111.5947636  38.1716124
  86.8264267 104.9026421  27.5626512  85.9390122 105.1876071  27.3446707
  87.2418256 104.7420184  26.7153789  90.1778803 104.9272942  31.2780852
  90.9539194 105.4169394  31.5505468  89.4526938 105.3530996  31.7352721
  92.6151362 105.6400561  32.3354792  93.2095853 105.3996297  31.6248100
  92.6877946 104.9207691  32.9628328  74.8348518 119.4834172  32.6497957
  74.7002986 118.7234573  32.0835955  74.4180580 120.2075072  32.1826746
  85.9707481 114.6671095  21.6574532  86.6743331 114.8721098  22.2732188
  85.2470130 115.2347857  21.9223616  86.8005291 110.4180956  27.7776802
  86.7440492 110.8749508  26.9384435  87.3533633 109.6571641  27.5999645
  90.6110097 106.2070688  28.6026922  90.3547031 105.8067324  29.4335130
  89.9862965 106.9214482  28.4777061  94.9222435 108.9466762  31.1098213
  94.3621993 109.0159951  31.8829775  94.3165938 108.7707746  30.3897710
  77.9917644 120.3803489  32.8616400  77.8750028 121.3248921  32.7595090
  77.1710090 120.0777050  33.2502199  87.8794178 115.1053624  23.7072992
  88.7139782 114.6734823  23.5250467  87.7178521 114.9335638  24.6349887
  87.5340070 111.6085738  25.0729332  87.4788874 111.4430009  24.1317776
  86.9086126 112.3161771  25.2291521  72.3232585 106.8453802  38.8990754
  72.9691449 106.3352756  39.3877979  72.1149736 107.5822484  39.4734179
  84.8485978 113.9134650  44.3982894  85.7177137 114.0875302  44.0369529
  84.3692729 114.7329066  44.2758624  80.8436196 101.1093847  24.6514650
  80.8314866 102.0535687  24.8082921  81.7359618 100.9263992  24.3574111
  79.0172158 121.0331751  36.0772328  79.9199404 121.0655361  36.3938823
  78.7909528 120.1032202  36.0918664  80.7725760 119.7862737  32.7382407
  79.8221391 119.7864599  32.6246779  81.0758246 119.0395472  32.2218441
  84.6588315  97.7036623  28.9060587  83.8920711  97.1495110  29.0517269
  85.0699020  97.7758492  29.7674738  76.6630076 103.9921419  42.9965768
  77.5261538 103.6358224  43.2069093  76.0895487 103.6535314  43.6841172
  96.5078453 125.6223276  33.8028169  97.1456863 125.5030023  33.0991509
  96.3899296 126.5704119  33.8616121  93.3168160 125.5750704  33.7389694
  92.9786671 125.4591768  32.8510229  94.1857928 125.1741869  33.7190700
  89.1754975 127.4286180  29.7286585  88.6119840 127.3376117  28.9602872
  89.0607370 126.6086084  30.2089077  93.7987943 126.7285555  39.6975899
  93.7876583 126.3338354  38.8256403  93.9608582 125.9951628  40.2909671
  86.7219407 128.9237372  32.5670805  87.5140699 128.5828196  32.1517104
  86.9616057 129.0332347  33.4872958  88.6810161 128.1846285  25.4388184
  89.4541037 127.6375272  25.3001060  89.0335560 129.0490534  25.6502645
  90.5195204 129.5122667  38.6455083  90.2285070 130.4168298  38.5301750
  91.1552188 129.5539195  39.3599153  91.4451411 126.8899516  35.2356443
  92.0414983 126.6655538  34.5213406  91.5026382 126.1484261  35.8381891
  96.0619722 123.3474729  30.8781377  96.8482811 122.9294153  30.5271794
  96.3258426 124.2520822  31.0463025 101.4628149 123.2849963  31.7814356
 102.1953321 122.7149179  32.0152185 100.7067505 122.8971563  32.2220861
  90.7372728 126.2467057  25.2731009  90.6208986 125.5711960  25.9412093
  90.8474988 125.7599431  24.4563162  93.0804269 125.7077204  28.9777698
  92.7162476 125.1807825  29.6890620  93.9371384 125.3175673  28.8044183
  98.9853569 116.9971537  36.2408964  98.6536894 117.8666948  36.0170179
  98.3899183 116.6807821  36.9202995  92.7209756 120.7367104  23.9739047
  92.8884158 121.6047340  24.3409518  92.5306925 120.8994385  23.0500336
  95.4785089 129.1984083  35.6404877  95.1785812 130.1009121  35.5320684
  95.1336148 128.9316266  36.4926030  88.9297570 125.6497880  31.6741581
  88.0048067 125.5174094  31.8819273  89.1781983 126.4292099  32.1711524
  98.8782233 121.7166623  33.3202314  97.9699110 121.6482031  33.0261075
  98.8269828 122.1938568  34.1484140  92.6998976 123.1924761  24.9585713
  92.5798602 123.6381812  25.7971194  92.0051565 123.5410079  24.3999252
  86.2906381 125.2931153  32.5085370  86.4198762 125.5465632  33.4224782
  85.6103833 125.8858861  32.1890026  92.9523098 123.1356268  41.2637212
  92.1756432 123.6950189  41.2540076  93.5913661 123.6213051  41.7852082
 100.7443879 119.9183061  35.0980188 100.1018259 120.2115594  34.4519983
 100.2398807 119.8035982  35.9033385  91.2069471 125.9441722  40.8255179
  91.9484155 126.4826766  40.5490002  90.5006456 126.5708011  40.9826730
  96.6824810 128.0870862  39.4227340  97.0908166 127.6453273  38.6781972
  95.9602072 127.5123490  39.6761533  93.0355880 123.0243469  36.7960897
  93.8817076 123.4482883  36.9395546  92.9754518 122.3677093  37.4899460
  97.0053625 128.6472053  33.1779629  96.3762487 128.8117767  32.4755697
  96.6179287 129.0613662  33.9490593 100.8842857 129.5826491  30.5323993
 100.1993895 129.9625392  29.9821026 100.9686706 130.1921817  31.2655940
  96.1855326 120.6847837  38.4542071  95.9416258 121.4389898  37.9176346
  96.4615256 121.0633185  39.2889318  98.1393788 127.2286450  37.1319336
  98.3510684 127.8718210  36.4553717  98.0923537 126.3948766  36.6641266
  95.7420017 119.8404270  34.0355908  94.8804496 120.1385524  34.3272646
  95.7682452 120.0574669  33.1036941  92.5581587 128.3846461  30.4429714
  93.0219932 128.6634164  29.6534337  92.2938385 127.4829906  30.2602805
  89.4505668 127.9317943  33.3809477  90.0207025 128.3605211  32.7426962
  90.0413780 127.6500527  34.0793663  91.4950473 124.5069613  27.2519279
  92.1974516 124.9590657  27.7193206  91.1631101 123.8653432  27.8799172
  89.9430834 123.0981370  41.6270489  89.3129495 123.7797651  41.8605885
  89.8366922 122.9864452  40.6823627  85.2375807 122.7653166  32.5536413
  84.4474861 123.0210695  32.0776523  85.7287054 123.5801504  32.6588453
  99.2539616 130.1058405  35.3041694 100.0757060 129.7038592  35.0224375
  99.2502019 130.0026639  36.2557809  87.1890552 123.1297745  29.5119889
  86.3921715 123.2416440  30.0303385  86.9616144 123.4684397  28.6460780
  93.0196220 129.6542448  37.4602404  93.0840652 130.1162856  38.2960576
  92.3107144 129.0239813  37.5884714  83.5213510 123.0183656  34.9851404
  83.7721548 123.9030666  35.2508979  84.0573058 122.8388258  34.2126495
 107.3445609 126.4497154  31.6526665 106.5909318 125.8804552  31.4970669
 107.4793151 126.4159818  32.5997300  89.2211577 117.4002136  43.9895740
  88.8278523 116.8468334  44.6643384  90.0377717 117.7112714  44.3802257
  86.1873635 128.8385994  27.9009309  86.6998155 129.6329244  28.0514874
  86.8396348 128.1412284  27.8342911  87.9968520 131.9551750  29.9832063
  88.1735148 132.8769715  29.7953047  88.7925353 131.6410170  30.4126442
  92.1379538 118.8160015  41.5815996  92.8789251 119.4167168  41.5020459
  92.3697461 118.0737653  41.0234039  87.2820876 124.0016382  39.8594226
  87.1674391 123.1001639  40.1601325  86.4265394 124.2480079  39.5079042
  94.3612714 131.9434122  41.4581726  93.9176568 131.1570501  41.1402631
  95.0229927 132.1313273  40.7925617  89.1199835 133.4729924  35.9842405
  89.6707260 133.3446987  35.2119399  88.2811311 133.7724813  35.6337298
  96.4593952 132.2236922  39.4863128  96.4412427 133.0445803  38.9943397
  97.3813872 132.0990998  39.7113269  92.9167006 129.7381052  40.3286636
  93.4495343 128.9769340  40.0985944  92.3881087 129.4454704  41.0710791
  96.0836701 114.8441118  35.8580278  95.7400970 115.7342760  35.7819388
  96.4515664 114.6542775  34.9949863  84.1522552 127.1674648  28.6768880
  84.9897774 127.5771657  28.4602588  84.3300819 126.2274090  28.6469074
  93.6334095 119.6799430  29.4237951  92.7775691 119.2906280  29.2443590
  94.0461047 119.7591391  28.5637737  95.1633241 117.2145773  33.8229511
  94.6598037 117.1775908  33.0097316  95.4563848 118.1238516  33.8826168
  91.4076127 117.2984503  32.8295693  92.2729124 117.1027311  32.4701582
  91.4753636 117.0694855  33.7565050  95.8373287 122.7076821  26.1912494
  95.5323422 123.0222970  27.0422637  96.7903729 122.7858241  26.2339827
  94.2819719 128.8667044  27.8405448  93.7541080 128.1319804  27.5278686
  93.7807221 129.6441721  27.5945416  99.2612565 127.0616065  32.9572494
  98.6036239 127.7515326  33.0452623 100.0652964 127.4512497  33.3006481
  89.0138446 119.5286711  30.2012060  89.5882198 119.3061892  29.4685253
  89.6009429 119.5975405  30.9540661  98.0718024 125.4160438  31.0076436
  98.5849905 126.0490429  31.5098146  98.7219247 124.8161633  30.6419796
  89.3408033 121.5591172  24.2207945  88.5045346 121.8965858  24.5417220
  89.2012803 121.4240151  23.2835082  91.3161114 116.4027960  28.9287129
  90.6625526 116.0876977  28.3043744  91.2741588 115.7803700  29.6546952
  94.5498854 122.8909893  33.2534777  93.6321416 123.1124840  33.0956465
  94.9658998 122.9656204  32.3946484  95.3333902 124.2901309  28.3837457
  96.0805721 124.8022706  28.0744579  95.6025492 123.9685362  29.2441851
  97.7812739 121.3258425  30.3656246  97.0435496 120.8135811  30.6966489
  98.0339513 120.8858807  29.5539523  97.8824367 114.1034677  30.9598016
  98.1883243 113.2432040  30.6723931  98.6076971 114.6952297  30.7597009
  84.1748723 124.5065364  29.3479613  83.9773123 123.9134724  28.6230680
  83.6195387 124.2017574  30.0655552  92.1545446 124.3988470  31.4674207
  92.2094056 123.4462307  31.3916683  91.3436648 124.5547909  31.9515505
  90.0937806 123.0165530  29.2264585  89.2805672 123.3159700  29.6329778
  90.5896801 122.6221219  29.9439068  92.2446384 133.0123287  31.1598850
  92.2022563 133.2384133  30.2307382  93.1609083 132.7786661  31.3084651
  95.6912018 123.4807354  38.0579479  96.0461406 123.7078827  38.9173945
  96.3384149 123.8125731  37.4356735  89.5851881 120.5883885  34.8425820
  90.2251260 120.4472644  34.1448784  88.7529412 120.3018399  34.4664422
 101.4479135 128.6702317  33.7740080 101.8815641 128.5777606  34.6223134
 102.1610715 128.6459818  33.1360096  90.3612185 129.8886316  30.9560813
  91.1552784 129.3936636  30.7543388  89.6503877 129.3604179  30.5928518
  95.1807029 132.2704411  35.3073180  95.2344052 132.8395348  36.0750896
  94.3121811 132.4406296  34.9427218  86.6694948 124.0329398  27.0320566
  85.7392537 123.9713853  27.2490528  86.7652420 123.5105350  26.2357207
  86.5880498 120.5584210  29.6198807  86.8487315 121.4729544  29.5107968
  87.4097670 120.0908653  29.7695420  88.0605423 121.9721968  36.7897632
  88.7328476 121.7639330  36.1410281  87.2335209 121.7744054  36.3502864
 102.3094684 128.7126018  36.3072965 102.5030574 129.6171828  36.5532240
 102.2095302 128.2533437  37.1411550  93.9630995 118.5983908  38.8063293
  93.3158910 119.2973858  38.7127769  94.7332010 119.0320052  39.1739541
  97.3709793 128.8632761  41.8813846  97.2195299 128.6343312  40.9643930
  97.3614472 129.8203362  41.8945191  94.1395129 126.4364673  36.8660112
  95.0687189 126.5875833  36.6929080  93.7186159 126.5248694  36.0108759
  92.9383461 130.4615338  34.6358650  92.7994547 130.0934122  35.5084588
  92.1498057 130.9762977  34.4642608  94.4888676 129.8396940  32.0247488
  94.1538509 129.7997710  32.9205138  93.9892622 129.1741656  31.5517898
  88.4632920 125.2464571  37.5500069  88.3252718 124.5144809  38.1511608
  89.3737844 125.1573471  37.2684257  91.0915221 124.9584530  37.0383749
  91.8014839 124.3177722  36.9970367  91.0484529 125.2097425  37.9609929
  99.0801999 131.8951883  39.9590328  99.0214546 131.2111103  39.2920911
  99.4821518 132.6370873  39.5070954  89.8044155 121.9449748  38.8579388
  89.2681512 121.4940486  39.5100984  89.2160863 122.0795657  38.1149852
  88.0992698 138.7113797  32.7524047  88.3389296 139.3432321  33.4303065
  87.2561895 138.3601837  33.0389406  89.2146414 121.4038399  21.4205852
  88.3375880 121.2827200  21.0568098  89.6904167 120.6124477  21.1684740
  99.0819407 129.8591467  38.1904307  98.1946185 129.5217389  38.3130706
  99.6517958 129.1274498  38.4273073  80.7348554 126.1915559  31.5147359
  81.4219594 125.8777289  30.9268374  80.5796683 127.0956923  31.2414610
  85.5383276 121.0805755  35.9432383  85.4541465 120.4731425  35.2082792
  84.7165982 121.5714774  35.9441879  92.6120560 134.5192919  35.1565551
  92.5390732 135.3247891  35.6684855  92.1697953 134.7184885  34.3313572
  95.7106990 119.5659319  31.3102578  96.2075689 118.8129281  30.9903648
  94.9393971 119.6023636  30.7445787 103.5636747 125.2699684  32.9520869
 103.5526624 126.1524400  32.5814802 102.6954127 124.9171235  32.7575406
  95.0719244 134.4179753  37.3123709  95.7847216 135.0527218  37.2399611
  94.5809272 134.5143619  36.4963711  96.7936771 128.3231006  28.8841001
  95.8593049 128.4432469  28.7145705  96.9713439 127.4203473  28.6201011
  92.2941959 121.7076702  31.0374262  91.9239746 121.1547742  31.7255168
  92.7901051 121.1034835  30.4849262 100.1809322 124.1648325  29.4191035
 100.6469774 124.9976317  29.3451338 100.6316822 123.6993307  30.1236294
  90.1231157 132.1674197  38.1329280  90.8240617 132.8010680  38.2858674
  89.6526272 132.5088929  37.3724919  98.1525985 116.5328912  33.4581936
  97.2389064 116.7633139  33.6264143  98.5819086 116.6167357  34.3095969
  97.9232443 124.7218804  35.9581830  97.2703893 124.9694712  35.3034283
  98.3012823 123.9082943  35.6244308  93.9720016 125.4638615  42.4447868
  93.2960653 125.3632745  43.1150243  94.7947650 125.3077829  42.9083865
  85.7198875 131.7010552  35.0660383  86.3052312 130.9554240  35.1988287
  85.5223714 132.0114509  35.9497047  88.5737530 134.7361799  30.0822825
  87.9047906 135.2207927  29.5986865  88.4350400 134.9831020  30.9966204
  80.3116530 124.2716152  33.7864826  80.3500629 123.7379743  34.5801944
  79.8056823 123.7451358  33.1675803  92.7142799 136.7705543  36.6805484
  93.2661107 136.9337164  37.4454569  93.0548993 137.3609981  36.0085508
  87.6907292 119.1180693  37.2827368  87.7548619 119.9795524  36.8704766
  87.6274413 118.5054694  36.5499727  87.1659565 121.1903825  40.9300403
  87.7931604 120.8080903  41.5437927  86.3087484 120.9718027  41.2956095
  97.5653673 131.5966800  42.5354138  98.1093577 132.2096759  42.0409093
  96.9840518 132.1546379  43.0521151  83.9425108 122.9980254  26.8618757
  84.2378549 122.0890933  26.8085811  83.0413143 122.9767994  26.5399760
  95.8511186 134.7187518  33.6669166  95.7262326 133.9177258  33.1580111
  96.5090277 135.2133712  33.1783136  87.4719355 121.0736251  32.8446306
  86.7505940 121.6872219  32.7053779  88.2612610 121.6094016  32.7662952
  97.9146095 132.5196539  35.2948716  96.9676430 132.4001890  35.2227043
  98.2628868 131.6319037  35.3774977  90.2745668 118.4090677  39.1186958
  90.7980070 118.6552974  39.8813267  90.0558001 119.2410712  38.6990095
  85.6712949 120.6794352  26.9858082  85.3425655 119.7991731  26.8033188
  86.0252320 120.6242021  27.8734472  94.9192528 132.3149255  31.4953068
  94.7717490 131.3865962  31.6760638  95.7446022 132.3369345  31.0110143
  88.7854772 120.9667322  27.3533560  89.1250845 121.4953243  26.6312169
  89.2326893 121.3047728  28.1292127  98.5226650 133.1377813  32.5817941
  99.4473197 132.9320675  32.4442392  98.3541953 132.8894215  33.4907282
  91.4798213 119.3504373  36.8036628  91.1395033 118.5512186  37.2057308
  90.7737219 119.6506083  36.2313461  92.1314685 116.4353685  35.2563951
  92.9540754 115.9614163  35.1342842  92.3752748 117.2144169  35.7562638
  90.7722919 119.4641943  25.5526853  91.4931282 119.8423196  25.0490570
  90.1488224 120.1830820  25.6561831  94.9154042 120.1687092  26.4885185
  95.1317657 121.0511730  26.1874013  94.4348109 119.7773306  25.7590827
  89.6553264 123.1272806  33.0655930  89.5097844 123.4413109  33.9580211
  89.1778467 123.7457706  32.5126829  91.5149647 120.1175354  33.1136819
  91.5011215 119.2216447  32.7769117  92.2322075 120.1246017  33.7475105
  93.3675777 120.5512694  35.1589947  93.1093555 121.4729764  35.1574277
  92.8360818 120.1543128  35.8490411  84.1298926 125.6678150  36.0043591
  83.5852394 126.4437958  36.1363865  85.0078276 126.0148954  35.8462712
  90.9186543 118.9989734  28.3824390  91.0402454 118.0706380  28.5815277
  90.6288585 119.0128420  27.4702705  93.7877733 116.6844644  31.5191109
  93.8099430 116.7483977  30.5643089  94.2045792 115.8449153  31.7131616
 104.1661357 126.4199904  29.5570332 104.6092503 125.6707229  29.1589455
 103.2887868 126.4110040  29.1744064  84.9164948 124.7948046  38.8973748
  84.1746684 124.9430682  39.4838378  84.5957692 125.0556312  38.0340497
  92.8608610 134.3364025  38.6954138  93.1695737 134.0913171  39.5676838
  93.6584092 134.5410663  38.2073008  92.8829222 136.4901934  30.9259514
  92.4434213 135.9978313  31.6192371  93.6337339 135.9474902  30.6851590
  85.3621561 132.6813475  30.9284143  86.1879581 132.3817247  30.5482786
  85.0115613 131.9121097  31.3773931  90.3303095 132.0339943  32.9981816
  89.7083104 131.3710648  32.6984044  91.0007961 132.0601075  32.3155464
  83.5630166 130.5999801  31.8873076  82.7262075 130.1721976  31.7057077
  83.5353812 130.7932245  32.8243867  90.4027622 120.5121731  42.5914322
  90.4515778 121.3883854  42.2092092  90.9450136 119.9699124  42.0185965
 100.8882468 131.0562855  41.8715459 100.0978011 131.0386993  41.3319959
 100.6515822 131.5951148  42.6264496 101.0080343 127.9055321  39.1848188
 101.0578348 127.7405328  40.1263711 100.8994266 127.0382580  38.7946069
  98.2984105 123.8886249  40.5007494  99.1993968 123.7492714  40.2091492
  98.3732080 124.0540704  41.4405672  92.6326910 121.2653104  39.3460681
  91.7630220 121.5586670  39.0743269  92.8686391 121.8493549  40.0667944
 102.5098540 130.3252262  39.4290209 102.2183348 130.6882243  40.2653670
 101.8970671 129.6119271  39.2503541 103.7094222 127.8905142  31.9492780
 104.5441113 128.3294946  32.1130340 103.8453351 127.4143795  31.1301025
 100.7585728 125.4484877  37.8970267 101.2339849 125.6412523  37.0889119
  99.8351293 125.5044063  37.6513651  87.6469234 126.6109044  27.4801346
  87.4015276 125.7071374  27.6781556  87.8165149 126.6126195  26.5380824
  95.3365944 117.4832721  36.8626101  95.8547888 118.2193748  36.5372590
  94.9821077 117.7896714  37.6972860  86.9164882 122.3437402  24.9787507
  86.2234127 122.4181757  24.3227543  86.6716634 121.5797745  25.5009024
  95.5878538 113.9033003  32.3826998  95.8680292 113.2356192  33.0087424
  96.3729145 114.0962099  31.8701662  99.4587397 122.3250637  36.1298573
 100.4104820 122.4248735  36.1510797  99.2890847 121.5328906  36.6396657
  97.4801776 119.4106220  36.3157974  96.8851708 119.6911233  35.6204462
  97.1951473 119.9000121  37.0874715 101.9375475 125.5456757  35.2440873
 101.9051795 124.6072758  35.4300556 102.5476098 125.6240794  34.5106697
 102.0869963 122.3367800  35.2899156 101.5709012 121.5526257  35.1029085
 102.9709912 122.0086517  35.4545675  99.7480690 116.0808816  31.2494968
  99.5505511 115.7723904  32.1338300 100.3580396 116.8070455  31.3792898
 107.7552024 126.6072764  34.3846909 108.4855413 126.3458052  34.9454613
 107.1458970 125.8701486  34.4248977 105.8367322 124.7480626  34.9821361
 105.1100485 124.6136591  34.3737852 105.4214608 125.0557455  35.7878079
  93.6597498 128.4670556  42.7468734  94.5800507 128.6449155  42.9408780
  93.6247081 127.5226601  42.5948433  82.8779663 123.6609150  31.6722008
  82.5582447 122.8074458  31.3796382  82.3313091 123.8757728  32.4279976
  86.6559571 126.3771591  35.3891515  86.8745580 127.3088698  35.4079549
  87.0685344 126.0179565  36.1746319  93.5763788 116.8839676  27.3767203
  92.7664517 116.5386761  27.7522449  94.2648205 116.5747220  27.9654815
  95.5054337 115.9617723  28.9991500  96.0585375 116.3813176  29.6581523
  95.7424423 115.0353471  29.0414456  91.5287436 121.9504796  44.7794264
  91.4284163 122.8999153  44.7106355  91.3108978 121.6223035  43.9070334
  90.7300507 119.1989721  21.3634941  91.5919671 119.5244620  21.6230758
  90.9150851 118.4121217  20.8508007  82.7467923 127.2812061  33.6415130
  82.0531394 126.8666014  33.1285084  83.4940914 127.3232598  33.0448549
  98.8833144 118.0718248  28.5070164  98.3031813 118.7303052  28.1248216
  98.6169076 117.2495592  28.0957582  97.3336710 117.4723306  30.7091484
  97.8336488 117.5839840  29.9005803  97.9772318 117.1684358  31.3492293
  91.3918706 125.3801935  43.5959325  90.9085788 126.1802295  43.8023214
  91.4779645 125.3909880  42.6426769  84.6604666 127.2130315  31.5181145
  84.6375354 127.3118002  30.5663028  84.9705302 128.0595466  31.8398311
  87.3192043 129.2706470  35.6327759  88.2735297 129.2390412  35.5657691
  87.1204567 128.8097094  36.4477985  87.9091426 127.8407586  38.1998557
  88.7284315 128.3351665  38.2233394  88.1828233 126.9239554  38.1716124
  97.6658022 120.2318338  27.5626512  96.7783877 120.5167989  27.3446707
  98.0812011 120.0712102  26.7153789 101.0172558 120.2564859  31.2780852
 101.7932948 120.7461312  31.5505468 100.2920692 120.6822913  31.7352721
 103.4545117 120.9692478  32.3354792 104.0489607 120.7288214  31.6248100
 103.5271700 120.2499609  32.9628328  85.6742272 134.8126089  32.6497957
  85.5396740 134.0526490  32.0835955  85.2574334 135.5366989  32.1826746
  97.6399046 125.7472874  27.7776802  97.5834247 126.2041426  26.9384435
  98.1927388 124.9863559  27.5999645 101.4503851 121.5362606  28.6026922
 101.1940786 121.1359242  29.4335130 100.8256719 122.2506400  28.4777061
 105.7616189 124.2758679  31.1098213 105.2015747 124.3451869  31.8829775
 105.1559693 124.0999664  30.3897710  88.8311398 135.7095406  32.8616400
  88.7143782 136.6540839  32.7595090  88.0103844 135.4068968  33.2502199
  83.1626340 122.1745720  38.8990754  83.8085203 121.6644674  39.3877979
  82.9543491 122.9114401  39.4734179  95.6879732 129.2426567  44.3982894
  96.5570892 129.4167220  44.0369529  95.2086483 130.0620984  44.2758624
  91.6829950 116.4385764  24.6514650  91.6708620 117.3827604  24.8082921
  92.5753372 116.2555910  24.3574111  89.8565912 136.3623668  36.0772328
  90.7593159 136.3947279  36.3938823  89.6303282 135.4324119  36.0918664
  91.6119514 135.1154655  32.7382407  90.6615145 135.1156516  32.6246779
  91.9152000 134.3687389  32.2218441  95.4982070 113.0328541  28.9060587
  94.7314466 112.4787028  29.0517269  95.9092775 113.1050410  29.7674738
  87.5023831 119.3213337  42.9965768  88.3655292 118.9650142  43.2069093
  86.9289241 118.9827232  43.6841172 104.6381697 142.0577473  39.6975899
 104.6270338 141.6630271  38.8256403 104.8002336 141.3243546  40.2909671
 109.8247324 132.3263454  36.2408964 109.4930648 133.1958865  36.0170179
 109.2292937 132.0099738  36.9202995 103.7916853 138.4648186  41.2637212
 103.0150187 139.0242106  41.2540076 104.4307416 138.9504969  41.7852082
 102.0463225 141.2733639  40.8255179 102.7877909 141.8118683  40.5490002
 101.3400211 141.8999928  40.9826730 103.8749635 138.3535387  36.7960897
 104.7210830 138.7774800  36.9395546 103.8148272 137.6969011  37.4899460
 107.0249080 136.0139755  38.4542071 106.7810012 136.7681816  37.9176346
 107.3009011 136.3925103  39.2889318 100.7824589 138.4273288  41.6270489
 100.1523249 139.1089569  41.8605885 100.6760677 138.3156369  40.6823627
  94.3607264 138.3475574  34.9851404  94.6115303 139.2322584  35.2508979
  94.8966813 138.1680176  34.2126495 100.0605332 132.7294054  43.9895740
  99.6672277 132.1760252  44.6643384 100.8771472 133.0404632  44.3802257
 102.9773293 134.1451933  41.5815996 103.7183006 134.7459086  41.5020459
 103.2091215 133.4029570  41.0234039  98.1214631 139.3308300  39.8594226
  98.0068146 138.4293557  40.1601325  97.2659148 139.5771997  39.5079042
 103.7560761 145.0672970  40.3286636 104.2889097 144.3061258  40.0985944
 103.2274842 144.7746621  41.0710791 106.9230456 130.1733036  35.8580278
 106.5794725 131.0634677  35.7819388 107.2909418 129.9834693  34.9949863
 102.2469882 132.6276420  32.8295693 103.1122879 132.4319229  32.4701582
 102.3147391 132.3986772  33.7565050 100.4245636 135.9175803  34.8425820
 101.0645015 135.7764562  34.1448784  99.5923166 135.6310316  34.4664422
  98.8999177 137.3013885  36.7897632  99.5722231 137.0931247  36.1410281
  98.0728964 137.1035971  36.3502864 104.8024749 133.9275826  38.8063293
 104.1552664 134.6265776  38.7127769 105.5725765 134.3611970  39.1739541
 108.2103547 144.1924678  41.8813846 108.0589054 143.9635230  40.9643930
 108.2008227 145.1495280  41.8945191  99.3026675 140.5756488  37.5500069
  99.1646473 139.8436727  38.1511608 100.2131598 140.4865388  37.2684257
 101.9308975 140.2876448  37.0383749 102.6408594 139.6469640  36.9970367
 101.8878283 140.5389342  37.9609929 100.6437909 137.2741665  38.8579388
 100.1075266 136.8232404  39.5100984 100.0554618 137.4087574  38.1149852
  96.3777030 136.4097673  35.9432383  96.2935219 135.8023343  35.2082792
  95.5559737 136.9006691  35.9441879 104.8113771 140.7930533  42.4447868
 104.1354408 140.6924662  43.1150243 105.6341405 140.6369747  42.9083865
  91.1510284 139.6008070  33.7864826  91.1894384 139.0671661  34.5801944
  90.6450577 139.0743275  33.1675803  98.5301047 134.4472610  37.2827368
  98.5942373 135.3087441  36.8704766  98.4668167 133.8346612  36.5499727
  98.0053319 136.5195743  40.9300403  98.6325358 136.1372820  41.5437927
  97.1481238 136.3009945  41.2956095 101.1139423 133.7382595  39.1186958
 101.6373824 133.9844892  39.8813267 100.8951756 134.5702630  38.6990095
 102.3191968 134.6796290  36.8036628 101.9788788 133.8804103  37.2057308
 101.6130974 134.9798001  36.2313461 102.9708439 131.7645603  35.2563951
 103.7934509 131.2906081  35.1342842 103.2146503 132.5436086  35.7562638
 104.2069532 135.8804611  35.1589947 103.9487310 136.8021682  35.1574277
 103.6754572 135.4835046  35.8490411  94.9692680 140.9970068  36.0043591
  94.4246148 141.7729876  36.1363865  95.8472030 141.3440872  35.8462712
  95.7558702 140.1239964  38.8973748  95.0140438 140.2722599  39.4838378
  95.4351446 140.3848230  38.0340497 101.2421377 135.8413649  42.5914322
 101.2909532 136.7175772  42.2092092 101.7843891 135.2991042  42.0185965
 109.1377860 139.2178167  40.5007494 110.0387722 139.0784631  40.2091492
 109.2125834 139.3832621  41.4405672 103.4720665 136.5945021  39.3460681
 102.6023974 136.8878587  39.0743269 103.7080145 137.1785466  40.0667944
 106.1759699 132.8124638  36.8626101 106.6941643 133.5485665  36.5372590
 105.8214832 133.1188632  37.6972860 108.3195531 134.7398138  36.3157974
 107.7245463 135.0203151  35.6204462 108.0345228 135.2292039  37.0874715
 104.4991253 143.7962474  42.7468734 105.4194262 143.9741073  42.9408780
 104.4640836 142.8518519  42.5948433 102.3681190 137.2796714  44.7794264
 102.2677917 138.2291071  44.7106355 102.1502732 136.9514953  43.9070334
 102.2312460 140.7093853  43.5959325 101.7479542 141.5094213  43.8023214
 102.3173399 140.7201798  42.6426769  98.7485180 143.1699504  38.1998557
  99.5678069 143.6643582  38.2233394  99.0221988 142.2531472  38.1716124
  94.0020094 137.5037637  38.8990754  94.6478958 136.9936591  39.3877979
  93.7937245 138.2406319  39.4734179 106.5273486 144.5718485  44.3982894
 107.3964646 144.7459137  44.0369529 106.0480238 145.3912902  44.2758624
  98.3417585 134.6505255  42.9965768  99.2049047 134.2942059  43.2069093
  97.7682996 134.3119149  43.6841172  39.6019171  27.0888090  26.4221206
  39.5907812  26.6940888  25.5501710  39.7639811  26.3554162  27.0154977
  36.3226432  29.8725201  25.3700390  36.0316298  30.7770832  25.2547056
  36.9583417  29.9141729  26.0844459  41.2816318  29.5586617  22.3650184
  40.9817041  30.4611656  22.2565991  40.9367377  29.2918800  23.2171336
  38.7554327  23.4958803  27.9882518  37.9787661  24.0552723  27.9785383
  39.3944890  23.9815586  28.5097388  37.0100699  26.3044256  27.5500485
  37.7515384  26.8429300  27.2735309  36.3037685  26.9310545  27.7072037
  42.4856039  28.4473396  26.1472647  42.8939395  28.0055807  25.4027279
  41.7633301  27.8726024  26.4006840  43.9425017  27.5888984  23.8564643
  44.1541912  28.2320744  23.1799024  43.8954765  26.7551301  23.3886573
  45.0570845  30.4660939  22.0287000  45.8788289  30.0641127  21.7469682
  45.0533248  30.3629174  22.9803116  38.8227449  30.0144983  24.1847711
  38.8871881  30.4765390  25.0205883  38.1138372  29.3842348  24.3130021
  40.1643943  32.3036657  28.1827033  39.7207797  31.5173035  27.8647938
  40.8261156  32.4915807  27.5170924  34.9231064  33.8332458  22.7087712
  35.4738489  33.7049522  21.9364706  34.0842540  34.1327347  22.3582604
  42.2625181  32.5839457  26.2108434  42.2443656  33.4048338  25.7188704
  43.1845101  32.4593532  26.4358576  38.7198235  30.0983586  27.0531943
  39.2526572  29.3371874  26.8231251  38.1912316  29.8057238  27.7956097
  47.2510363  29.0304851  20.4985387  47.6846870  28.9380141  21.3468441
  47.9641944  29.0062352  19.8605403  40.9838258  32.6306946  22.0318487
  41.0375281  33.1997882  22.7996203  40.1153040  32.8008831  21.6672524
  48.1125913  29.0728552  23.0318272  48.3061803  29.9774363  23.2777547
  48.0126531  28.6135971  23.8656857  43.1741022  29.2235295  28.6059153
  43.0226528  28.9945847  27.6889236  43.1645701  30.1805896  28.6190498
  44.8833228  32.2554417  26.6835634  44.8245774  31.5713638  26.0166217
  45.2852747  32.9973407  26.2316260  33.9023927  39.0716331  19.4769353
  34.1420525  39.7034855  20.1548372  33.0593124  38.7204371  19.7634713
  44.8850636  30.2194001  24.9149614  43.9977414  29.8819923  25.0376013
  45.4549187  29.4877033  25.1518379  38.4151789  34.8795454  21.8810857
  38.3421960  35.6850425  22.3930162  37.9729182  35.0787419  21.0558879
  40.8750472  34.7782288  24.0369016  41.5878445  35.4129753  23.9644917
  40.3840501  34.8746154  23.2209018  35.9262386  32.5276731  24.8574587
  36.6271845  33.1613214  25.0103981  35.4557501  32.8691463  24.0970226
  39.7751245  25.8241150  29.1693174  39.0991882  25.7235279  29.8395549
  40.5978879  25.6680363  29.6329171  38.5174028  37.1308077  23.4050790
  39.0692336  37.2939699  24.1699875  38.8580221  37.7212515  22.7330815
  43.3684902  31.9569335  29.2599445  43.9124806  32.5699293  28.7654399
  42.7871747  32.5148913  29.7766458  41.6542415  35.0790053  20.3914472
  41.5293555  34.2779793  19.8825418  42.3121506  35.5736246  19.9028442
  43.7177324  32.8799073  22.0194022  42.7707659  32.7604424  21.9472349
  44.0660097  31.9921571  22.1020284  44.3257879  33.4980348  19.3063247
  45.2504426  33.2923209  19.1687699  44.1573182  33.2496749  20.2152589
  38.6639839  34.6966559  25.4199445  38.9726966  34.4515705  26.2922144
  39.4615321  34.9013197  24.9318315  46.6913697  31.4165389  28.5960766
  45.9009240  31.3989528  28.0565265  46.4547051  31.9553682  29.3509802
  46.8111572  28.2657855  25.9093494  46.8609577  28.1007863  26.8509017
  46.7025495  27.3985114  25.5191375  44.1015334  24.2488783  27.2252801
  45.0025197  24.1095248  26.9336799  44.1763308  24.4143238  28.1650979
  48.3129768  30.6854797  26.1535516  48.0214577  31.0484777  26.9898977
  47.7001900  29.9721805  25.9748848  46.5616957  25.8087411  24.6215574
  47.0371078  26.0015058  23.8134425  45.6382522  25.8646597  24.3758958
  47.7406703  25.9059291  21.9686179  47.7083024  24.9675292  22.1545863
  48.3507327  25.9843328  21.2352004  53.5583253  26.9675298  21.1092216
  54.2886642  26.7060586  21.6699919  52.9490199  26.2304020  21.1494284
  51.6398550  25.1083160  21.7066667  50.9131714  24.9739125  21.0983159
  51.2245837  25.4159989  22.5123385  39.4628727  28.8273090  29.4714040
  40.3831736  29.0051689  29.6654087  39.4278310  27.8829135  29.3193739
  37.3318665  22.3107331  31.5039570  37.2315392  23.2601687  31.4351661
  37.1140207  21.9825569  30.6315640  37.1949935  25.7404469  30.3204632
  36.7117016  26.5404829  30.5268521  37.2810874  25.7512414  29.3672076
  41.4910961  29.6029101  31.1228201  42.3602120  29.7769754  30.7614836
  41.0117712  30.4223518  31.0003930  35.6597141  36.7226202  22.8017635
  36.5624388  36.7549813  23.1184130  35.4334511  35.7926653  22.8163970
  53.1503437  41.3117727  20.5273476  53.7881846  41.1924475  19.8236816
  53.0324279  42.2598571  20.5861428  49.9593143  41.2645156  20.4635000
  49.6211654  41.1486220  19.5755535  50.8282911  40.8636321  20.4436007
  45.8179959  43.1180632  16.4531891  45.2544824  43.0270569  15.6848179
  45.7032354  42.2980536  16.9334384  50.4412926  42.4180007  26.4221206
  50.4301567  42.0232806  25.5501710  50.6033565  41.6846080  27.0154977
  43.3644390  44.6131824  19.2916112  44.1565682  44.2722648  18.8762411
  43.6041041  44.7226799  20.2118265  51.3979517  46.7851600  11.7646356
  50.7467497  47.3705680  11.3780370  52.1923880  47.3157795  11.8241394
  45.3235144  43.8740737  12.1633491  46.0966020  43.3269724  12.0246366
  45.6760543  44.7384986  12.3747952  47.1620187  45.2017119  25.3700390
  46.8710053  46.1062750  25.2547056  47.7977171  45.2433647  26.0844459
  48.0876394  42.5793968  21.9601750  48.6839966  42.3549990  21.2458712
  48.1451365  41.8378713  22.5627197  52.7044705  39.0369181  17.6026684
  53.4907794  38.6188604  17.2517101  52.9683409  39.9415273  17.7708332
  52.8754782  44.4742032  12.3015341  52.2400615  44.5476658  13.0136245
  52.5452189  45.0635630  11.6234420  58.1053132  38.9744414  18.5059662
  58.8378304  38.4043631  18.7397492  57.3492488  38.5866015  18.9466168
  49.7229252  41.3971656  15.7023005  49.3587459  40.8702277  16.4135926
  50.5796368  41.0070125  15.5289490  55.6278552  32.6865989  22.9654271
  55.2961877  33.5561400  22.7415486  55.0324166  32.3702273  23.6448301
  52.1210072  44.8878535  22.3650184  51.8210795  45.7903573  22.2565991
  51.7761132  44.6210718  23.2171336  45.5722554  41.3392331  18.3986888
  44.6473050  41.2068546  18.6064580  45.8206967  42.1186551  18.8956830
  55.5207216  37.4061075  20.0447621  54.6124093  37.3376483  19.7506382
  55.4694812  37.8833020  20.8729446  42.9331365  40.9825605  19.2330677
  43.0623746  41.2360084  20.1470089  42.2528816  41.5753313  18.9135332
  47.1030852  51.6522855  15.3321151  47.0254882  52.6030680  15.4109632
  46.4992495  51.3068727  15.9896078  49.5948082  38.8250720  27.9882518
  48.8181416  39.3844640  27.9785383  50.2338645  39.3107503  28.5097388
  57.3868862  35.6077513  21.8225495  56.7443242  35.9010046  21.1765289
  56.8823791  35.4930433  22.6278692  55.0409026  39.3540686  12.5111354
  55.9526882  39.5868073  12.3359052  54.5318673  39.9377731  11.9486433
  47.8494454  41.6336174  27.5500485  48.5909138  42.1721218  27.2735309
  47.1431439  42.2602462  27.7072037  53.3249794  43.7765314  26.1472647
  53.7333150  43.3347725  25.4027279  52.6027055  43.2017942  26.4006840
  49.6780864  38.7137921  23.5206204  50.5242059  39.1377334  23.6640853
  49.6179501  38.0571545  24.2144767  53.6478608  44.3366505  19.9024936
  53.0187471  44.5012219  19.2001003  53.2604270  44.7508114  20.6735900
  57.5267840  45.2720943  17.2569299  56.8418878  45.6519844  16.7066333
  57.6111689  45.8816269  17.9901247  52.8280309  36.3742289  25.1787377
  52.5841241  37.1284350  24.6421653  53.1040239  36.7527637  26.0134624
  54.7818772  42.9180902  23.8564643  54.9935667  43.5612662  23.1799024
  54.7348520  42.0843218  23.3886573  52.3845001  35.5298722  20.7601215
  51.5229480  35.8279976  21.0517953  52.4107435  35.7469121  19.8282248
  49.2006570  44.0740913  17.1675021  49.6644916  44.3528616  16.3779643
  48.9363368  43.1724357  16.9848111  46.0930651  43.6212394  20.1054784
  46.6632008  44.0499663  19.4672268  46.6838763  43.3394979  20.8038970
  48.1375456  40.1964065  13.9764586  48.8399499  40.6485109  14.4438512
  47.8056085  39.5547884  14.6044479  46.5855818  38.7875822  28.3515795
  45.9554478  39.4692103  28.5851192  46.4791906  38.6758903  27.4068933
  41.8800790  38.4547618  19.2781719  41.0899844  38.7105146  18.8021830
  42.3712037  39.2695956  19.3833760  55.8964600  45.7952857  22.0287000
  56.7182043  45.3933044  21.7469682  55.8927003  45.6921091  22.9803116
  43.8315535  38.8192197  16.2365196  43.0346699  38.9310891  16.7548692
  43.6041128  39.1578849  15.3706087  49.6621203  45.3436900  24.1847711
  49.7265636  45.8057308  25.0205883  48.9532127  44.7134265  24.3130021
  40.1638493  38.7078108  21.7096710  40.4146531  39.5925118  21.9754286
  40.6998041  38.5282710  20.9371802  63.9870593  42.1391606  18.3771972
  63.2334301  41.5699004  18.2215976  64.1218134  42.1054270  19.3242606
  49.3769221  47.0105008  14.0526691  49.2414896  47.8556544  14.4811539
  49.9179033  47.2124286  13.2892625  45.8636560  33.0896588  30.7141046
  45.4703506  32.5362786  31.3888690  46.6802701  33.4007166  31.1047564
  42.8298618  44.5280446  14.6254616  43.3423139  45.3223696  14.7760181
  43.4821331  43.8306736  14.5588218  44.6393503  47.6446202  16.7077369
  44.8160131  48.5664167  16.5198353  45.4350336  47.3304621  17.1371749
  48.7804521  34.5054467  28.3061303  49.5214235  35.1061620  28.2265765
  49.0122444  33.7632105  27.7479345  43.9245859  39.6910834  26.5839532
  43.8099375  38.7896091  26.8846631  43.0690377  39.9374531  26.2324349
  51.0037697  47.6328574  28.1827033  50.5601551  46.8464953  27.8647938
  51.6654911  47.8207725  27.5170924  45.7624818  49.1624376  22.7087712
  46.3132243  49.0341439  21.9364706  44.9236294  49.4619265  22.3582604
  53.1018935  47.9131374  26.2108434  53.0837411  48.7340255  25.7188704
  54.0238855  47.7885450  26.4358576  49.5591989  45.4275504  27.0531943
  50.0920326  44.6663792  26.8231251  49.0306070  45.1349156  27.7956097
  52.7261684  30.5335570  22.5825584  52.3825954  31.4237211  22.5064695
  53.0940647  30.3437227  21.7195169  40.7947535  42.8569100  15.4014187
  41.6322757  43.2666109  15.1847894  40.9725803  41.9168542  15.3714381
  52.6911967  40.5244181  11.0898020  52.1758590  41.2948785  11.3286407
  52.4189275  39.8509317  11.7131081  50.2759078  35.3693882  16.1483258
  49.4200674  34.9800732  15.9688897  50.6886030  35.4485842  15.2883043
  51.8058225  32.9040225  20.5474818  51.3023020  32.8670360  19.7342623
  52.0988832  33.8132968  20.6071474  48.0501111  32.9878955  19.5540999
  48.9154107  32.7921763  19.1946889  48.1178620  32.7589306  20.4810356
  57.6646241  43.2776536  13.0251193  56.8875684  42.9387695  12.5806355
  58.3437722  43.2829159  12.3506158  52.4798270  38.3971273  12.9157801
  52.1748406  38.7117422  13.7667944  53.4328712  38.4752693  12.9585134
  50.9244702  44.5561496  14.5650755  50.3966064  43.8214256  14.2523992
  50.4232205  45.3336173  14.3190723  55.9037548  42.7510517  19.6817801
  55.2461223  43.4409778  19.7697930  56.7077947  43.1406949  20.0251787
  54.7143007  41.1054889  17.7321743  55.2274889  41.7384881  18.2343453
  55.3644231  40.5056085  17.3665103  51.9765381  51.0839214  10.4882414
  51.3027080  51.3870910  11.0967372  52.3631203  51.8868294  10.1387871
  51.1923838  38.5804345  19.9780083  50.2746399  38.8019292  19.8201771
  51.6083981  38.6550655  19.1191791  51.9758886  39.9795761  15.1082764
  52.7230704  40.4917158  14.7989886  52.2450475  39.6579813  15.9687157
  50.2485536  42.4754301  12.0909718  49.3396755  42.1913334  12.1882188
  50.2780619  42.8953380  11.2313025  55.4804803  46.0860891  15.8600885
  55.0267130  45.2451801  15.9166076  54.8498770  46.7222289  16.1975666
  54.4237723  37.0152877  17.0901553  53.6860479  36.5030263  17.4211795
  54.6764496  36.5753259  16.2784830  53.9237742  47.9237388  16.7950704
  54.2160717  48.4842445  16.0763069  54.4336363  48.2165949  17.5503863
  54.5249350  29.7929129  17.6843322  54.8308227  28.9326492  17.3969237
  55.2501955  30.3846749  17.4842316  48.7970430  40.0882922  18.1919513
  48.8519040  39.1356758  18.1161990  47.9861632  40.2442361  18.6760812
  46.7362790  38.7059982  15.9509892  45.9230655  39.0054152  16.3575084
  47.2321784  38.3115671  16.6684374  48.8871368  48.7017739  17.8844157
  48.8447546  48.9278585  16.9552689  49.8034066  48.4681113  18.0329958
  52.3337001  39.1701806  24.7824786  52.6886389  39.3973279  25.6419252
  52.9809133  39.5020183  24.1602041  58.0634738  42.2920242  15.4874115
  57.9252637  42.4821838  14.5595304  57.7070957  43.0539625  15.9442166
  46.2276864  36.2778337  21.5671127  46.8676244  36.1367096  20.8694090
  45.3954395  35.9912851  21.1909729  58.0904118  44.3596769  20.4985387
  58.5240625  44.2672058  21.3468441  58.8035699  44.3354270  19.8605403
  47.0037168  45.5780768  17.6806120  47.7977767  45.0831088  17.4788694
  46.2928861  45.0498631  17.3173825  51.8232013  47.9598863  22.0318487
  51.8769035  48.5289800  22.7996203  50.9546794  48.1300748  21.6672524
  44.7030406  37.6616419  23.5142938  45.3753460  37.4533782  22.8655587
  43.8760193  37.4638505  23.0748171  58.9519667  44.4020470  23.0318272
  59.1455558  45.3066280  23.2777547  58.8520286  43.9427889  23.8656857
  50.6055978  34.2878360  25.5308599  49.9583893  34.9868310  25.4373076
  51.3756994  34.7214504  25.8984847  54.0134776  44.5527213  28.6059153
  53.8620283  44.3237764  27.6889236  54.0039456  45.5097814  28.6190498
  50.7820113  42.1259125  23.5905419  51.7112173  42.2770285  23.4174386
  50.3611143  42.2143146  22.7354065  49.5808444  46.1509790  21.3603957
  49.4419530  45.7828574  22.2329895  48.7923041  46.6657429  21.1887914
  50.1756596  51.2518886  12.7029493  50.3508352  50.7806929  13.5175116
  49.4889384  51.8784652  12.9310754  51.1313659  45.5291392  18.7492794
  50.7963492  45.4892162  19.6450444  50.6317605  44.8636108  18.2763205
  45.1057903  40.9359022  24.2745376  44.9677701  40.2039261  24.8756915
  46.0162827  40.8467923  23.9929563  47.7340204  40.6478982  23.7629055
  48.4439823  40.0072174  23.7215674  47.6909512  40.8991877  24.6855236
  55.7226983  47.5846335  26.6835634  55.6639529  46.9005555  26.0166217
  56.1246501  48.3265325  26.2316260  46.4469138  37.6344200  25.5824695
  45.9106495  37.1834938  26.2346291  45.8585847  37.7690108  24.8395159
  44.7417682  54.4008249  19.4769353  44.9814280  55.0326773  20.1548372
  43.8986878  54.0496289  19.7634713  55.7244390  45.5485919  24.9149614
  54.8371169  45.2111841  25.0376013  56.2942941  44.8168950  25.1518379
  37.3773537  41.8810011  18.2392665  38.0644577  41.5671741  17.6513681
  37.2221666  42.7851375  17.9659917  42.1808259  36.7700207  22.6677689
  42.0966448  36.1625877  21.9328099  41.3590966  37.2609226  22.6687185
  49.2545543  50.2087371  21.8810857  49.1815715  51.0142343  22.3930162
  48.8122937  50.4079337  21.0558879  49.0435323  49.4459141  15.3913679
  48.2602845  49.9880822  15.4851903  49.7428068  49.9633121  15.7907920
  52.3531973  35.2553771  18.0347884  52.8500673  34.5023733  17.7148954
  51.5818955  35.2918087  17.4691094  60.2061731  40.9594136  19.6766176
  60.1951607  41.8418852  19.3060109  59.3379110  40.6065687  19.4820713
  51.7144227  50.1074205  24.0369016  52.4272199  50.7421670  23.9644917
  51.2234256  50.2038071  23.2209018  53.4361754  44.0125458  15.6086308
  52.5018033  44.1326921  15.4391012  53.6138422  43.1097925  15.3446317
  48.9366942  37.3971154  17.7619569  48.5664729  36.8442194  18.4500474
  49.4326034  36.7929287  17.2094569  56.8234305  39.8542777  16.1436342
  57.2894757  40.6870769  16.0696644  57.2741806  39.3887759  16.8481600
  46.7656140  47.8568649  24.8574587  47.4665600  48.4905132  25.0103981
  46.2951255  48.1983380  24.0970226  54.8910536  46.1986599  13.1422494
  55.1670380  46.0843193  14.0516368  54.0215035  45.8004083  13.1034667
  54.7950968  32.2223364  20.1827243  53.8814048  32.4527591  20.3509450
  55.2244069  32.3061808  21.0341275  54.5657426  40.4113256  22.6827137
  53.9128877  40.6589164  22.0279590  54.9437806  39.5977394  22.3489614
  51.5264600  50.4472949  16.7855307  51.7086995  49.6294605  17.2483060
  52.3497586  50.6640642  16.3480197  51.8606766  49.3741135  14.0470356
  52.3894532  48.8633589  13.4340518  52.1234985  49.0583665  14.9115889
  50.6144999  41.1533067  29.1693174  49.9385636  41.0527197  29.8395549
  51.4372633  40.9972281  29.6329171  42.3623859  47.3905004  21.7905689
  42.9477295  46.6448692  21.9233594  42.1648697  47.7008961  22.6742353
  45.2162514  50.4256251  16.8068132  44.5472889  50.9102379  16.3232172
  45.0775383  50.6725472  17.7211510  36.9541513  39.9610604  20.5110133
  36.9925613  39.4274195  21.3047251  36.4481806  39.4345810  19.8921110
  49.3567782  52.4599995  23.4050790  49.9086090  52.6231616  24.1699875
  49.6973976  53.0504433  22.7330815  44.3332276  34.8075145  24.0072675
  44.3973602  35.6689976  23.5950073  44.2699396  34.1949146  23.2745033
  43.8084548  36.8798277  27.6545709  44.4356587  36.4975354  28.2683233
  42.9512467  36.6612479  28.0201402  54.2078657  47.2861252  29.2599445
  54.7518561  47.8991211  28.7654399  53.6265502  47.8440831  29.7766458
  52.4936170  50.4081970  20.3914472  52.3687309  49.6071710  19.8825418
  53.1515261  50.9028164  19.9028442  44.1144338  36.7630703  19.5691613
  43.3930924  37.3766671  19.4299086  44.9037594  37.2988468  19.4908259
  54.5571078  48.2090990  22.0194022  53.6101414  48.0896342  21.9472349
  54.9053851  47.3213488  22.1020284  46.9170651  34.0985129  25.8432264
  47.4405053  34.3447426  26.6058574  46.6982985  34.9305164  25.4235402
  51.5617511  48.0043707  18.2198375  51.4142474  47.0760414  18.4005945
  52.3871005  48.0263797  17.7355450  55.1651633  48.8272265  19.3063247
  56.0898181  48.6215127  19.1687699  54.9966937  48.5788667  20.2152589
  48.1223196  35.0398824  23.5281935  47.7820017  34.2406638  23.9302615
  47.4162203  35.3400535  22.9558768  48.7739668  32.1248137  21.9809258
  49.5965738  31.6508615  21.8588148  49.0177732  32.9038621  22.4807944
  46.2978247  38.8167258  19.7901236  46.1522828  39.1307561  20.6825518
  45.8203451  39.4352158  19.2372135  48.1574630  35.8069805  19.8382126
  48.1436199  34.9110899  19.5014424  48.8747058  35.8140469  20.4720412
  50.0100761  36.2407146  21.8835253  49.7518538  37.1624216  21.8819584
  49.4785801  35.8437580  22.5735718  54.9546949  49.3457933  14.6625339
  55.1283827  48.7804355  13.9099191  55.4475841  50.1458828  14.4804829
  40.7723909  41.3572602  22.7288898  40.2277377  42.1332410  22.8609172
  41.6503259  41.7043406  22.5708019  50.4302716  32.3739096  18.2436416
  50.4524413  32.4378429  17.2888396  50.8470775  31.5343605  18.4376922
  60.8086341  42.1094356  16.2815639  61.2517487  41.3601681  15.8834762
  59.9312851  42.1004492  15.8989371  55.9422122  48.6624697  11.7622237
  56.6373026  49.2831390  11.9809552  56.2845272  47.8120048  12.0374615
  41.5589931  40.4842498  25.6219055  40.8171667  40.6325134  26.2083685
  41.2382675  40.7450764  24.7585804  57.8413545  46.1124403  13.2909568
  58.3664869  46.4511676  12.5658888  57.7535898  45.1771418  13.1072703
  49.5033594  50.0258476  25.4199445  49.8120720  49.7807623  26.2922144
  50.3009076  50.2305115  24.9318315  49.5254206  52.1796386  17.6504821
  49.0859196  51.6872765  18.3437678  50.2762323  51.6369354  17.4096896
  42.0046545  48.3707927  17.6529449  42.8304565  48.0711699  17.2728093
  41.6540597  47.6015549  18.1019238  46.9728078  47.7234395  19.7227123
  46.3508087  47.0605100  19.4229351  47.6432945  47.7495527  19.0400771
  40.2055150  46.2894253  18.6118383  39.3687058  45.8616428  18.4302384
  40.1778795  46.4826697  19.5489174  47.0452605  36.2016183  29.3159629
  47.0940761  37.0778306  28.9337398  47.5875120  35.6593576  28.7431272
  57.5307451  46.7457306  28.5960766  56.7402995  46.7281445  28.0565265
  57.2940806  47.2845600  29.3509802  57.6505326  43.5949773  25.9093494
  57.7003331  43.4299780  26.8509017  57.5419249  42.7277032  25.5191375
  46.5341585  46.2738318  13.1985583  46.6829705  46.9573783  12.5452256
  47.3408028  46.2543409  13.7135039  54.9409088  39.5780701  27.2252801
  55.8418951  39.4387166  26.9336799  55.0157063  39.7435156  28.1650979
  49.2751894  36.9547556  26.0705987  48.4055203  37.2481122  25.7988576
  49.5111374  37.5388001  26.7913251  59.1523523  46.0146714  26.1535516
  58.8608331  46.3776695  26.9898977  58.5395654  45.3013723  25.9748848
  60.3519205  43.5799594  18.6738086  61.1866097  44.0189398  18.8375647
  60.4878334  43.1038247  17.8546332  57.4010711  41.1379329  24.6215574
  57.8764833  41.3306975  23.8134425  56.4776277  41.1938515  24.3758958
  44.2894218  42.3003496  14.2046652  44.0440260  41.3965826  14.4026862
  44.4590132  42.3020647  13.2626130  51.9790928  33.1727172  23.5871408
  52.4972872  33.9088199  23.2617896  51.6246060  33.4791166  24.4218167
  52.2303522  29.5927455  19.1072304  52.5105276  28.9250644  19.7332731
  53.0154129  29.7856551  18.5946968  50.0336990  48.7686449  10.6697331
  49.4610957  49.3876636  10.2167803  50.6069784  49.3185811  11.2037253
  56.1012380  38.0145089  22.8543880  57.0529803  38.1143187  22.8756104
  55.9315831  37.2223358  23.3641964  54.1226760  35.1000672  23.0403280
  53.5276692  35.3805685  22.3449769  53.8376456  35.5894573  23.8120022
  53.2534250  49.0523599  11.8005913  54.1864923  48.9869161  12.0038789
  53.1657463  49.8879866  11.3420446  55.8822267  48.3689469   8.7609861
  55.8035898  48.0349333   9.6545618  56.7031934  48.8611237   8.7601333
  58.5800458  41.2351209  21.9686179  58.5476778  40.2967209  22.1545863
  59.1901082  41.3135245  21.2352004  58.7294946  38.0262252  22.0144462
  58.2133995  37.2420709  21.8274391  59.6134895  37.6980969  22.1790982
  56.3905673  31.7703268  17.9740275  56.1930494  31.4618356  18.8583607
  57.0005379  32.4964907  18.1038205  64.3977008  42.2967216  21.1092216
  65.1280396  42.0352504  21.6699919  63.7883953  41.5595937  21.1494284
  62.4792305  40.4375078  21.7066667  61.7525468  40.3031043  21.0983159
  62.0639592  40.7451907  22.5123385  50.3022481  44.1565008  29.4714040
  51.2225491  44.3343607  29.6654087  50.2672064  43.2121053  29.3193739
  39.5204646  39.3503601  18.3967315  39.2007431  38.4968910  18.1041689
  38.9738075  39.5652180  19.1525282  43.2984554  42.0666042  22.1136821
  43.5170564  42.9983150  22.1324855  43.7110328  41.7074017  22.8991625
  48.1712419  37.6399248  31.5039570  48.0709146  38.5893605  31.4351661
  47.9533961  37.3117487  30.6315640  39.3892906  42.9706513  20.3660436
  38.6956378  42.5560466  19.8530391  40.1365897  43.0127049  19.7693855
  55.5258127  33.7612700  15.2315471  54.9456796  34.4197504  14.8493523
  55.2594060  32.9390044  14.8202888  53.9761693  33.1617757  17.4336791
  54.4761472  33.2734292  16.6251110  54.6197301  32.8578810  18.0737599
  48.0343689  41.0696387  30.3204632  47.5510771  41.8696747  30.5268521
  48.1204628  41.0804332  29.3672076  41.3029649  42.9024767  18.2426451
  41.2800337  43.0012454  17.2908334  41.6130285  43.7489918  18.5643617
  43.9617027  44.9600922  22.3573066  44.9160280  44.9284864  22.2902997
  43.7629550  44.4991545  23.1723292  44.5516409  43.5302038  24.9243863
  45.3709298  44.0246116  24.9478701  44.8253217  42.6134006  24.8961431
  54.3083005  35.9212790  14.2871819  53.4208860  36.2062441  14.0692014
  54.7236994  35.7606553  13.4399096  57.6597541  35.9459311  18.0026158
  58.4357931  36.4355764  18.2750775  56.9345675  36.3717365  18.4598028
  60.0970100  36.6586930  19.0600099  60.6914591  36.4182666  18.3493407
  60.1696684  35.9394061  19.6873635  42.3167256  50.5020541  19.3743264
  42.1821723  49.7420942  18.8081262  41.8999318  51.2261441  18.9072052
  53.4526219  45.6857465   8.3819839  54.1562069  45.8907467   8.9977495
  52.7288867  46.2534227   8.6468922  54.2824029  41.4367326  14.5022109
  54.2259230  41.8935877  13.6629741  54.8352371  40.6758011  14.3244952
  58.0928835  37.2257058  15.3272229  57.8365769  36.8253694  16.1580436
  57.4681703  37.9400852  15.2022368  62.4041173  39.9653131  17.8343520
  61.8440731  40.0346320  18.6075082  61.7984676  39.7894116  17.1143016
  45.4736381  51.3989858  19.5861706  45.3568766  52.3435291  19.4840397
  44.6528828  51.0963420  19.9747505  55.3612916  46.1239994  10.4318299
  56.1958520  45.6921192  10.2495774  55.1997259  45.9522008  11.3595193
  55.0158808  42.6272107  11.7974638  54.9607612  42.4616379  10.8563082
  54.3904863  43.3348140  11.9536828  39.8051323  37.8640172  25.6236060
  40.4510187  37.3539126  26.1123286  39.5968474  38.6008853  26.1979486
  52.3304715  44.9321019  31.1228201  53.1995875  45.1061671  30.7614836
  51.8511467  45.7515436  31.0003930  46.4990896  52.0518120  22.8017635
  47.4018142  52.0841730  23.1184130  46.2728266  51.1218571  22.8163970
  48.2544498  50.8049107  19.4627713  47.3040129  50.8050968  19.3492086
  48.5576984  50.0581841  18.9463748  44.1448814  35.0107789  29.7211075
  45.0080276  34.6544594  29.9314399  43.5714225  34.6721684  30.4086479
  63.9897191  56.6409645  20.5273476  64.6275601  56.5216392  19.8236816
  63.8718034  57.5890489  20.5861428  60.7986897  56.5937073  20.4635000
  60.4605409  56.4778138  19.5755535  61.6676666  56.1928238  20.4436007
  56.6573713  58.4472550  16.4531891  56.0938578  58.3562487  15.6848179
  56.5426108  57.6272454  16.9334384  61.2806680  57.7471925  26.4221206
  61.2695321  57.3524723  25.5501710  61.4427320  57.0137998  27.0154977
  54.2038145  59.9423741  19.2916112  54.9959437  59.6014566  18.8762411
  54.4434795  60.0518716  20.2118265  62.2373272  62.1143517  11.7646356
  61.5861251  62.6997598  11.3780370  63.0317635  62.6449712  11.8241394
  56.1628899  59.2032654  12.1633491  56.9359775  58.6561642  12.0246366
  56.5154298  60.0676904  12.3747952  58.0013941  60.5309037  25.3700390
  57.7103807  61.4354668  25.2547056  58.6370926  60.5725564  26.0844459
  58.9270148  57.9085885  21.9601750  59.5233721  57.6841908  21.2458712
  58.9845120  57.1670631  22.5627197  58.4995177  55.3625321   9.7951941
  58.7520697  54.8406842   9.0335404  57.5619736  55.1991466   9.8978624
  63.5438460  54.3661099  17.6026684  64.3301549  53.9480522  17.2517101
  63.8077164  55.2707191  17.7708332  63.7148537  59.8033949  12.3015341
  63.0794370  59.8768576  13.0136245  63.3845943  60.3927548  11.6234420
  68.9446887  54.3036332  18.5059662  69.6772059  53.7335549  18.7397492
  68.1886242  53.9157933  18.9466168  58.2191465  57.2653427  11.9976315
  58.1027724  56.5898330  12.6657400  58.3293725  56.7785800  11.1808469
  60.5623006  56.7263574  15.7023005  60.1981214  56.1994195  16.4135926
  61.4190122  56.3362043  15.5289490  66.4672307  48.0157906  22.9654271
  66.1355632  48.8853317  22.7415486  65.8717920  47.6994190  23.6448301
  60.2028493  51.7553473  10.6984353  60.3702896  52.6233710  11.0654824
  60.0125662  51.9180755   9.7745642  62.9603827  60.2170452  22.3650184
  62.6604550  61.1195491  22.2565991  62.6154886  59.9502635  23.2171336
  56.4116308  56.6684249  18.3986888  55.4866804  56.5360463  18.6064580
  56.6600721  57.4478468  18.8956830  66.3600970  52.7352992  20.0447621
  65.4517848  52.6668401  19.7506382  66.3088566  53.2124937  20.8729446
  60.1817714  54.2111131  11.6831020  60.0617339  54.6568182  12.5216500
  59.4870303  54.5596449  11.1244558  53.7725119  56.3117523  19.2330677
  53.9017500  56.5652002  20.1470089  53.0922570  56.9045231  18.9135332
  57.9424606  66.9814773  15.3321151  57.8648636  67.9322598  15.4109632
  57.3386250  66.6360645  15.9896078  60.4341836  54.1542638  27.9882518
  59.6575170  54.7136558  27.9785383  61.0732399  54.6399421  28.5097388
  68.2262617  50.9369431  21.8225495  67.5836997  51.2301964  21.1765289
  67.7217545  50.8222351  22.6278692  65.8802780  54.6832604  12.5111354
  66.7920636  54.9159991  12.3359052  65.3712427  55.2669648  11.9486433
  58.6888208  56.9628091  27.5500485  59.4302893  57.5013135  27.2735309
  57.9825194  57.5894380  27.7072037  64.1643548  59.1057232  26.1472647
  64.5726904  58.6639642  25.4027279  63.4420810  58.5309859  26.4006840
  60.5174618  54.0429839  23.5206204  61.3635813  54.4669252  23.6640853
  60.4573256  53.3863463  24.2144767  64.4872363  59.6658422  19.9024936
  63.8581225  59.8304137  19.2001003  64.0998025  60.0800032  20.6735900
  68.3661595  60.6012860  17.2569299  67.6812633  60.9811762  16.7066333
  68.4505444  61.2108187  17.9901247  63.6674063  51.7034207  25.1787377
  63.4234995  52.4576267  24.6421653  63.9433994  52.0819555  26.0134624
  65.6212526  58.2472819  23.8564643  65.8329421  58.8904579  23.1799024
  65.5742274  57.4135136  23.3886573  63.2238755  50.8590640  20.7601215
  62.3623234  51.1571894  21.0517953  63.2501190  51.0761039  19.8282248
  60.0400325  59.4032831  17.1675021  60.5038670  59.6820534  16.3779643
  59.7757123  58.5016275  16.9848111  56.9324406  58.9504312  20.1054784
  57.5025763  59.3791580  19.4672268  57.5232517  58.6686897  20.8038970
  58.9769211  55.5255983  13.9764586  59.6793254  55.9777027  14.4438512
  58.6449839  54.8839802  14.6044479  57.4249572  54.1167740  28.3515795
  56.7948233  54.7984020  28.5851192  57.3185660  54.0050821  27.4068933
  52.7194545  53.7839536  19.2781719  51.9293599  54.0397064  18.8021830
  53.2105792  54.5987873  19.3833760  66.7358354  61.1244775  22.0287000
  67.5575798  60.7224962  21.7469682  66.7320757  61.0213009  22.9803116
  54.6709290  54.1484115  16.2365196  53.8740453  54.2602809  16.7548692
  54.4434882  54.4870767  15.3706087  60.5014958  60.6728818  24.1847711
  60.5659390  61.1349225  25.0205883  59.7925881  60.0426183  24.3130021
  51.0032248  54.0370026  21.7096710  51.2540286  54.9217036  21.9754286
  51.5391796  53.8574628  20.9371802  74.8264347  57.4683523  18.3771972
  74.0728056  56.8990921  18.2215976  74.9611888  57.4346188  19.3242606
  60.2162975  62.3396926  14.0526691  60.0808650  63.1848461  14.4811539
  60.7572788  62.5416203  13.2892625  56.7030315  48.4188505  30.7141046
  56.3097260  47.8654704  31.3888690  57.5196455  48.7299084  31.1047564
  53.6692373  59.8572364  14.6254616  54.1816893  60.6515614  14.7760181
  54.3215085  59.1598654  14.5588218  55.4787257  62.9738120  16.7077369
  55.6553886  63.8956085  16.5198353  56.2744091  62.6596539  17.1371749
  59.6198276  49.8346384  28.3061303  60.3607989  50.4353538  28.2265765
  59.8516199  49.0924022  27.7479345  54.7639614  55.0202752  26.5839532
  54.6493129  54.1188009  26.8846631  53.9084132  55.2666449  26.2324349
  61.8431452  62.9620492  28.1827033  61.3995306  62.1756871  27.8647938
  62.5048665  63.1499643  27.5170924  56.6018573  64.4916294  22.7087712
  57.1525998  64.3633357  21.9364706  55.7630049  64.7911183  22.3582604
  63.9412690  63.2423292  26.2108434  63.9231165  64.0632173  25.7188704
  64.8632610  63.1177367  26.4358576  60.3985744  60.7567421  27.0531943
  60.9314081  59.9955710  26.8231251  59.8699825  60.4641073  27.7956097
  63.5655439  45.8627487  22.5825584  63.2219708  46.7529129  22.5064695
  63.9334401  45.6729145  21.7195169  51.6341289  58.1861018  15.4014187
  52.4716511  58.5958026  15.1847894  51.8119557  57.2460460  15.3714381
  63.5305722  55.8536099  11.0898020  63.0152345  56.6240703  11.3286407
  63.2583030  55.1801235  11.7131081  61.1152833  50.6985799  16.1483258
  60.2594429  50.3092650  15.9688897  61.5279784  50.7777760  15.2883043
  62.6451979  48.2332143  20.5474818  62.1416775  48.1962278  19.7342623
  62.9382586  49.1424885  20.6071474  58.8894865  48.3170872  19.5540999
  59.7547862  48.1213681  19.1946889  58.9572374  48.0881224  20.4810356
  68.5039996  58.6068453  13.0251193  67.7269438  58.2679613  12.5806355
  69.1831477  58.6121076  12.3506158  63.3192025  53.7263191  12.9157801
  63.0142160  54.0409340  13.7667944  64.2722467  53.8044611  12.9585134
  61.7638457  59.8853414  14.5650755  61.2359818  59.1506174  14.2523992
  61.2625959  60.6628090  14.3190723  66.7431303  58.0802434  19.6817801
  66.0854977  58.7701696  19.7697930  67.5471702  58.4698866  20.0251787
  56.4957184  50.5473080  16.9257366  57.0700936  50.3248262  16.1930559
  57.0828167  50.6161775  17.6785968  65.5536761  56.4346807  17.7321743
  66.0668643  57.0676799  18.2343453  66.2037985  55.8348003  17.3665103
  56.8226771  52.5777541  10.9453252  55.9864084  52.9152228  11.2662526
  56.6831541  52.4426521  10.0080389  58.7979852  47.4214329  15.6532436
  58.1444264  47.1063346  15.0289050  58.7560326  46.7990070  16.3792259
  59.9091057  57.7033624   7.5685728  59.0018118  57.4722878   7.7676877
  60.4062089  56.9071243   7.7559709  62.8159136  66.4131131  10.4882414
  62.1420834  66.7162828  11.0967372  63.2024958  67.2160212  10.1387871
  62.0317592  53.9096263  19.9780083  61.1140154  54.1311210  19.8201771
  62.4477736  53.9842573  19.1191791  62.8152640  55.3087678  15.1082764
  63.5624459  55.8209076  14.7989886  63.0844230  54.9871731  15.9687157
  61.0879290  57.8046219  12.0909718  60.1790509  57.5205252  12.1882188
  61.1174374  58.2245298  11.2313025  66.3198558  61.4152809  15.8600885
  65.8660885  60.5743718  15.9166076  65.6892524  62.0514207  16.1975666
  65.2631477  52.3444795  17.0901553  64.5254234  51.8322181  17.4211795
  65.5158251  51.9045176  16.2784830  64.7631497  63.2529305  16.7950704
  65.0554471  63.8134362  16.0763069  65.2730117  63.5457866  17.5503863
  65.3643104  45.1221047  17.6843322  65.6701981  44.2618410  17.3969237
  66.0895709  45.7138667  17.4842316  51.6567461  55.5251733  16.0724920
  51.4591860  54.9321094  15.3475987  51.1014125  55.2203943  16.7900859
  59.6364184  55.4174840  18.1919513  59.6912794  54.4648676  18.1161990
  58.8255386  55.5734279  18.6760812  60.7855378  59.3454963   9.4297796
  60.3474808  58.6290822   8.9703434  61.5265819  59.5731078   8.8682888
  57.5756544  54.0351899  15.9509892  56.7624410  54.3346070  16.3575084
  58.0715538  53.6407588  16.6684374  59.7265122  64.0309656  17.8844157
  59.6841301  64.2570503  16.9552689  60.6427821  63.7973031  18.0329958
  63.1730756  54.4993724  24.7824786  63.5280144  54.7265197  25.6419252
  63.8202887  54.8312101  24.1602041  68.9028493  57.6212160  15.4874115
  68.7646391  57.8113756  14.5595304  68.5464712  58.3831543  15.9442166
  57.0670619  51.6070255  21.5671127  57.7069998  51.4659014  20.8694090
  56.2348149  51.3204768  21.1909729  68.9297872  59.6888687  20.4985387
  69.3634379  59.5963976  21.3468441  69.6429453  59.6646187  19.8605403
  57.8430923  60.9072685  17.6806120  58.6371521  60.4123006  17.4788694
  57.1322615  60.3790549  17.3173825  62.6625767  63.2890781  22.0318487
  62.7162790  63.8581717  22.7996203  61.7940549  63.4592666  21.6672524
  54.1513686  55.0515767  13.7565872  53.2211274  54.9900223  13.9735834
  54.2471158  54.5291720  12.9602513  54.0699235  51.5770580  16.3444114
  54.3306053  52.4915913  16.2353274  54.8916408  51.1095023  16.4940727
  55.5424161  52.9908337  23.5142938  56.2147214  52.7825699  22.8655587
  54.7153947  52.7930423  23.0748171  69.7913422  59.7312387  23.0318272
  69.9849312  60.6358198  23.2777547  69.6914040  59.2719807  23.8656857
  61.4449733  49.6170278  25.5308599  60.7977648  50.3160228  25.4373076
  62.2150748  50.0506422  25.8984847  64.8528531  59.8819130  28.6059153
  64.7014037  59.6529682  27.6889236  64.8433210  60.8389732  28.6190498
  61.6213867  57.4551043  23.5905419  62.5505927  57.6062203  23.4174386
  61.2004897  57.5435064  22.7354065  60.4202199  61.4801707  21.3603957
  60.2813284  61.1120492  22.2329895  59.6316795  61.9949347  21.1887914
  61.0150351  66.5810804  12.7029493  61.1902106  66.1098847  13.5175116
  60.3283139  67.2076570  12.9310754  61.9707414  60.8583310  18.7492794
  61.6357247  60.8184080  19.6450444  61.4711360  60.1928026  18.2763205
  55.9451658  56.2650940  24.2745376  55.8071456  55.5331179  24.8756915
  56.8556581  56.1759840  23.9929563  64.9066606  58.2039344   9.0229854
  64.2895776  57.4786173   8.9262907  64.4383094  58.9648705   8.6796928
  58.5733959  55.9770899  23.7629055  59.2833577  55.3364092  23.7215674
  58.5303267  56.2283794  24.6855236  66.5620737  62.9138253  26.6835634
  66.5033283  62.2297473  26.0166217  66.9640256  63.6557243  26.2316260
  57.2862893  52.9636117  25.5824695  56.7500250  52.5126856  26.2346291
  56.6979601  53.0982026  24.8395159  55.5811436  69.7300167  19.4769353
  55.8208034  70.3618691  20.1548372  54.7380633  69.3788207  19.7634713
  56.6965151  52.4224769   8.1451158  55.8194618  52.3013569   7.7813405
  57.1722905  51.6310847   7.8930047  66.5638145  60.8777837  24.9149614
  65.6764923  60.5403758  25.0376013  67.1336696  60.1460868  25.1518379
  48.2167292  57.2101928  18.2392665  48.9038331  56.8963658  17.6513681
  48.0615420  58.1143293  17.9659917  53.0202014  52.0992125  22.6677689
  52.9360203  51.4917795  21.9328099  52.1984720  52.5901143  22.6687185
  60.0939298  65.5379289  21.8810857  60.0209469  66.3434261  22.3930162
  59.6516691  65.7371255  21.0558879  59.8829078  64.7751059  15.3913679
  59.0996599  65.3172739  15.4851903  60.5821823  65.2925039  15.7907920
  63.1925728  50.5845689  18.0347884  63.6894427  49.8315651  17.7148954
  62.4212709  50.6210005  17.4691094  71.0455485  56.2886054  19.6766176
  71.0345361  57.1710769  19.3060109  70.1772864  55.9357605  19.4820713
  62.5537981  65.4366123  24.0369016  63.2665954  66.0713588  23.9644917
  62.0628010  65.5329989  23.2209018  64.2755508  59.3417376  15.6086308
  63.3411787  59.4618838  15.4391012  64.4532177  58.4389843  15.3446317
  59.7760696  52.7263072  17.7619569  59.4058484  52.1734112  18.4500474
  60.2719789  52.1221205  17.2094569  67.6628060  55.1834695  16.1436342
  68.1288512  56.0162687  16.0696644  68.1135560  54.7179677  16.8481600
  57.6049895  63.1860567  24.8574587  58.3059354  63.8197049  25.0103981
  57.1345010  63.5275298  24.0970226  65.7304291  61.5278516  13.1422494
  66.0064135  61.4135111  14.0516368  64.8608790  61.1296001  13.1034667
  65.6344722  47.5515282  20.1827243  64.7207802  47.7819509  20.3509450
  66.0637824  47.6353726  21.0341275  65.4051181  55.7405174  22.6827137
  64.7522631  55.9881081  22.0279590  65.7831561  54.9269312  22.3489614
  62.3658355  65.7764867  16.7855307  62.5480749  64.9586523  17.2483060
  63.1891341  65.9932559  16.3480197  62.7000520  64.7033052  14.0470356
  63.2288287  64.1925507  13.4340518  62.9628740  64.3875582  14.9115889
  61.4538754  56.4824985  29.1693174  60.7779391  56.3819114  29.8395549
  62.2766388  56.3264199  29.6329171  53.2017613  62.7196922  21.7905689
  53.7871050  61.9740609  21.9233594  53.0042451  63.0300878  22.6742353
  56.0556268  65.7548169  16.8068132  55.3866644  66.2394297  16.3232172
  55.9169138  66.0017389  17.7211510  47.7935268  55.2902522  20.5110133
  47.8319367  54.7566112  21.3047251  47.2875561  54.7637727  19.8921110
  60.1961537  67.7891912  23.4050790  60.7479845  67.9523534  24.1699875
  60.5367730  68.3796350  22.7330815  55.1726030  50.1367062  24.0072675
  55.2367357  50.9981893  23.5950073  55.1093150  49.5241064  23.2745033
  54.6478303  52.2090195  27.6545709  55.2750341  51.8267272  28.2683233
  53.7906221  51.9904397  28.0201402  65.0472411  62.6153170  29.2599445
  65.5912315  63.2283128  28.7654399  64.4659256  63.1732748  29.7766458
  51.4243845  54.0166624  13.5864064  51.7197286  53.1077302  13.5331118
  50.5231881  53.9954363  13.2645066  63.3329924  65.7373888  20.3914472
  63.2081064  64.9363628  19.8825418  63.9909015  66.2320081  19.9028442
  54.9538092  52.0922621  19.5691613  54.2324678  52.7058588  19.4299086
  55.7431348  52.6280385  19.4908259  65.3964832  63.5382908  22.0194022
  64.4495168  63.4188259  21.9472349  65.7447606  62.6505406  22.1020284
  57.7564406  49.4277047  25.8432264  58.2798808  49.6739344  26.6058574
  57.5376739  50.2597082  25.4235402  53.1531687  51.6980722  13.7103389
  52.8244393  50.8178101  13.5278495  53.5071058  51.6428390  14.5979778
  62.4011266  63.3335624  18.2198375  62.2536228  62.4052332  18.4005945
  63.2264759  63.3555715  17.7355450  56.2673510  51.9853691  14.0778867
  56.6069583  52.5139613  13.3557475  56.7145631  52.3234098  14.8537433
  66.0045388  64.1564183  19.3063247  66.9291935  63.9507044  19.1687699
  65.8360691  63.9080584  20.2152589  58.9616951  50.3690742  23.5281935
  58.6213771  49.5698555  23.9302615  58.2555957  50.6692453  22.9558768
  59.6133423  47.4540055  21.9809258  60.4359492  46.9800533  21.8588148
  59.8571486  48.2330538  22.4807944  58.2541657  50.4828313  12.2772160
  58.9750020  50.8609566  11.7735876  57.6306961  51.2017190  12.3807138
  62.3972780  51.1873462  13.2130492  62.6136394  52.0698100  12.9119320
  61.9166847  50.7959675  12.4836134  57.1372001  54.1459175  19.7901236
  56.9916582  54.4599478  20.6825518  56.6597205  54.7644076  19.2372135
  58.9968384  51.1361723  19.8382126  58.9829953  50.2402816  19.5014424
  59.7140812  51.1432387  20.4720412  60.8494515  51.5699063  21.8835253
  60.5912293  52.4916134  21.8819584  60.3179555  51.1729498  22.5735718
  65.7940704  64.6749850  14.6625339  65.9677581  64.1096273  13.9099191
  66.2869595  65.4750745  14.4804829  51.6117664  56.6864520  22.7288898
  51.0671132  57.4624328  22.8609172  52.4897014  57.0335324  22.5708019
  58.4005280  50.0176103  15.1069696  58.5221191  49.0892750  15.3060584
  58.1107323  50.0314789  14.1948012  61.2696471  47.7031014  18.2436416
  61.2918168  47.7670347  17.2888396  61.6864530  46.8635523  18.4376922
  71.6480095  57.4386273  16.2815639  72.0911241  56.6893599  15.8834762
  70.7706605  57.4296410  15.8989371  66.7815876  63.9916615  11.7622237
  67.4766781  64.6123308  11.9809552  67.1239026  63.1411966  12.0374615
  52.3983686  55.8134416  25.6219055  51.6565422  55.9617051  26.2083685
  52.0776430  56.0742681  24.7585804  68.6807299  61.4416320  13.2909568
  69.2058624  61.7803593  12.5658888  68.5929652  60.5063336  13.1072703
  60.3427348  65.3550394  25.4199445  60.6514475  65.1099541  26.2922144
  61.1402830  65.5597033  24.9318315  60.3647960  67.5088304  17.6504821
  59.9252950  67.0164682  18.3437678  61.1156077  66.9661271  17.4096896
  52.8440299  63.6999845  17.6529449  53.6698319  63.4003616  17.2728093
  52.4934351  62.9307467  18.1019238  57.8121832  63.0526313  19.7227123
  57.1901842  62.3897018  19.4229351  58.4826699  63.0787445  19.0400771
  51.0448904  61.6186171  18.6118383  50.2080813  61.1908345  18.4302384
  51.0172550  61.8118614  19.5489174  57.8846360  51.5308101  29.3159629
  57.9334515  52.4070224  28.9337398  58.4268874  50.9885494  28.7431272
  68.3701206  62.0749224  28.5960766  67.5796749  62.0573363  28.0565265
  68.1334560  62.6137518  29.3509802  68.4899081  58.9241690  25.9093494
  68.5397086  58.7591698  26.8509017  68.3813004  58.0568949  25.5191375
  57.3735339  61.6030236  13.1985583  57.5223460  62.2865701  12.5452256
  58.1801783  61.5835326  13.7135039  65.7802843  54.9072618  27.2252801
  66.6812706  54.7679083  26.9336799  65.8550817  55.0727073  28.1650979
  60.1145648  52.2839473  26.0705987  59.2448958  52.5773039  25.7988576
  60.3505129  52.8679918  26.7913251  69.9917277  61.3438632  26.1535516
  69.7002086  61.7068613  26.9898977  69.3789409  60.6305640  25.9748848
  71.1912960  58.9091512  18.6738086  72.0259851  59.3481316  18.8375647
  71.3272089  58.4330165  17.8546332  68.2404466  56.4671247  24.6215574
  68.7158587  56.6598893  23.8134425  67.3170031  56.5230432  24.3758958
  55.1287972  57.6295414  14.2046652  54.8834014  56.7257744  14.4026862
  55.2983887  57.6312564  13.2626130  62.8184682  48.5019090  23.5871408
  63.3366626  49.2380117  23.2617896  62.4639815  48.8083083  24.4218167
  54.3983620  53.3623771  11.7032814  53.7052865  53.4368126  11.0472850
  54.1535372  52.5984115  12.2254331  63.0697276  44.9219373  19.1072304
  63.3499030  44.2542562  19.7332731  63.8547883  45.1148468  18.5946968
  60.8730745  64.0978367  10.6697331  60.3004712  64.7168554  10.2167803
  61.4463538  64.6477728  11.2037253  66.9406135  53.3437007  22.8543880
  67.8923558  53.4435104  22.8756104  66.7709585  52.5515275  23.3641964
  64.9620514  50.4292590  23.0403280  64.3670446  50.7097603  22.3449769
  64.6770211  50.9186491  23.8120022  64.0928005  64.3815517  11.8005913
  65.0258678  64.3161078  12.0038789  64.0051217  65.2171784  11.3420446
  66.7216021  63.6981387   8.7609861  66.6429653  63.3641251   9.6545618
  67.5425688  64.1903155   8.7601333  69.4194212  56.5643126  21.9686179
  69.3870533  55.6259127  22.1545863  70.0294836  56.6427163  21.2352004
  61.2577543  55.4339179   8.0113383  62.2036648  55.3045387   8.0801801
  60.8791788  54.6953841   8.4882811  69.5688701  53.3554170  22.0144462
  69.0527750  52.5712626  21.8274391  70.4528649  53.0272886  22.1790982
  67.2299428  47.0995185  17.9740275  67.0324249  46.7910274  18.8583607
  67.8399133  47.8256824  18.1038205  75.2370762  57.6259133  21.1092216
  75.9674151  57.3644421  21.6699919  74.6277708  56.8887855  21.1494284
  73.3186059  55.7666996  21.7066667  72.5919223  55.6322961  21.0983159
  72.9033346  56.0743824  22.5123385  61.1416236  59.4856925  29.4714040
  62.0619245  59.6635524  29.6654087  61.1065819  58.5412971  29.3193739
  59.4420460  53.3589156   7.9468268  58.5351916  53.0622268   8.0230982
  59.7196441  53.0618974   7.0802555  50.3598401  54.6795519  18.3967315
  50.0401185  53.8260827  18.1041689  49.8131829  54.8944097  19.1525282
  54.1378308  57.3957960  22.1136821  54.3564318  58.3275068  22.1324855
  54.5504082  57.0365935  22.8991625  61.0582526  47.9026045  14.1012510
  60.2483254  47.5573130  14.4767756  61.7466943  47.5933589  14.6900121
  62.9873074  46.9804092  15.7236806  63.5404113  47.3999546  16.3826830
  63.2243161  46.0539840  15.7659762  59.0106174  52.9691166  31.5039570
  58.9102901  53.9185523  31.4351661  58.7927716  52.6409405  30.6315640
  58.2119245  50.2176091   8.0880248  59.0738409  50.5430989   8.3476065
  58.3969589  49.4307587   7.5753313  50.2286661  58.2998431  20.3660436
  49.5350132  57.8852383  19.8530391  50.9759652  58.3418967  19.7693855
  66.3651882  49.0904617  15.2315471  65.7850551  49.7489421  14.8493523
  66.0987814  48.2681962  14.8202888  64.8155448  48.4909675  17.4336791
  65.3155226  48.6026210  16.6251110  65.4591056  48.1870728  18.0737599
  58.8737444  56.3988305  30.3204632  58.3904525  57.1988665  30.5268521
  58.9598383  56.4096250  29.3672076  52.1423403  58.2316684  18.2426451
  52.1194091  58.3304372  17.2908334  52.4524040  59.0781835  18.5643617
  54.8010781  60.2892839  22.3573066  55.7554035  60.2576782  22.2902997
  54.6023305  59.8283463  23.1723292  55.3910163  58.8593955  24.9243863
  56.2103052  59.3538034  24.9478701  55.6646971  57.9425924  24.8961431
  65.1476760  51.2504708  14.2871819  64.2602615  51.5354358  14.0692014
  65.5630749  51.0898471  13.4399096  68.4991296  51.2751229  18.0026158
  69.2751686  51.7647681  18.2750775  67.7739430  51.7009283  18.4598028
  70.9363854  51.9878848  19.0600099  71.5308345  51.7474584  18.3493407
  71.0090438  51.2685979  19.6873635  53.1561010  65.8312459  19.3743264
  53.0215478  65.0712860  18.8081262  52.7393072  66.5553359  18.9072052
  64.2919973  61.0149382   8.3819839  64.9955823  61.2199385   8.9977495
  63.5682622  61.5826144   8.6468922  65.1217783  56.7659244  14.5022109
  65.0652985  57.2227795  13.6629741  65.6746126  56.0049928  14.3244952
  68.9322589  52.5548976  15.3272229  68.6759523  52.1545611  16.1580436
  68.3075457  53.2692770  15.2022368  73.2434927  55.2945049  17.8343520
  72.6834485  55.3638238  18.6075082  72.6378430  55.1186033  17.1143016
  56.3130136  66.7281776  19.5861706  56.1962520  67.6727208  19.4840397
  55.4922582  66.4255337  19.9747505  66.2006670  61.4531912  10.4318299
  67.0352274  61.0213110  10.2495774  66.0391013  61.2813925  11.3595193
  65.8552563  57.9564025  11.7974638  65.8001366  57.7908296  10.8563082
  65.2298618  58.6640058  11.9536828  50.6445078  53.1932089  25.6236060
  51.2903941  52.6831043  26.1123286  50.4362229  53.9300771  26.1979486
  63.1698470  60.2612937  31.1228201  64.0389629  60.4353589  30.7614836
  62.6905221  61.0807354  31.0003930  59.1648688  47.4572134  11.3759957
  59.1527358  48.4013974  11.5328228  60.0572110  47.2742279  11.0819418
  57.3384650  67.3810038  22.8017635  58.2411897  67.4133648  23.1184130
  57.1122020  66.4510489  22.8163970  59.0938252  66.1341024  19.4627713
  58.1433883  66.1342886  19.3492086  59.3970738  65.3873759  18.9463748
  62.9800808  44.0514911  15.6305893  62.2133203  43.4973397  15.7762576
  63.3911512  44.1236779  16.4920045  54.9842569  50.3399706  29.7211075
  55.8474030  49.9836511  29.9314399  54.4107979  50.0013601  30.4086479
  74.8290946  71.9701563  20.5273476  75.4669355  71.8508310  19.8236816
  74.7111788  72.9182407  20.5861428  71.6380652  71.9228991  20.4635000
  71.2999163  71.8070056  19.5755535  72.5070420  71.5220156  20.4436007
  67.4967467  73.7764467  16.4531891  66.9332333  73.6854404  15.6848179
  67.3819863  72.9564372  16.9334384  72.1200435  73.0763843  26.4221206
  72.1089076  72.6816641  25.5501710  72.2821074  72.3429915  27.0154977
  65.0431899  75.2715659  19.2916112  65.8353191  74.9306484  18.8762411
  65.2828550  75.3810634  20.2118265  73.0767026  77.4435435  11.7646356
  72.4255006  78.0289515  11.3780370  73.8711389  77.9741630  11.8241394
  67.0022653  74.5324572  12.1633491  67.7753529  73.9853559  12.0246366
  67.3548052  75.3968821  12.3747952  68.8407696  75.8600954  25.3700390
  68.5497562  76.7646585  25.2547056  69.4764680  75.9017482  26.0844459
  69.7663903  73.2377803  21.9601750  70.3627475  73.0133825  21.2458712
  69.8238874  72.4962548  22.5627197  69.3388931  70.6917238   9.7951941
  69.5914452  70.1698760   9.0335404  68.4013490  70.5283384   9.8978624
  74.3832214  69.6953017  17.6026684  75.1695303  69.2772440  17.2517101
  74.6470918  70.5999109  17.7708332  74.5542291  75.1325867  12.3015341
  73.9188124  75.2060493  13.0136245  74.2239698  75.7219466  11.6234420
  79.7840641  69.6328250  18.5059662  80.5165813  69.0627467  18.7397492
  79.0279997  69.2449850  18.9466168  69.0585220  72.5945344  11.9976315
  68.9421478  71.9190248  12.6657400  69.1687480  72.1077718  11.1808469
  71.4016761  72.0555491  15.7023005  71.0374968  71.5286112  16.4135926
  72.2583877  71.6653960  15.5289490  77.3066061  63.3449824  22.9654271
  76.9749386  64.2145235  22.7415486  76.7111675  63.0286108  23.6448301
  71.0422248  67.0845391  10.6984353  71.2096650  67.9525627  11.0654824
  70.8519417  67.2472673   9.7745642  73.7997581  75.5462370  22.3650184
  73.4998304  76.4487409  22.2565991  73.4548641  75.2794553  23.2171336
  67.2510062  71.9976167  18.3986888  66.3260559  71.8652381  18.6064580
  67.4994476  72.7770386  18.8956830  77.1994725  68.0644910  20.0447621
  76.2911602  67.9960319  19.7506382  77.1482321  68.5416855  20.8729446
  71.0211469  69.5403049  11.6831020  70.9011094  69.9860099  12.5216500
  70.3264057  69.8888366  11.1244558  64.6118874  71.6409440  19.2330677
  64.7411255  71.8943919  20.1470089  63.9316325  72.2337148  18.9135332
  68.7818361  82.3106690  15.3321151  68.7042391  83.2614515  15.4109632
  68.1780004  81.9652563  15.9896078  71.2735591  69.4834556  27.9882518
  70.4968925  70.0428476  27.9785383  71.9126154  69.9691339  28.5097388
  79.0656371  66.2661348  21.8225495  78.4230751  66.5593882  21.1765289
  78.5611300  66.1514269  22.6278692  76.7196535  70.0124522  12.5111354
  77.6314391  70.2451908  12.3359052  76.2106182  70.5961566  11.9486433
  69.5281963  72.2920009  27.5500485  70.2696647  72.8305053  27.2735309
  68.8218948  72.9186298  27.7072037  75.0037303  74.4349150  26.1472647
  75.4120659  73.9931560  25.4027279  74.2814564  73.8601777  26.4006840
  71.3568373  69.3721756  23.5206204  72.2029568  69.7961170  23.6640853
  71.2967010  68.7155381  24.2144767  75.3266117  74.9950340  19.9024936
  74.6974980  75.1596054  19.2001003  74.9391779  75.4091950  20.6735900
  79.2055349  75.9304778  17.2569299  78.5206387  76.3103679  16.7066333
  79.2899198  76.5400105  17.9901247  74.5067818  67.0326125  25.1787377
  74.2628750  67.7868185  24.6421653  74.7827748  67.4111472  26.0134624
  76.4606281  73.5764737  23.8564643  76.6723176  74.2196497  23.1799024
  76.4136029  72.7427054  23.3886573  74.0632510  66.1882558  20.7601215
  73.2016989  66.4863811  21.0517953  74.0894944  66.4052957  19.8282248
  70.8794079  74.7324748  17.1675021  71.3432425  75.0112451  16.3779643
  70.6150877  73.8308193  16.9848111  67.7718160  74.2796230  20.1054784
  68.3419517  74.7083498  19.4672268  68.3626272  73.9978814  20.8038970
  69.8162965  70.8547901  13.9764586  70.5187008  71.3068944  14.4438512
  69.4843594  70.2131719  14.6044479  68.2643327  69.4459657  28.3515795
  67.6341987  70.1275938  28.5851192  68.1579415  69.3342739  27.4068933
  63.5588299  69.1131453  19.2781719  62.7687353  69.3688982  18.8021830
  64.0499546  69.9279791  19.3833760  77.5752109  76.4536692  22.0287000
  78.3969552  76.0516880  21.7469682  77.5714511  76.3504927  22.9803116
  65.5103044  69.4776033  16.2365196  64.7134208  69.5894727  16.7548692
  65.2828637  69.8162685  15.3706087  71.3408712  76.0020736  24.1847711
  71.4053145  76.4641143  25.0205883  70.6319636  75.3718101  24.3130021
  61.8426002  69.3661944  21.7096710  62.0934040  70.2508954  21.9754286
  62.3785550  69.1866545  20.9371802  85.6658102  72.7975441  18.3771972
  84.9121810  72.2282839  18.2215976  85.8005643  72.7638105  19.3242606
  71.0556730  77.6688843  14.0526691  70.9202405  78.5140379  14.4811539
  71.5966542  77.8708121  13.2892625  67.5424069  63.7480423  30.7141046
  67.1491015  63.1946622  31.3888690  68.3590210  64.0591002  31.1047564
  64.5086127  75.1864281  14.6254616  65.0210648  75.9807532  14.7760181
  65.1608840  74.4890572  14.5588218  66.3181012  78.3030038  16.7077369
  66.4947640  79.2248002  16.5198353  67.1137845  77.9888457  17.1371749
  70.4592030  65.1638302  28.3061303  71.2001744  65.7645455  28.2265765
  70.6909953  64.4215940  27.7479345  65.6033368  70.3494669  26.5839532
  65.4886884  69.4479927  26.8846631  64.7477886  70.5958366  26.2324349
  72.6825206  78.2912410  28.1827033  72.2389060  77.5048788  27.8647938
  73.3442420  78.4791560  27.5170924  67.4412327  79.8208211  22.7087712
  67.9919752  79.6925275  21.9364706  66.6023803  80.1203100  22.3582604
  74.7806444  78.5715210  26.2108434  74.7624920  79.3924091  25.7188704
  75.7026364  78.4469285  26.4358576  71.2379498  76.0859339  27.0531943
  71.7707835  75.3247627  26.8231251  70.7093579  75.7932991  27.7956097
  74.4049193  61.1919405  22.5825584  74.0613463  62.0821047  22.5064695
  74.7728156  61.0021063  21.7195169  62.4735044  73.5152936  15.4014187
  63.3110266  73.9249944  15.1847894  62.6513312  72.5752378  15.3714381
  74.3699476  71.1828016  11.0898020  73.8546099  71.9532621  11.3286407
  74.0976784  70.5093152  11.7131081  71.9546587  66.0277717  16.1483258
  71.0988183  65.6384567  15.9688897  72.3673539  66.1069678  15.2883043
  73.4845734  63.5624060  20.5474818  72.9810529  63.5254195  19.7342623
  73.7776341  64.4716803  20.6071474  69.7288620  63.6462790  19.5540999
  70.5941616  63.4505599  19.1946889  69.7966128  63.4173142  20.4810356
  79.3433750  73.9360371  13.0251193  78.5663193  73.5971530  12.5806355
  80.0225231  73.9412994  12.3506158  74.1585779  69.0555108  12.9157801
  73.8535915  69.3701257  13.7667944  75.1116221  69.1336528  12.9585134
  72.6032211  75.2145332  14.5650755  72.0753573  74.4798091  14.2523992
  72.1019714  75.9920008  14.3190723  77.5825057  73.4094352  19.6817801
  76.9248731  74.0993614  19.7697930  78.3865456  73.7990784  20.0251787
  67.3350939  65.8764998  16.9257366  67.9094691  65.6540179  16.1930559
  67.9221921  65.9453692  17.6785968  76.3930516  71.7638725  17.7321743
  76.9062398  72.3968717  18.2343453  77.0431740  71.1639920  17.3665103
  67.6620526  67.9069459  10.9453252  66.8257838  68.2444145  11.2662526
  67.5225295  67.7718439  10.0080389  69.6373606  62.7506247  15.6532436
  68.9838019  62.4355264  15.0289050  69.5954081  62.1281987  16.3792259
  70.7484811  73.0325542   7.5685728  69.8411873  72.8014795   7.7676877
  71.2455843  72.2363161   7.7559709  73.6552890  81.7423049  10.4882414
  72.9814589  82.0454746  11.0967372  74.0418712  82.5452129  10.1387871
  72.8711347  69.2388180  19.9780083  71.9533908  69.4603127  19.8201771
  73.2871490  69.3134491  19.1191791  73.6546394  70.6379596  15.1082764
  74.4018213  71.1500993  14.7989886  73.9237984  70.3163649  15.9687157
  71.9273045  73.1338137  12.0909718  71.0184264  72.8497170  12.1882188
  71.9568128  73.5537215  11.2313025  77.1592312  76.7444726  15.8600885
  76.7054639  75.9035636  15.9166076  76.5286279  77.3806125  16.1975666
  76.1025232  67.6736712  17.0901553  75.3647988  67.1614098  17.4211795
  76.3552005  67.2337094  16.2784830  75.6025251  78.5821223  16.7950704
  75.8948226  79.1426280  16.0763069  76.1123872  78.8749784  17.5503863
  76.2036859  60.4512964  17.6843322  76.5095736  59.5910328  17.3969237
  76.9289464  61.0430584  17.4842316  62.4961215  70.8543651  16.0724920
  62.2985615  70.2613012  15.3475987  61.9407879  70.5495861  16.7900859
  70.4757939  70.7466757  18.1919513  70.5306548  69.7940594  18.1161990
  69.6649141  70.9026196  18.6760812  71.6249132  74.6746880   9.4297796
  71.1868562  73.9582739   8.9703434  72.3659573  74.9022995   8.8682888
  68.4150299  69.3643817  15.9509892  67.6018164  69.6637988  16.3575084
  68.9109293  68.9699506  16.6684374  70.5658877  79.3601574  17.8844157
  70.5235055  79.5862420  16.9552689  71.4821575  79.1264949  18.0329958
  74.0124510  69.8285642  24.7824786  74.3673898  70.0557115  25.6419252
  74.6596642  70.1604018  24.1602041  79.7422247  72.9504077  15.4874115
  79.6040146  73.1405673  14.5595304  79.3858466  73.7123460  15.9442166
  67.9064373  66.9362173  21.5671127  68.5463753  66.7950932  20.8694090
  67.0741904  66.6496686  21.1909729  79.7691627  75.0180604  20.4985387
  80.2028134  74.9255894  21.3468441  80.4823208  74.9938105  19.8605403
  68.6824677  76.2364603  17.6806120  69.4765276  75.7414923  17.4788694
  67.9716370  75.7082466  17.3173825  73.5019522  78.6182699  22.0318487
  73.5556544  79.1873635  22.7996203  72.6334303  78.7884584  21.6672524
  64.9907441  70.3807685  13.7565872  64.0605029  70.3192140  13.9735834
  65.0864913  69.8583638  12.9602513  64.9092990  66.9062498  16.3444114
  65.1699807  67.8207831  16.2353274  65.7310162  66.4386940  16.4940727
  66.3817915  68.3200255  23.5142938  67.0540969  68.1117617  22.8655587
  65.5547702  68.1222341  23.0748171  80.6307176  75.0604305  23.0318272
  80.8243066  75.9650116  23.2777547  80.5307795  74.6011724  23.8656857
  72.2843487  64.9462196  25.5308599  71.6371402  65.6452145  25.4373076
  73.0544503  65.3798340  25.8984847  75.6922285  75.2111048  28.6059153
  75.5407791  74.9821600  27.6889236  75.6826965  76.1681649  28.6190498
  72.4607621  72.7842961  23.5905419  73.3899681  72.9354120  23.4174386
  72.0398652  72.8726981  22.7354065  71.2595953  76.8093625  21.3603957
  71.1207039  76.4412409  22.2329895  70.4710550  77.3241264  21.1887914
  71.8544105  81.9102721  12.7029493  72.0295861  81.4390765  13.5175116
  71.1676893  82.5368488  12.9310754  72.8101168  76.1875228  18.7492794
  72.4751001  76.1475998  19.6450444  72.3105114  75.5219944  18.2763205
  66.7845412  71.5942858  24.2745376  66.6465210  70.8623097  24.8756915
  67.6950336  71.5051758  23.9929563  75.7460360  73.5331262   9.0229854
  75.1289531  72.8078090   8.9262907  75.2776849  74.2940622   8.6796928
  69.4127713  71.3062817  23.7629055  70.1227332  70.6656009  23.7215674
  69.3697021  71.5575712  24.6855236  77.4014492  78.2430170  26.6835634
  77.3427038  77.5589391  26.0166217  77.8034010  78.9849160  26.2316260
  68.1256647  68.2928035  25.5824695  67.5894004  67.8418773  26.2346291
  67.5373355  68.4273944  24.8395159  66.4205191  85.0592084  19.4769353
  66.6601789  85.6910608  20.1548372  65.5774387  84.7080124  19.7634713
  67.5358906  67.7516686   8.1451158  66.6588372  67.6305487   7.7813405
  68.0116659  66.9602765   7.8930047  77.4031899  76.2069754  24.9149614
  76.5158678  75.8695676  25.0376013  77.9730450  75.4752786  25.1518379
  59.0561046  72.5393846  18.2392665  59.7432086  72.2255576  17.6513681
  58.9009175  73.4435211  17.9659917  63.8595768  67.4284043  22.6677689
  63.7753957  66.8209712  21.9328099  63.0378475  67.9193061  22.6687185
  70.9333052  80.8671207  21.8810857  70.8603224  81.6726178  22.3930162
  70.4910446  81.0663173  21.0558879  70.7222832  80.1042977  15.3913679
  69.9390354  80.6464657  15.4851903  71.4215577  80.6216956  15.7907920
  74.0319482  65.9137606  18.0347884  74.5288182  65.1607569  17.7148954
  73.2606464  65.9501923  17.4691094  81.8849240  71.6177972  19.6766176
  81.8739116  72.5002687  19.3060109  81.0166619  71.2649523  19.4820713
  73.3931736  80.7658041  24.0369016  74.1059708  81.4005506  23.9644917
  72.9021765  80.8621907  23.2209018  75.1149263  74.6709293  15.6086308
  74.1805542  74.7910756  15.4391012  75.2925931  73.7681760  15.3446317
  70.6154451  68.0554989  17.7619569  70.2452238  67.5026030  18.4500474
  71.1113543  67.4513123  17.2094569  78.5021814  70.5126613  16.1436342
  78.9682266  71.3454604  16.0696644  78.9529315  70.0471594  16.8481600
  68.4443649  78.5152484  24.8574587  69.1453109  79.1488967  25.0103981
  67.9738764  78.8567216  24.0970226  76.5698045  76.8570434  13.1422494
  76.8457889  76.7427029  14.0516368  75.7002544  76.4587919  13.1034667
  76.4738477  62.8807200  20.1827243  75.5601557  63.1111427  20.3509450
  76.9031578  62.9645644  21.0341275  76.2444935  71.0697092  22.6827137
  75.5916386  71.3172999  22.0279590  76.6225315  70.2561230  22.3489614
  73.2052109  81.1056785  16.7855307  73.3874504  80.2878441  17.2483060
  74.0285095  81.3224477  16.3480197  73.5394275  80.0324970  14.0470356
  74.0682041  79.5217425  13.4340518  73.8022494  79.7167500  14.9115889
  72.2932508  71.8116903  29.1693174  71.6173145  71.7111032  29.8395549
  73.1160142  71.6556116  29.6329171  64.0411368  78.0488839  21.7905689
  64.6264804  77.3032527  21.9233594  63.8436206  78.3592796  22.6742353
  66.8950023  81.0840087  16.8068132  66.2260398  81.5686214  16.3232172
  66.7562892  81.3309307  17.7211510  58.6329022  70.6194439  20.5110133
  58.6713122  70.0858030  21.3047251  58.1269315  70.0929645  19.8921110
  71.0355291  83.1183830  23.4050790  71.5873599  83.2815452  24.1699875
  71.3761485  83.7088268  22.7330815  66.0119785  65.4658980  24.0072675
  66.0761111  66.3273811  23.5950073  65.9486905  64.8532982  23.2745033
  65.4872057  67.5382113  27.6545709  66.1144096  67.1559190  28.2683233
  64.6299976  67.3196314  28.0201402  75.8866166  77.9445088  29.2599445
  76.4306070  78.5575046  28.7654399  75.3053010  78.5024666  29.7766458
  62.2637600  69.3458542  13.5864064  62.5591041  68.4369220  13.5331118
  61.3625636  69.3246281  13.2645066  74.1723679  81.0665806  20.3914472
  74.0474818  80.2655546  19.8825418  74.8302770  81.5611999  19.9028442
  65.7931847  67.4214538  19.5691613  65.0718433  68.0350506  19.4299086
  66.5825103  67.9572303  19.4908259  76.2358587  78.8674826  22.0194022
  75.2888923  78.7480177  21.9472349  76.5841360  77.9797324  22.1020284
  68.5958160  64.7568965  25.8432264  69.1192562  65.0031261  26.6058574
  68.3770494  65.5888999  25.4235402  63.9925441  67.0272639  13.7103389
  63.6638148  66.1470018  13.5278495  64.3464812  66.9720308  14.5979778
  73.2405020  78.6627542  18.2198375  73.0929983  77.7344249  18.4005945
  74.0658514  78.6847633  17.7355450  67.1067265  67.3145609  14.0778867
  67.4463337  67.8431530  13.3557475  67.5539385  67.6526015  14.8537433
  76.8439142  79.4856101  19.3063247  77.7685690  79.2798962  19.1687699
  76.6754446  79.2372502  20.2152589  69.8010705  65.6982660  23.5281935
  69.4607526  64.8990473  23.9302615  69.0949712  65.9984371  22.9558768
  70.4527177  62.7831972  21.9809258  71.2753247  62.3092450  21.8588148
  70.6965241  63.5622456  22.4807944  69.0935412  65.8120231  12.2772160
  69.8143774  66.1901483  11.7735876  68.4700716  66.5309107  12.3807138
  73.2366535  66.5165380  13.2130492  73.4530149  67.3990018  12.9119320
  72.7560602  66.1251593  12.4836134  67.9765756  69.4751093  19.7901236
  67.8310337  69.7891396  20.6825518  67.4990960  70.0935993  19.2372135
  69.8362139  66.4653641  19.8382126  69.8223708  65.5694734  19.5014424
  70.5534567  66.4724305  20.4720412  71.6888270  66.8990981  21.8835253
  71.4306047  67.8208052  21.8819584  71.1573310  66.5021416  22.5735718
  76.6334458  80.0041768  14.6625339  76.8071336  79.4388191  13.9099191
  77.1263350  80.8042663  14.4804829  62.4511418  72.0156437  22.7288898
  61.9064886  72.7916245  22.8609172  63.3290768  72.3627242  22.5708019
  69.2399035  65.3468021  15.1069696  69.3614946  64.4184667  15.3060584
  68.9501077  65.3606707  14.1948012  72.1090225  63.0322932  18.2436416
  72.1311922  63.0962265  17.2888396  72.5258284  62.1927440  18.4376922
  82.4873850  72.7678191  16.2815639  82.9304996  72.0185516  15.8834762
  81.6100360  72.7588327  15.8989371  77.6209631  79.3208533  11.7622237
  78.3160535  79.9415225  11.9809552  77.9632781  78.4703884  12.0374615
  63.2377440  71.1426334  25.6219055  62.4959176  71.2908969  26.2083685
  62.9170184  71.4034599  24.7585804  79.5201054  76.7708238  13.2909568
  80.0452378  77.1095511  12.5658888  79.4323407  75.8355253  13.1072703
  71.1821103  80.6842312  25.4199445  71.4908229  80.4391459  26.2922144
  71.9796585  80.8888950  24.9318315  71.2041715  82.8380221  17.6504821
  70.7646705  82.3456600  18.3437678  71.9549832  82.2953189  17.4096896
  63.6834054  79.0291762  17.6529449  64.5092074  78.7295534  17.2728093
  63.3328106  78.2599385  18.1019238  68.6515587  78.3818230  19.7227123
  68.0295596  77.7188935  19.4229351  69.3220454  78.4079362  19.0400771
  61.8842659  76.9478089  18.6118383  61.0474567  76.5200263  18.4302384
  61.8566304  77.1410532  19.5489174  68.7240114  66.8600018  29.3159629
  68.7728270  67.7362141  28.9337398  69.2662629  66.3177412  28.7431272
  79.2094960  77.4041142  28.5960766  78.4190504  77.3865281  28.0565265
  78.9728315  77.9429435  29.3509802  79.3292835  74.2533608  25.9093494
  79.3790840  74.0883616  26.8509017  79.2206758  73.3860867  25.5191375
  68.2129094  76.9322154  13.1985583  68.3617214  77.6157618  12.5452256
  69.0195537  76.9127244  13.7135039  76.6196597  70.2364536  27.2252801
  77.5206460  70.0971001  26.9336799  76.6944572  70.4018991  28.1650979
  70.9539403  67.6131391  26.0705987  70.0842712  67.9064957  25.7988576
  71.1898883  68.1971836  26.7913251  80.8311032  76.6730550  26.1535516
  80.5395840  77.0360530  26.9898977  80.2183163  75.9597558  25.9748848
  82.0306714  74.2383429  18.6738086  82.8653606  74.6773233  18.8375647
  82.1665843  73.7622083  17.8546332  79.0798220  71.7963164  24.6215574
  79.5552342  71.9890811  23.8134425  78.1563786  71.8522350  24.3758958
  65.9681727  72.9587331  14.2046652  65.7227769  72.0549661  14.4026862
  66.1377641  72.9604482  13.2626130  73.6578437  63.8311008  23.5871408
  74.1760380  64.5672035  23.2617896  73.3033569  64.1375001  24.4218167
  65.2377374  68.6915689  11.7032814  64.5446619  68.7660044  11.0472850
  64.9929126  67.9276033  12.2254331  73.9091031  60.2511290  19.1072304
  74.1892785  59.5834479  19.7332731  74.6941638  60.4440386  18.5946968
  71.7124499  79.4270284  10.6697331  71.1398466  80.0460471  10.2167803
  72.2857293  79.9769646  11.2037253  77.7799889  68.6728924  22.8543880
  78.7317312  68.7727022  22.8756104  77.6103340  67.8807193  23.3641964
  75.8014269  65.7584508  23.0403280  75.2064201  66.0389520  22.3449769
  75.5163965  66.2478408  23.8120022  74.9321759  79.7107434  11.8005913
  75.8652432  79.6452996  12.0038789  74.8444972  80.5463701  11.3420446
  77.5609776  79.0273305   8.7609861  77.4823407  78.6933168   9.6545618
  78.3819443  79.5195073   8.7601333  80.2587967  71.8935044  21.9686179
  80.2264287  70.9551045  22.1545863  80.8688591  71.9719081  21.2352004
  72.0971298  70.7631097   8.0113383  73.0430403  70.6337305   8.0801801
  71.7185543  70.0245759   8.4882811  80.4082455  68.6846087  22.0144462
  79.8921504  67.9004544  21.8274391  81.2922404  68.3564804  22.1790982
  78.0693182  62.4287103  17.9740275  77.8718003  62.1202191  18.8583607
  78.6792888  63.1548742  18.1038205  86.0764517  72.9551051  21.1092216
  86.8067905  72.6936339  21.6699919  85.4671462  72.2179773  21.1494284
  84.1579814  71.0958913  21.7066667  83.4312977  70.9614878  21.0983159
  83.7427101  71.4035742  22.5123385  71.9809990  74.8148843  29.4714040
  72.9013000  74.9927442  29.6654087  71.9459573  73.8704888  29.3193739
  70.2814215  68.6881073   7.9468268  69.3745670  68.3914186   8.0230982
  70.5590196  68.3910891   7.0802555  61.1992155  70.0087437  18.3967315
  60.8794940  69.1552745  18.1041689  60.6525583  70.2236015  19.1525282
  64.9772063  72.7249878  22.1136821  65.1958073  73.6566986  22.1324855
  65.3897837  72.3657852  22.8991625  71.8976281  63.2317963  14.1012510
  71.0877009  62.8865048  14.4767756  72.5860698  62.9225507  14.6900121
  73.8266829  62.3096010  15.7236806  74.3797868  62.7291463  16.3826830
  74.0636915  61.3831758  15.7659762  69.8499928  68.2983084  31.5039570
  69.7496655  69.2477441  31.4351661  69.6321470  67.9701322  30.6315640
  69.0513000  65.5468009   8.0880248  69.9132164  65.8722907   8.3476065
  69.2363344  64.7599505   7.5753313  61.0680415  73.6290348  20.3660436
  60.3743887  73.2144301  19.8530391  61.8153406  73.6710885  19.7693855
  77.2045636  64.4196535  15.2315471  76.6244305  65.0781339  14.8493523
  76.9381569  63.5973880  14.8202888  75.6549202  63.8201593  17.4336791
  76.1548981  63.9318127  16.6251110  76.2984810  63.5162646  18.0737599
  69.7131198  71.7280222  30.3204632  69.2298280  72.5280583  30.5268521
  69.7992137  71.7388167  29.3672076  62.9817158  73.5608602  18.2426451
  62.9587846  73.6596289  17.2908334  63.2917794  74.4073753  18.5643617
  65.6404536  75.6184757  22.3573066  66.5947789  75.5868699  22.2902997
  65.4417059  75.1575381  23.1723292  66.2303918  74.1885873  24.9243863
  67.0496807  74.6829952  24.9478701  66.5040726  73.2717841  24.8961431
  75.9870514  66.5796625  14.2871819  75.0996369  66.8646276  14.0692014
  76.4024503  66.4190389  13.4399096  79.3385050  66.6043146  18.0026158
  80.1145440  67.0939599  18.2750775  78.6133184  67.0301201  18.4598028
  81.7757609  67.3170766  19.0600099  82.3702100  67.0766502  18.3493407
  81.8484193  66.5977896  19.6873635  63.9954765  81.1604377  19.3743264
  63.8609232  80.4004777  18.8081262  63.5786827  81.8845276  18.9072052
  75.1313728  76.3441300   8.3819839  75.8349578  76.5491303   8.9977495
  74.4076376  76.9118062   8.6468922  75.9611538  72.0951161  14.5022109
  75.9046739  72.5519713  13.6629741  76.5139880  71.3341846  14.3244952
  79.7716344  67.8840893  15.3272229  79.5153278  67.4837529  16.1580436
  79.1469212  68.5984687  15.2022368  84.0828682  70.6236967  17.8343520
  83.5228240  70.6930156  18.6075082  83.4772185  70.4477951  17.1143016
  67.1523890  82.0573694  19.5861706  67.0356275  83.0019126  19.4840397
  66.3316337  81.7547255  19.9747505  77.0400425  76.7823829  10.4318299
  77.8746029  76.3505028  10.2495774  76.8784768  76.6105843  11.3595193
  76.6946317  73.2855943  11.7974638  76.6395121  73.1200214  10.8563082
  76.0692372  73.9931976  11.9536828  61.4838832  68.5224007  25.6236060
  62.1297696  68.0122961  26.1123286  61.2755983  69.2592689  26.1979486
  74.0092224  75.5904854  31.1228201  74.8783384  75.7645507  30.7614836
  73.5298976  76.4099271  31.0003930  70.0042443  62.7864052  11.3759957
  69.9921112  63.7305892  11.5328228  70.8965864  62.6034197  11.0819418
  68.1778405  82.7101956  22.8017635  69.0805651  82.7425566  23.1184130
  67.9515775  81.7802406  22.8163970  69.9332007  81.4632942  19.4627713
  68.9827638  81.4634804  19.3492086  70.2364493  80.7165677  18.9463748
  73.8194562  59.3806828  15.6305893  73.0526958  58.8265315  15.7762576
  74.2305267  59.4528697  16.4920045  65.8236323  65.6691624  29.7211075
  66.6867785  65.3128429  29.9314399  65.2501734  65.3305519  30.4086479
  85.6684700  87.2993480  20.5273476  86.3063110  87.1800228  19.8236816
  85.5505543  88.2474324  20.5861428  82.4774406  87.2520909  20.4635000
  82.1392918  87.1361973  19.5755535  83.3464174  86.8512074  20.4436007
  78.3361222  89.1056385  16.4531891  77.7726087  89.0146322  15.6848179
  78.2213617  88.2856289  16.9334384  82.9594189  88.4055760  26.4221206
  82.9482830  88.0108559  25.5501710  83.1214829  87.6721833  27.0154977
  75.8825654  90.6007577  19.2916112  76.6746946  90.2598401  18.8762411
  76.1222304  90.7102552  20.2118265  83.9160781  92.7727353  11.7646356
  83.2648760  93.3581433  11.3780370  84.7105144  93.3033548  11.8241394
  77.8416408  89.8616490  12.1633491  78.6147284  89.3145477  12.0246366
  78.1941807  90.7260739  12.3747952  79.6801450  91.1892872  25.3700390
  79.3891316  92.0938503  25.2547056  80.3158435  91.2309400  26.0844459
  80.6057657  88.5669721  21.9601750  81.2021230  88.3425743  21.2458712
  80.6632629  87.8254466  22.5627197  80.1782686  86.0209156   9.7951941
  80.4308206  85.4990677   9.0335404  79.2407245  85.8575301   9.8978624
  85.2225968  85.0244934  17.6026684  86.0089058  84.6064357  17.2517101
  85.4864673  85.9291026  17.7708332  85.3936046  90.4617785  12.3015341
  84.7581879  90.5352411  13.0136245  85.0633452  91.0511383  11.6234420
  90.6234396  84.9620167  18.5059662  91.3559568  84.3919384  18.7397492
  89.8673751  84.5741768  18.9466168  79.8978974  87.9237262  11.9976315
  79.7815233  87.2482165  12.6657400  80.0081234  87.4369636  11.1808469
  82.2410515  87.3847409  15.7023005  81.8768723  86.8578030  16.4135926
  83.0977631  86.9945878  15.5289490  88.1459816  78.6741742  22.9654271
  87.8143141  79.5437153  22.7415486  87.5505429  78.3578026  23.6448301
  81.8816002  82.4137309  10.6984353  82.0490405  83.2817545  11.0654824
  81.6913171  82.5764590   9.7745642  84.6391336  90.8754288  22.3650184
  84.3392059  91.7779326  22.2565991  84.2942395  90.6086471  23.2171336
  78.0903817  87.3268084  18.3986888  77.1654313  87.1944299  18.6064580
  78.3388230  88.1062304  18.8956830  88.0388479  83.3936828  20.0447621
  87.1305357  83.3252236  19.7506382  87.9876075  83.8708773  20.8729446
  81.8605223  84.8694966  11.6831020  81.7404848  85.3152017  12.5216500
  81.1657812  85.2180284  11.1244558  75.4512628  86.9701358  19.2330677
  75.5805009  87.2235837  20.1470089  74.7710079  87.5629066  18.9135332
  79.6212115  97.6398608  15.3321151  79.5436145  98.5906433  15.4109632
  79.0173759  97.2944480  15.9896078  82.1129345  84.8126473  27.9882518
  81.3362679  85.3720394  27.9785383  82.7519908  85.2983256  28.5097388
  87.5590289  85.3416439  12.5111354  88.4708145  85.5743826  12.3359052
  87.0499936  85.9253484  11.9486433  80.3675717  87.6211927  27.5500485
  81.1090402  88.1596971  27.2735309  79.6612703  88.2478215  27.7072037
  85.8431057  89.7641067  26.1472647  86.2514413  89.3223478  25.4027279
  85.1208319  89.1893695  26.4006840  82.1962127  84.7013674  23.5206204
  83.0423322  85.1253088  23.6640853  82.1360765  84.0447298  24.2144767
  86.1659872  90.3242258  19.9024936  85.5368734  90.4887972  19.2001003
  85.7785534  90.7383867  20.6735900  90.0449104  91.2596696  17.2569299
  89.3600142  91.6395597  16.7066333  90.1292953  91.8692022  17.9901247
  85.3461572  82.3618042  25.1787377  85.1022504  83.1160103  24.6421653
  85.6221503  82.7403390  26.0134624  87.3000035  88.9056655  23.8564643
  87.5116930  89.5488415  23.1799024  87.2529783  88.0718971  23.3886573
  84.9026264  81.5174475  20.7601215  84.0410743  81.8155729  21.0517953
  84.9288699  81.7344874  19.8282248  81.7187834  90.0616666  17.1675021
  82.1826179  90.3404369  16.3779643  81.4544632  89.1600110  16.9848111
  78.6111915  89.6088147  20.1054784  79.1813272  90.0375416  19.4672268
  79.2020026  89.3270732  20.8038970  80.6556720  86.1839818  13.9764586
  81.3580763  86.6360862  14.4438512  80.3237348  85.5423637  14.6044479
  79.1037081  84.7751575  28.3515795  78.4735742  85.4567856  28.5851192
  78.9973169  84.6634657  27.4068933  74.3982054  84.4423371  19.2781719
  73.6081108  84.6980899  18.8021830  74.8893301  85.2571709  19.3833760
  88.4145863  91.7828610  22.0287000  89.2363307  91.3808797  21.7469682
  88.4108266  91.6796844  22.9803116  76.3496799  84.8067950  16.2365196
  75.5527962  84.9186644  16.7548692  76.1222391  85.1454602  15.3706087
  82.1802467  91.3312653  24.1847711  82.2446899  91.7933061  25.0205883
  81.4713390  90.7010018  24.3130021  72.6819757  84.6953861  21.7096710
  72.9327795  85.5800871  21.9754286  73.2179305  84.5158463  20.9371802
  96.5051856  88.1267359  18.3771972  95.7515565  87.5574757  18.2215976
  96.6399397  88.0930023  19.3242606  81.8950484  92.9980761  14.0526691
  81.7596159  93.8432297  14.4811539  82.4360297  93.2000039  13.2892625
  78.3817824  79.0772341  30.7141046  77.9884769  78.5238539  31.3888690
  79.1983964  79.3882919  31.1047564  75.3479882  90.5156199  14.6254616
  75.8604402  91.3099449  14.7760181  76.0002594  89.8182489  14.5588218
  77.1574766  93.6321955  16.7077369  77.3341395  94.5539920  16.5198353
  77.9531600  93.3180374  17.1371749  81.2985785  80.4930220  28.3061303
  82.0395498  81.0937373  28.2265765  81.5303708  79.7507858  27.7479345
  76.4427123  85.6786587  26.5839532  76.3280638  84.7771844  26.8846631
  75.5871641  85.9250284  26.2324349  83.5218961  93.6204327  28.1827033
  83.0782815  92.8340706  27.8647938  84.1836174  93.8083478  27.5170924
  78.2806082  95.1500129  22.7087712  78.8313507  95.0217192  21.9364706
  77.4417558  95.4495018  22.3582604  85.6200199  93.9007127  26.2108434
  85.6018674  94.7216008  25.7188704  86.5420119  93.7761203  26.4358576
  82.0773253  91.4151257  27.0531943  82.6101590  90.6539545  26.8231251
  81.5487334  91.1224909  27.7956097  85.2442948  76.5211323  22.5825584
  84.9007217  77.4112964  22.5064695  85.6121910  76.3312980  21.7195169
  73.3128798  88.8444853  15.4014187  74.1504020  89.2541862  15.1847894
  73.4907066  87.9044295  15.3714381  85.2093231  86.5119934  11.0898020
  84.6939854  87.2824539  11.3286407  84.9370539  85.8385070  11.7131081
  82.7940342  81.3569635  16.1483258  81.9381938  80.9676485  15.9688897
  83.2067293  81.4361595  15.2883043  84.3239488  78.8915978  20.5474818
  83.8204284  78.8546113  19.7342623  84.6170095  79.8008721  20.6071474
  80.5682374  78.9754708  19.5540999  81.4335371  78.7797516  19.1946889
  80.6359883  78.7465059  20.4810356  90.1827505  89.2652289  13.0251193
  89.4056947  88.9263448  12.5806355  90.8618986  89.2704912  12.3506158
  84.9979534  84.3847026  12.9157801  84.6929669  84.6993175  13.7667944
  85.9509976  84.4628446  12.9585134  83.4425966  90.5437249  14.5650755
  82.9147327  89.8090009  14.2523992  82.9413468  91.3211926  14.3190723
  88.4218812  88.7386270  19.6817801  87.7642486  89.4285531  19.7697930
  89.2259211  89.1282702  20.0251787  78.1744693  81.2056916  16.9257366
  78.7488445  80.9832097  16.1930559  78.7615676  81.2745610  17.6785968
  87.2324270  87.0930642  17.7321743  87.7456152  87.7260634  18.2343453
  87.8825494  86.4931838  17.3665103  78.5014280  83.2361377  10.9453252
  77.6651593  83.5736063  11.2662526  78.3619050  83.1010356  10.0080389
  80.4767361  78.0798164  15.6532436  79.8231773  77.7647182  15.0289050
  80.4347835  77.4573905  16.3792259  81.5878566  88.3617460   7.5685728
  80.6805627  88.1306713   7.7676877  82.0849598  87.5655079   7.7559709
  84.4946645  97.0714967  10.4882414  83.8208343  97.3746664  11.0967372
  84.8812467  97.8744047  10.1387871  83.7105101  84.5680098  19.9780083
  82.7927663  84.7895045  19.8201771  84.1265245  84.6426409  19.1191791
  84.4940149  85.9671514  15.1082764  85.2411968  86.4792911  14.7989886
  84.7631739  85.6455566  15.9687157  82.7666799  88.4630054  12.0909718
  81.8578018  88.1789087  12.1882188  82.7961883  88.8829133  11.2313025
  87.9986067  92.0736644  15.8600885  87.5448394  91.2327554  15.9166076
  87.3680033  92.7098042  16.1975666  86.9418986  83.0028630  17.0901553
  86.2041743  82.4906016  17.4211795  87.1945760  82.5629012  16.2784830
  86.4419006  93.9113141  16.7950704  86.7341980  94.4718198  16.0763069
  86.9517626  94.2041702  17.5503863  87.0430613  75.7804882  17.6843322
  87.3489490  74.9202245  17.3969237  87.7683218  76.3722502  17.4842316
  73.3354970  86.1835569  16.0724920  73.1379369  85.5904929  15.3475987
  72.7801634  85.8787779  16.7900859  81.3151693  86.0758675  18.1919513
  81.3700303  85.1232511  18.1161990  80.5042895  86.2318114  18.6760812
  82.4642887  90.0038798   9.4297796  82.0262317  89.2874657   8.9703434
  83.2053328  90.2314913   8.8682888  79.2544053  84.6935735  15.9509892
  78.4411919  84.9929905  16.3575084  79.7503047  84.2991424  16.6684374
  81.4052631  94.6893492  17.8844157  81.3628810  94.9154338  16.9552689
  82.3215330  94.4556866  18.0329958  84.8518265  85.1577559  24.7824786
  85.2067653  85.3849032  25.6419252  85.4990396  85.4895936  24.1602041
  90.5816002  88.2795995  15.4874115  90.4433900  88.4697591  14.5595304
  90.2252221  89.0415378  15.9442166  78.7458128  82.2654090  21.5671127
  79.3857507  82.1242849  20.8694090  77.9135658  81.9788604  21.1909729
  90.6085381  90.3472522  20.4985387  91.0421888  90.2547811  21.3468441
  91.3216962  90.3230023  19.8605403  79.5218432  91.5656521  17.6806120
  80.3159030  91.0706841  17.4788694  78.8110124  91.0374384  17.3173825
  84.3413276  93.9474616  22.0318487  84.3950299  94.5165553  22.7996203
  83.4728058  94.1176501  21.6672524  75.8301195  85.7099602  13.7565872
  74.8998783  85.6484058  13.9735834  75.9258667  85.1875555  12.9602513
  75.7486744  82.2354415  16.3444114  76.0093562  83.1499749  16.2353274
  76.5703917  81.7678858  16.4940727  77.2211670  83.6492172  23.5142938
  77.8934723  83.4409535  22.8655587  76.3941456  83.4514258  23.0748171
  91.4700931  90.3896223  23.0318272  91.6636821  91.2942033  23.2777547
  91.3701549  89.9303642  23.8656857  83.1237242  80.2754113  25.5308599
  82.4765157  80.9744063  25.4373076  83.8938257  80.7090257  25.8984847
  86.5316040  90.5402966  28.6059153  86.3801546  90.3113517  27.6889236
  86.5220719  91.4973567  28.6190498  83.3001376  88.1134878  23.5905419
  84.2293436  88.2646038  23.4174386  82.8792406  88.2018899  22.7354065
  82.0989708  92.1385543  21.3603957  81.9600793  91.7704327  22.2329895
  81.3104304  92.6533182  21.1887914  82.6937860  97.2394639  12.7029493
  82.8689615  96.7682682  13.5175116  82.0070648  97.8660405  12.9310754
  83.6494923  91.5167145  18.7492794  83.3144756  91.4767915  19.6450444
  83.1498869  90.8511861  18.2763205  77.6239167  86.9234775  24.2745376
  77.4858965  86.1915014  24.8756915  78.5344090  86.8343676  23.9929563
  86.5854115  88.8623180   9.0229854  85.9683285  88.1370008   8.9262907
  86.1170603  89.6232540   8.6796928  80.2521468  86.6354735  23.7629055
  80.9621086  85.9947927  23.7215674  80.2090776  86.8867630  24.6855236
  88.2408246  93.5722088  26.6835634  88.1820792  92.8881308  26.0166217
  88.6427765  94.3141078  26.2316260  78.9650402  83.6219953  25.5824695
  78.4287759  83.1710691  26.2346291  78.3767110  83.7565861  24.8395159
  77.2598945 100.3884002  19.4769353  77.4995543 101.0202526  20.1548372
  76.4168142 100.0372042  19.7634713  78.3752660  83.0808604   8.1451158
  77.4982127  82.9597405   7.7813405  78.8510414  82.2894682   7.8930047
  88.2425654  91.5361672  24.9149614  87.3552432  91.1987594  25.0376013
  88.8124205  90.8044703  25.1518379  69.8954801  87.8685764  18.2392665
  70.5825840  87.5547494  17.6513681  69.7402929  88.7727128  17.9659917
  74.6989523  82.7575960  22.6677689  74.6147711  82.1501630  21.9328099
  73.8772229  83.2484979  22.6687185  81.7726807  96.1963124  21.8810857
  81.6996978  97.0018096  22.3930162  81.3304200  96.3955090  21.0558879
  81.5616587  95.4334894  15.3913679  80.7784108  95.9756575  15.4851903
  82.2609332  95.9508874  15.7907920  84.8713237  81.2429524  18.0347884
  85.3681936  80.4899486  17.7148954  84.1000218  81.2793841  17.4691094
  92.7242994  86.9469889  19.6766176  92.7132870  87.8294605  19.3060109
  91.8560373  86.5941440  19.4820713  84.2325490  96.0949958  24.0369016
  84.9453463  96.7297423  23.9644917  83.7415519  96.1913824  23.2209018
  85.9543017  90.0001211  15.6086308  85.0199296  90.1202674  15.4391012
  86.1319686  89.0973678  15.3446317  81.4548205  83.3846907  17.7619569
  81.0845993  82.8317947  18.4500474  81.9507298  82.7805040  17.2094569
  89.3415569  85.8418530  16.1436342  89.8076021  86.6746522  16.0696644
  89.7923069  85.3763512  16.8481600  79.2837404  93.8444402  24.8574587
  79.9846863  94.4780885  25.0103981  78.8132519  94.1859133  24.0970226
  87.4091800  92.1862352  13.1422494  87.6851644  92.0718946  14.0516368
  86.5396299  91.7879837  13.1034667  87.3132231  78.2099117  20.1827243
  86.3995311  78.4403344  20.3509450  87.7425333  78.2937561  21.0341275
  87.0838690  86.3989009  22.6827137  86.4310140  86.6464917  22.0279590
  87.4619070  85.5853148  22.3489614  84.0445864  96.4348703  16.7855307
  84.2268258  95.6170358  17.2483060  84.8678850  96.6516395  16.3480197
  84.3788029  95.3616888  14.0470356  84.9075796  94.8509342  13.4340518
  84.6416249  95.0459418  14.9115889  83.1326263  87.1408820  29.1693174
  82.4566900  87.0402950  29.8395549  83.9553897  86.9848034  29.6329171
  74.8805122  93.3780757  21.7905689  75.4658559  92.6324445  21.9233594
  74.6829960  93.6884714  22.6742353  77.7343777  96.4132004  16.8068132
  77.0654152  96.8978132  16.3232172  77.5956647  96.6601225  17.7211510
  69.4722777  85.9486357  20.5110133  69.5106876  85.4149948  21.3047251
  68.9663070  85.4221563  19.8921110  81.8749046  98.4475748  23.4050790
  82.4267354  98.6107369  24.1699875  82.2155239  99.0380186  22.7330815
  76.8513539  80.7950898  24.0072675  76.9154866  81.6565729  23.5950073
  76.7880659  80.1824899  23.2745033  76.3265812  82.8674030  27.6545709
  76.9537850  82.4851107  28.2683233  75.4693730  82.6488232  28.0201402
  86.7259920  93.2737005  29.2599445  87.2699824  93.8866964  28.7654399
  86.1446765  93.8316584  29.7766458  73.1031354  84.6750459  13.5864064
  73.3984795  83.7661138  13.5331118  72.2019390  84.6538199  13.2645066
  85.0117433  96.3957723  20.3914472  84.8868573  95.5947463  19.8825418
  85.6696524  96.8903917  19.9028442  76.6325601  82.7506456  19.5691613
  75.9112187  83.3642424  19.4299086  77.4218857  83.2864221  19.4908259
  87.0752341  94.1966743  22.0194022  86.1282677  94.0772095  21.9472349
  87.4235115  93.3089241  22.1020284  79.4351915  80.0860882  25.8432264
  79.9586317  80.3323179  26.6058574  79.2164248  80.9180917  25.4235402
  74.8319196  82.3564557  13.7103389  74.5031902  81.4761936  13.5278495
  75.1858567  82.3012226  14.5979778  84.0798775  93.9919460  18.2198375
  83.9323737  93.0636167  18.4005945  84.9052268  94.0139550  17.7355450
  77.9461019  82.6437527  14.0778867  78.2857092  83.1723448  13.3557475
  78.3933140  82.9817933  14.8537433  87.6832897  94.8148018  19.3063247
  88.6079444  94.6090880  19.1687699  87.5148200  94.5664420  20.2152589
  80.6404460  81.0274577  23.5281935  80.3001280  80.2282391  23.9302615
  79.9343466  81.3276288  22.9558768  81.2920932  78.1123890  21.9809258
  82.1147001  77.6384368  21.8588148  81.5358995  78.8914374  22.4807944
  79.9329166  81.1412148  12.2772160  80.6537529  81.5193401  11.7735876
  79.3094470  81.8601025  12.3807138  84.0760289  81.8457297  13.2130492
  84.2923903  82.7281935  12.9119320  83.5954356  81.4543511  12.4836134
  78.8159510  84.8043011  19.7901236  78.6704091  85.1183314  20.6825518
  78.3384714  85.4227911  19.2372135  80.6755893  81.7945559  19.8382126
  80.6617462  80.8986652  19.5014424  81.3928321  81.8016222  20.4720412
  82.5282024  82.2282899  21.8835253  82.2699802  83.1499969  21.8819584
  81.9967064  81.8313333  22.5735718  87.4728213  95.3333686  14.6625339
  87.6465090  94.7680108  13.9099191  87.9657104  96.1334581  14.4804829
  73.2905173  87.3448355  22.7288898  72.7458641  88.1208163  22.8609172
  74.1684522  87.6919159  22.5708019  80.0792789  80.6759939  15.1069696
  80.2008700  79.7476585  15.3060584  79.7894832  80.6898625  14.1948012
  82.9483980  78.3614849  18.2436416  82.9705676  78.4254182  17.2888396
  83.3652039  77.5219358  18.4376922  93.3267604  88.0970109  16.2815639
  93.7698750  87.3477434  15.8834762  92.4494114  88.0880245  15.8989371
  88.4603385  94.6500450  11.7622237  89.1554290  95.2707143  11.9809552
  88.8026535  93.7995801  12.0374615  74.0771194  86.4718251  25.6219055
  73.3352931  86.6200887  26.2083685  73.7563939  86.7326517  24.7585804
  90.3594808  92.1000156  13.2909568  90.8846133  92.4387429  12.5658888
  90.2717161  91.1647171  13.1072703  82.0214857  96.0134229  25.4199445
  82.3301984  95.7683376  26.2922144  82.8190339  96.2180868  24.9318315
  82.0435469  98.1672139  17.6504821  81.6040459  97.6748518  18.3437678
  82.7943586  97.6245107  17.4096896  74.5227808  94.3583680  17.6529449
  75.3485828  94.0587452  17.2728093  74.1721860  93.5891302  18.1019238
  79.4909341  93.7110148  19.7227123  78.8689351  93.0480853  19.4229351
  80.1614208  93.7371280  19.0400771  72.7236413  92.2770006  18.6118383
  71.8868322  91.8492181  18.4302384  72.6960059  92.4702450  19.5489174
  79.5633869  82.1891936  29.3159629  79.6122024  83.0654059  28.9337398
  80.1056383  81.6469329  28.7431272  90.0488715  92.7333059  28.5960766
  89.2584258  92.7157198  28.0565265  89.8122069  93.2721353  29.3509802
  90.1686590  89.5825526  25.9093494  90.2184594  89.4175533  26.8509017
  90.0600513  88.7152785  25.5191375  79.0522848  92.2614071  13.1985583
  79.2010969  92.9449536  12.5452256  79.8589292  92.2419162  13.7135039
  81.7933157  82.9423309  26.0705987  80.9236467  83.2356875  25.7988576
  82.0292638  83.5263754  26.7913251  91.6704786  92.0022467  26.1535516
  91.3789595  92.3652448  26.9898977  91.0576918  91.2889476  25.9748848
  92.8700469  89.5675347  18.6738086  93.7047360  90.0065151  18.8375647
  93.0059597  89.0914000  17.8546332  76.8075481  88.2879249  14.2046652
  76.5621523  87.3841579  14.4026862  76.9771396  88.2896400  13.2626130
  84.4972191  79.1602926  23.5871408  85.0154135  79.8963952  23.2617896
  84.1427324  79.4666919  24.4218167  76.0771129  84.0207607  11.7032814
  75.3840374  84.0951962  11.0472850  75.8322881  83.2567950  12.2254331
  84.7484785  75.5803208  19.1072304  85.0286539  74.9126397  19.7332731
  85.5335392  75.7732304  18.5946968  82.5518254  94.7562202  10.6697331
  81.9792221  95.3752389  10.2167803  83.1251047  95.3061564  11.2037253
  86.6408023  81.0876425  23.0403280  86.0457955  81.3681438  22.3449769
  86.3557720  81.5770326  23.8120022  85.7715514  95.0399352  11.8005913
  86.7046187  94.9744914  12.0038789  85.6838726  95.8755619  11.3420446
  88.4003530  94.3565222   8.7609861  88.3217162  94.0225086   9.6545618
  89.2213197  94.8486990   8.7601333  91.0981721  87.2226962  21.9686179
  91.0658042  86.2842962  22.1545863  91.7082345  87.3010998  21.2352004
  82.9365052  86.0923015   8.0113383  83.8824157  85.9629223   8.0801801
  82.5579297  85.3537677   8.4882811  88.9086937  77.7579021  17.9740275
  88.7111758  77.4494109  18.8583607  89.5186642  78.4840660  18.1038205
  96.9158271  88.2842969  21.1092216  97.6461660  88.0228257  21.6699919
  96.3065217  87.5471690  21.1494284  94.9973568  86.4250831  21.7066667
  94.2706732  86.2906796  21.0983159  94.5820855  86.7327660  22.5123385
  82.8203745  90.1440761  29.4714040  83.7406754  90.3219360  29.6654087
  82.7853328  89.1996806  29.3193739  81.1207969  84.0172991   7.9468268
  80.2139425  83.7206104   8.0230982  81.3983950  83.7202809   7.0802555
  72.0385910  85.3379354  18.3967315  71.7188694  84.4844663  18.1041689
  71.4919338  85.5527933  19.1525282  75.8165817  88.0541795  22.1136821
  76.0351827  88.9858903  22.1324855  76.2291591  87.6949770  22.8991625
  82.7370035  78.5609881  14.1012510  81.9270763  78.2156966  14.4767756
  83.4254452  78.2517425  14.6900121  84.6660583  77.6387928  15.7236806
  85.2191622  78.0583381  16.3826830  84.9030670  76.7123676  15.7659762
  79.8906754  80.8759926   8.0880248  80.7525918  81.2014825   8.3476065
  80.0757098  80.0891422   7.5753313  71.9074170  88.9582266  20.3660436
  71.2137641  88.5436219  19.8530391  72.6547161  89.0002802  19.7693855
  88.0439391  79.7488453  15.2315471  87.4638060  80.4073257  14.8493523
  87.7775323  78.9265797  14.8202888  86.4942957  79.1493510  17.4336791
  86.9942735  79.2610045  16.6251110  87.1378565  78.8454563  18.0737599
  80.5524953  87.0572140  30.3204632  80.0692034  87.8572500  30.5268521
  80.6385892  87.0680085  29.3672076  73.8210912  88.8900520  18.2426451
  73.7981600  88.9888207  17.2908334  74.1311549  89.7365671  18.5643617
  76.4798290  90.9476675  22.3573066  77.4341544  90.9160617  22.2902997
  76.2810814  90.4867299  23.1723292  77.0697672  89.5177791  24.9243863
  77.8890561  90.0121870  24.9478701  77.3434480  88.6009759  24.8961431
  86.8264269  81.9088543  14.2871819  85.9390124  82.1938194  14.0692014
  87.2418258  81.7482307  13.4399096  90.1778805  81.9335064  18.0026158
  90.9539195  82.4231517  18.2750775  89.4526939  82.3593118  18.4598028
  92.6151363  82.6462683  19.0600099  93.2095854  82.4058419  18.3493407
  92.6877947  81.9269814  19.6873635  74.8348519  96.4896294  19.3743264
  74.7002987  95.7296695  18.8081262  74.4180581  97.2137194  18.9072052
  85.9707482  91.6733218   8.3819839  86.6743332  91.8783220   8.9977495
  85.2470131  92.2409980   8.6468922  86.8005292  87.4243079  14.5022109
  86.7440494  87.8811630  13.6629741  87.3533635  86.6633764  14.3244952
  90.6110098  83.2132811  15.3272229  90.3547032  82.8129447  16.1580436
  89.9862966  83.9276605  15.2022368  94.9222436  85.9528884  17.8343520
  94.3621994  86.0222074  18.6075082  94.3165939  85.7769869  17.1143016
  77.9917645  97.3865611  19.5861706  77.8750029  98.3311044  19.4840397
  77.1710091  97.0839173  19.9747505  87.8794179  92.1115747  10.4318299
  88.7139783  91.6796945  10.2495774  87.7178522  91.9397761  11.3595193
  87.5340072  88.6147860  11.7974638  87.4788875  88.4492132  10.8563082
  86.9086127  89.3223893  11.9536828  72.3232587  83.8515925  25.6236060
  72.9691450  83.3414879  26.1123286  72.1149738  84.5884606  26.1979486
  84.8485979  90.9196772  31.1228201  85.7177138  91.0937424  30.7614836
  84.3692730  91.7391189  31.0003930  80.8436197  78.1155969  11.3759957
  80.8314867  79.0597809  11.5328228  81.7359619  77.9326115  11.0819418
  79.0172159  98.0393873  22.8017635  79.9199406  98.0717483  23.1184130
  78.7909529  97.1094324  22.8163970  80.7725761  96.7924860  19.4627713
  79.8221392  96.7926721  19.3492086  81.0758247  96.0457594  18.9463748
  84.6588317  74.7098746  15.6305893  83.8920712  74.1557233  15.7762576
  85.0699021  74.7820615  16.4920045  76.6630078  80.9983542  29.7211075
  77.5261539  80.6420347  29.9314399  76.0895488  80.6597437  30.4086479
  96.5078455 102.6285398  20.5273476  97.1456864 102.5092145  19.8236816
  96.3899297 103.5766242  20.5861428  93.3168161 102.5812826  20.4635000
  92.9786672 102.4653891  19.5755535  94.1857929 102.1803991  20.4436007
  89.1754976 104.4348303  16.4531891  88.6119842 104.3438240  15.6848179
  89.0607372 103.6148207  16.9334384  93.7987944 103.7347678  26.4221206
  93.7876585 103.3400476  25.5501710  93.9608583 103.0013751  27.0154977
  86.7219408 105.9299494  19.2916112  87.5140700 105.5890319  18.8762411
  86.9616059 106.0394469  20.2118265  88.6810162 105.1908407  12.1633491
  89.4541038 104.6437395  12.0246366  89.0335561 106.0552657  12.3747952
  90.5195205 106.5184790  25.3700390  90.2285071 107.4230421  25.2547056
  91.1552189 106.5601317  26.0844459  91.4451412 103.8961638  21.9601750
  92.0414984 103.6717661  21.2458712  91.5026383 103.1546384  22.5627197
  96.0619723 100.3536852  17.6026684  96.8482812  99.9356275  17.2517101
  96.3258427 101.2582944  17.7708332 101.4628150 100.2912085  18.5059662
 102.1953322  99.7211302  18.7397492 100.7067506  99.9033686  18.9466168
  90.7372729 103.2529180  11.9976315  90.6208987 102.5774083  12.6657400
  90.8474989 102.7661553  11.1808469  93.0804270 102.7139327  15.7023005
  92.7162477 102.1869948  16.4135926  93.9371386 102.3237796  15.5289490
  98.9853570  94.0033659  22.9654271  98.6536895  94.8729070  22.7415486
  98.3899184  93.6869943  23.6448301  92.7209757  97.7429226  10.6984353
  92.8884159  98.6109463  11.0654824  92.5306926  97.9056508   9.7745642
  95.4785090 106.2046205  22.3650184  95.1785813 107.1071244  22.2565991
  95.1336150 105.9378388  23.2171336  88.9297571 102.6560002  18.3986888
  88.0048068 102.5236216  18.6064580  89.1781985 103.4354221  18.8956830
  98.8782234  98.7228745  20.0447621  97.9699111  98.6544154  19.7506382
  98.8269830  99.2000690  20.8729446  92.6998978 100.1986884  11.6831020
  92.5798603 100.6443935  12.5216500  92.0051566 100.5472202  11.1244558
  86.2906383 102.2993276  19.2330677  86.4198764 102.5527755  20.1470089
  85.6103834 102.8920984  18.9135332  92.9523100 100.1418391  27.9882518
  92.1756434 100.7012311  27.9785383  93.5913663 100.6275174  28.5097388
 100.7443880  96.9245184  21.8225495 100.1018260  97.2177717  21.1765289
 100.2398809  96.8098104  22.6278692  91.2069472 102.9503844  27.5500485
  91.9484156 103.4888888  27.2735309  90.5006457 103.5770133  27.7072037
  96.6824812 105.0932985  26.1472647  97.0908168 104.6515395  25.4027279
  95.9602073 104.5185612  26.4006840  93.0355882 100.0305592  23.5206204
  93.8817077 100.4545005  23.6640853  92.9754519  99.3739216  24.2144767
  97.0053626 105.6534175  19.9024936  96.3762489 105.8179890  19.2001003
  96.6179288 106.0675785  20.6735900 100.8842858 106.5888613  17.2569299
 100.1993896 106.9687515  16.7066333 100.9686707 107.1983940  17.9901247
  96.1855327  97.6909960  25.1787377  95.9416259  98.4452021  24.6421653
  96.4615257  98.0695308  26.0134624  98.1393790 104.2348572  23.8564643
  98.3510685 104.8780332  23.1799024  98.0923538 103.4010889  23.3886573
  95.7420019  96.8466393  20.7601215  94.8804498  97.1447647  21.0517953
  95.7682453  97.0636792  19.8282248  92.5581588 105.3908584  17.1675021
  93.0219934 105.6696287  16.3779643  92.2938386 104.4892028  16.9848111
  89.4505669 104.9380065  20.1054784  90.0207026 105.3667333  19.4672268
  90.0413781 104.6562650  20.8038970  91.4950474 101.5131736  13.9764586
  92.1974517 101.9652780  14.4438512  91.1631103 100.8715555  14.6044479
  89.9430836 100.1043493  28.3515795  89.3129496 100.7859773  28.5851192
  89.8366924  99.9926574  27.4068933  85.2375808  99.7715289  19.2781719
  84.4474862 100.0272817  18.8021830  85.7287055 100.5863626  19.3833760
  99.2539618 107.1120528  22.0287000 100.0757061 106.7100715  21.7469682
  99.2502020 107.0088762  22.9803116  87.1890553 100.1359868  16.2365196
  86.3921717 100.2478562  16.7548692  86.9616146 100.4746520  15.3706087
  93.0196221 106.6604571  24.1847711  93.0840654 107.1224978  25.0205883
  92.3107145 106.0301936  24.3130021  83.5213511 100.0245779  21.7096710
  83.7721549 100.9092789  21.9754286  84.0573059  99.8450381  20.9371802
 107.3445611 103.4559276  18.3771972 106.5909319 102.8866674  18.2215976
 107.4793152 103.4221941  19.3242606  89.2211578  94.4064258  30.7141046
  88.8278524  93.8530457  31.3888690  90.0377719  94.7174837  31.1047564
  86.1873636 105.8448117  14.6254616  86.6998157 106.6391367  14.7760181
  86.8396349 105.1474407  14.5588218  87.9968521 108.9613873  16.7077369
  88.1735149 109.8831838  16.5198353  88.7925354 108.6472292  17.1371749
  92.1379539  95.8222138  28.3061303  92.8789253  96.4229291  28.2265765
  92.3697462  95.0799775  27.7479345  87.2820877 101.0078505  26.5839532
  87.1674392 100.1063762  26.8846631  86.4265395 101.2542202  26.2324349
  94.3612715 108.9496245  28.1827033  93.9176569 108.1632624  27.8647938
  95.0229929 109.1375396  27.5170924  89.1199836 110.4792047  22.7087712
  89.6707261 110.3509110  21.9364706  88.2811312 110.7786936  22.3582604
  96.4593953 109.2299045  26.2108434  96.4412429 110.0507926  25.7188704
  97.3813873 109.1053120  26.4358576  92.9167007 106.7443175  27.0531943
  93.4495344 105.9831463  26.8231251  92.3881088 106.4516826  27.7956097
  96.0836702  91.8503240  22.5825584  95.7400972  92.7404882  22.5064695
  96.4515665  91.6604898  21.7195169  84.1522553 104.1736771  15.4014187
  84.9897775 104.5833779  15.1847894  84.3300821 103.2336213  15.3714381
  93.6334096  96.6861552  16.1483258  92.7775692  96.2968403  15.9688897
  94.0461048  96.7653513  15.2883043  95.1633243  94.2207896  20.5474818
  94.6598038  94.1838031  19.7342623  95.4563850  95.1300638  20.6071474
  91.4076129  94.3046625  19.5540999  92.2729125  94.1089434  19.1946889
  91.4753637  94.0756977  20.4810356  95.8373288  99.7138944  12.9157801
  95.5323424 100.0285093  13.7667944  96.7903730  99.7920364  12.9585134
  94.2819720 105.8729167  14.5650755  93.7541082 105.1381927  14.2523992
  93.7807223 106.6503843  14.3190723  99.2612566 104.0678187  19.6817801
  98.6036240 104.7577449  19.7697930 100.0652965 104.4574619  20.0251787
  89.0138448  96.5348833  16.9257366  89.5882200  96.3124015  16.1930559
  89.6009430  96.6037528  17.6785968  98.0718025 102.4222560  17.7321743
  98.5849907 103.0552552  18.2343453  98.7219249 101.8223756  17.3665103
  89.3408035  98.5653294  10.9453252  88.5045347  98.9027981  11.2662526
  89.2012804  98.4302274  10.0080389  91.3161115  93.4090082  15.6532436
  90.6625528  93.0939099  15.0289050  91.2741589  92.7865823  16.3792259
  94.5498856  99.8972016  19.9780083  93.6321417 100.1186963  19.8201771
  94.9658999  99.9718326  19.1191791  95.3333903 101.2963431  15.1082764
  96.0805722 101.8084829  14.7989886  95.6025493 100.9747484  15.9687157
  97.7812741  98.3320548  17.0901553  97.0435497  97.8197934  17.4211795
  98.0339514  97.8920929  16.2784830  97.8824368  91.1096800  17.6843322
  98.1883245  90.2494163  17.3969237  98.6076973  91.7014420  17.4842316
  84.1748724 101.5127486  16.0724920  83.9773124 100.9196847  15.3475987
  83.6195388 101.2079696  16.7900859  92.1545448 101.4050593  18.1919513
  92.2094057 100.4524429  18.1161990  91.3436650 101.5610032  18.6760812
  90.0937808 100.0227652  15.9509892  89.2805673 100.3221823  16.3575084
  90.5896802  99.6283341  16.6684374  92.2446385 110.0185409  17.8844157
  92.2022564 110.2446256  16.9552689  93.1609084 109.7848784  18.0329958
  95.6912019 100.4869477  24.7824786  96.0461407 100.7140950  25.6419252
  96.3384151 100.8187854  24.1602041  89.5851882  97.5946008  21.5671127
  90.2251262  97.4534767  20.8694090  88.7529413  97.3080521  21.1909729
 101.4479136 105.6764440  20.4985387 101.8815642 105.5839729  21.3468441
 102.1610717 105.6521940  19.8605403  90.3612186 106.8948438  17.6806120
  91.1552785 106.3998759  17.4788694  89.6503879 106.3666302  17.3173825
  95.1807031 109.2766534  22.0318487  95.2344053 109.8457470  22.7996203
  94.3121812 109.4468419  21.6672524  86.6694950 101.0391520  13.7565872
  85.7392538 100.9775976  13.9735834  86.7652422 100.5167473  12.9602513
  86.5880499  97.5646333  16.3444114  86.8487316  98.4791666  16.2353274
  87.4097671  97.0970776  16.4940727  88.0605424  98.9784090  23.5142938
  88.7328478  98.7701452  22.8655587  87.2335211  98.7806176  23.0748171
 102.3094685 105.7188140  23.0318272 102.5030575 106.6233951  23.2777547
 102.2095304 105.2595560  23.8656857  93.9630996  95.6046031  25.5308599
  93.3158911  96.3035981  25.4373076  94.7332012  96.0382175  25.8984847
  97.3709794 105.8694883  28.6059153  97.2195300 105.6405435  27.6889236
  97.3614474 106.8265485  28.6190498  94.1395130 103.4426796  23.5905419
  95.0687190 103.5937956  23.4174386  93.7186160 103.5310817  22.7354065
  92.9383462 107.4677460  21.3603957  92.7994548 107.0996245  22.2329895
  92.1498058 107.9825100  21.1887914  94.4888677 106.8459063  18.7492794
  94.1538510 106.8059833  19.6450444  93.9892623 106.1803779  18.2763205
  88.4632921 102.2526693  24.2745376  88.3252719 101.5206932  24.8756915
  89.3737845 102.1635593  23.9929563  91.0915222 101.9646652  23.7629055
  91.8014841 101.3239845  23.7215674  91.0484530 102.2159547  24.6855236
  99.0802001 108.9014006  26.6835634  99.0214547 108.2173226  26.0166217
  99.4821519 109.6432996  26.2316260  89.8044156  98.9511870  25.5824695
  89.2681513  98.5002609  26.2346291  89.2160864  99.0857779  24.8395159
  88.0992700 115.7175920  19.4769353  88.3389298 116.3494444  20.1548372
  87.2561896 115.3663960  19.7634713  89.2146415  98.4100522   8.1451158
  88.3375881  98.2889323   7.7813405  89.6904168  97.6186600   7.8930047
  99.0819408 106.8653590  24.9149614  98.1946187 106.5279511  25.0376013
  99.6517959 106.1336621  25.1518379  80.7348555 103.1977681  18.2392665
  81.4219595 102.8839411  17.6513681  80.5796684 104.1019046  17.9659917
  85.5383277  98.0867878  22.6677689  85.4541466  97.4793548  21.9328099
  84.7165984  98.5776896  22.6687185  92.6120561 111.5255042  21.8810857
  92.5390733 112.3310014  22.3930162  92.1697954 111.7247008  21.0558879
  95.7106991  96.5721442  18.0347884  96.2075691  95.8191404  17.7148954
  94.9393973  96.6085758  17.4691094 103.5636749 102.2761807  19.6766176
 103.5526625 103.1586523  19.3060109 102.6954128 101.9233358  19.4820713
  95.0719245 111.4241876  24.0369016  95.7847217 112.0589341  23.9644917
  94.5809274 111.5205742  23.2209018  96.7936772 105.3293129  15.6086308
  95.8593051 105.4494591  15.4391012  96.9713440 104.4265596  15.3446317
  92.2941960  98.7138825  17.7619569  91.9239747  98.1609865  18.4500474
  92.7901052  98.1096958  17.2094569 100.1809323 101.1710448  16.1436342
 100.6469775 102.0038440  16.0696644 100.6316824 100.7055430  16.8481600
  90.1231158 109.1736320  24.8574587  90.8240618 109.8072803  25.0103981
  89.6526273 109.5151051  24.0970226  98.1525986  93.5391035  20.1827243
  97.2389066  93.7695262  20.3509450  98.5819087  93.6229479  21.0341275
  97.9232444 101.7280927  22.6827137  97.2703895 101.9756834  22.0279590
  98.3012824 100.9145065  22.3489614  93.9720017 102.4700738  29.1693174
  93.2960654 102.3694867  29.8395549  94.7947651 102.3139952  29.6329171
  85.7198876 108.7072675  21.7905689  86.3052313 107.9616363  21.9233594
  85.5223715 109.0176631  22.6742353  88.5737532 111.7423922  16.8068132
  87.9047907 112.2270050  16.3232172  88.4350401 111.9893142  17.7211510
  80.3116531 101.2778275  20.5110133  80.3500631 100.7441866  21.3047251
  79.8056824 100.7513480  19.8921110  92.7142800 113.7767666  23.4050790
  93.2661108 113.9399287  24.1699875  93.0548994 114.3672103  22.7330815
  87.6907294  96.1242815  24.0072675  87.7548620  96.9857646  23.5950073
  87.6274414  95.5116817  23.2745033  87.1659566  98.1965948  27.6545709
  87.7931605  97.8143025  28.2683233  86.3087485  97.9780150  28.0201402
  97.5653675 108.6028923  29.2599445  98.1093579 109.2158881  28.7654399
  96.9840519 109.1608501  29.7766458  83.9425109 100.0042377  13.5864064
  84.2378550  99.0953055  13.5331118  83.0413145  99.9830116  13.2645066
  95.8511188 111.7249641  20.3914472  95.7262327 110.9239381  19.8825418
  96.5090279 112.2195834  19.9028442  87.4719356  98.0798374  19.5691613
  86.7505942  98.6934341  19.4299086  88.2612612  98.6156138  19.4908259
  97.9146096 109.5258661  22.0194022  96.9676431 109.4064012  21.9472349
  98.2628869 108.6381159  22.1020284  90.2745669  95.4152800  25.8432264
  90.7980071  95.6615097  26.6058574  90.0558003  96.2472835  25.4235402
  85.6712950  97.6856475  13.7103389  85.3425657  96.8053854  13.5278495
  86.0252321  97.6304143  14.5979778  94.9192529 109.3211377  18.2198375
  94.7717492 108.3928085  18.4005945  95.7446023 109.3431468  17.7355450
  88.7854774  97.9729444  14.0778867  89.1250846  98.5015366  13.3557475
  89.2326894  98.3109851  14.8537433  98.5226651 110.1439936  19.3063247
  99.4473199 109.9382797  19.1687699  98.3541954 109.8956337  20.2152589
  91.4798214  96.3566495  23.5281935  91.1395035  95.5574308  23.9302615
  90.7737221  96.6568206  22.9558768  92.1314686  93.4415808  21.9809258
  92.9540756  92.9676286  21.8588148  92.3752750  94.2206291  22.4807944
  90.7722921  96.4704066  12.2772160  91.4931283  96.8485319  11.7735876
  90.1488225  97.1892943  12.3807138  94.9154044  97.1749215  13.2130492
  95.1317658  98.0573853  12.9119320  94.4348111  96.7835428  12.4836134
  89.6553265 100.1334928  19.7901236  89.5097846 100.4475231  20.6825518
  89.1778469 100.7519829  19.2372135  91.5149648  97.1237476  19.8382126
  91.5011217  96.2278570  19.5014424  92.2322076  97.1308140  20.4720412
  93.3675779  97.5574816  21.8835253  93.1093556  98.4791887  21.8819584
  92.8360819  97.1605251  22.5735718  84.1298927 102.6740273  22.7288898
  83.5852395 103.4500081  22.8609172  85.0078277 103.0211077  22.5708019
  90.9186544  96.0051856  15.1069696  91.0402455  95.0768503  15.3060584
  90.6288586  96.0190542  14.1948012  93.7877734  93.6906767  18.2436416
  93.8099431  93.7546100  17.2888396  94.2045793  92.8511276  18.4376922
 104.1661358 103.4262026  16.2815639 104.6092505 102.6769352  15.8834762
 103.2887869 103.4172163  15.8989371  84.9164949 101.8010169  25.6219055
  84.1746685 101.9492804  26.2083685  84.5957693 102.0618434  24.7585804
  92.8608612 111.3426147  25.4199445  93.1695738 111.0975294  26.2922144
  93.6584094 111.5472786  24.9318315  92.8829224 113.4964057  17.6504821
  92.4434214 113.0040435  18.3437678  93.6337341 112.9537024  17.4096896
  85.3621563 109.6875598  17.6529449  86.1879583 109.3879369  17.2728093
  85.0115615 108.9183220  18.1019238  90.3303096 109.0402066  19.7227123
  89.7083105 108.3772771  19.4229351  91.0007963 109.0663198  19.0400771
  83.5630168 107.6061924  18.6118383  82.7262076 107.1784098  18.4302384
  83.5353813 107.7994367  19.5489174  90.4027623  97.5183854  29.3159629
  90.4515779  98.3945977  28.9337398  90.9450138  96.9761247  28.7431272
 100.8882469 108.0624977  28.5960766 100.0978013 108.0449116  28.0565265
 100.6515824 108.6013271  29.3509802 101.0080344 104.9117443  25.9093494
 101.0578349 104.7467451  26.8509017 100.8994267 104.0444702  25.5191375
  98.2984106 100.8948371  27.2252801  99.1993969 100.7554836  26.9336799
  98.3732081 101.0602826  28.1650979  92.6326912  98.2715226  26.0705987
  91.7630221  98.5648792  25.7988576  92.8686392  98.8555671  26.7913251
 102.5098541 107.3314385  26.1535516 102.2183349 107.6944366  26.9898977
 101.8970672 106.6181393  25.9748848 103.7094223 104.8967265  18.6738086
 104.5441115 105.3357069  18.8375647 103.8453352 104.4205918  17.8546332
 100.7585729 102.4547000  24.6215574 101.2339851 102.6474646  23.8134425
  99.8351294 102.5106185  24.3758958  87.6469236 103.6171167  14.2046652
  87.4015278 102.7133497  14.4026862  87.8165150 103.6188317  13.2626130
  95.3365946  94.4894843  23.5871408  95.8547889  95.2255870  23.2617896
  94.9821078  94.7958836  24.4218167  86.9164883  99.3499524  11.7032814
  86.2234128  99.4243879  11.0472850  86.6716635  98.5859868  12.2254331
  95.5878540  90.9095126  19.1072304  95.8680294  90.2418315  19.7332731
  96.3729147  91.1024221  18.5946968  99.4587398  99.3312760  22.8543880
 100.4104821  99.4310857  22.8756104  99.2890849  98.5391028  23.3641964
  97.4801778  96.4168343  23.0403280  96.8851710  96.6973356  22.3449769
  97.1951474  96.9062244  23.8120022 101.9375476 102.5518879  21.9686179
 101.9051796 101.6134880  22.1545863 102.5476100 102.6302916  21.2352004
 102.0869964  99.3429923  22.0144462 101.5709013  98.5588379  21.8274391
 102.9709913  99.0148639  22.1790982  99.7480691  93.0870938  17.9740275
  99.5505512  92.7786027  18.8583607 100.3580397  93.8132577  18.1038205
 107.7552026 103.6134886  21.1092216 108.4855414 103.3520174  21.6699919
 107.1458971 102.8763608  21.1494284 105.8367323 101.7542749  21.7066667
 105.1100486 101.6198714  21.0983159 105.4214610 102.0619577  22.5123385
  93.6597499 105.4732678  29.4714040  94.5800509 105.6511278  29.6654087
  93.6247082 104.5288724  29.3193739  82.8779664 100.6671272  18.3967315
  82.5582449  99.8136580  18.1041689  82.3313092 100.8819850  19.1525282
  86.6559572 103.3833713  22.1136821  86.8745582 104.3150821  22.1324855
  87.0685346 103.0241688  22.8991625  93.5763790  93.8901798  14.1012510
  92.7664518  93.5448883  14.4767756  94.2648207  93.5809342  14.6900121
  95.5054338  92.9679845  15.7236806  96.0585377  93.3875299  16.3826830
  95.7424424  92.0415593  15.7659762  91.5287437  98.9566919  31.5039570
  91.4284164  99.9061276  31.4351661  91.3108979  98.6285158  30.6315640
  90.7300509  96.2051844   8.0880248  91.5919673  96.5306742   8.3476065
  90.9150853  95.4183340   7.5753313  82.7467924 104.2874184  20.3660436
  82.0531396 103.8728136  19.8530391  83.4940915 104.3294720  19.7693855
  98.8833145  95.0780370  15.2315471  98.3031814  95.7365174  14.8493523
  98.6169078  94.2557715  14.8202888  97.3336711  94.4785428  17.4336791
  97.8336490  94.5901963  16.6251110  97.9772319  94.1746481  18.0737599
  91.3918707 102.3864058  30.3204632  90.9085789 103.1864418  30.5268521
  91.4779646 102.3972003  29.3672076  84.6604667 104.2192437  18.2426451
  84.6375355 104.3180125  17.2908334  84.9705303 105.0657588  18.5643617
  87.3192045 106.2768592  22.3573066  88.2735298 106.2452535  22.2902997
  87.1204568 105.8159216  23.1723292  87.9091427 104.8469709  24.9243863
  88.7284316 105.3413787  24.9478701  88.1828235 103.9301677  24.8961431
  97.6658023  97.2380461  14.2871819  96.7783878  97.5230111  14.0692014
  98.0812012  97.0774224  13.4399096 101.0172559  97.2626982  18.0026158
 101.7932949  97.7523434  18.2750775 100.2920693  97.6885036  18.4598028
 103.4545118  97.9754601  19.0600099 104.0489609  97.7350337  18.3493407
 103.5271701  97.2561732  19.6873635  85.6742273 111.8188212  19.3743264
  85.5396741 111.0588613  18.8081262  85.2574336 112.5429112  18.9072052
  97.6399047 102.7534997  14.5022109  97.5834248 103.2103548  13.6629741
  98.1927389 101.9925681  14.3244952 101.4503853  98.5424729  15.3272229
 101.1940787  98.1421364  16.1580436 100.8256721  99.2568523  15.2022368
 105.7616191 101.2820802  17.8343520 105.2015749 101.3513991  18.6075082
 105.1559694 101.1061786  17.1143016  88.8311399 112.7157529  19.5861706
  88.7143784 113.6602961  19.4840397  88.0103846 112.4131091  19.9747505
  83.1626341  99.1807842  25.6236060  83.8085205  98.6706796  26.1123286
  82.9543492  99.9176524  26.1979486  95.6879733 106.2488690  31.1228201
  96.5570893 106.4229342  30.7614836  95.2086485 107.0683107  31.0003930
  91.6829952  93.4447887  11.3759957  91.6708621  94.3889727  11.5328228
  92.5753373  93.2618032  11.0819418  89.8565913 113.3685791  22.8017635
  90.7593160 113.4009401  23.1184130  89.6303284 112.4386242  22.8163970
  91.6119516 112.1216777  19.4627713  90.6615147 112.1218639  19.3492086
  91.9152002 111.3749512  18.9463748  95.4982071  90.0390664  15.6305893
  94.7314467  89.4849150  15.7762576  95.9092776  90.1112532  16.4920045
  87.5023832  96.3275459  29.7211075  88.3655294  95.9712264  29.9314399
  86.9289243  95.9889354  30.4086479 104.6381698 119.0639596  26.4221206
 104.6270339 118.6692394  25.5501710 104.8002338 118.3305668  27.0154977
 109.8247325 109.3325577  22.9654271 109.4930650 110.2020988  22.7415486
 109.2292938 109.0161861  23.6448301 103.7916854 115.4710309  27.9882518
 103.0150188 116.0304229  27.9785383 104.4307417 115.9567092  28.5097388
 102.0463226 118.2795762  27.5500485 102.7877911 118.8180806  27.2735309
 101.3400212 118.9062051  27.7072037 103.8749636 115.3597509  23.5206204
 104.7210831 115.7836923  23.6640853 103.8148274 114.7031134  24.2144767
 107.0249081 113.0201878  25.1787377 106.7810013 113.7743938  24.6421653
 107.3009012 113.3987225  26.0134624 100.7824590 115.4335410  28.3515795
 100.1523251 116.1151691  28.5851192 100.6760678 115.3218492  27.4068933
  94.3607266 115.3537697  21.7096710  94.6115304 116.2384707  21.9754286
  94.8966814 115.1742298  20.9371802 100.0605333 109.7356176  30.7141046
  99.6672278 109.1822375  31.3888690 100.8771473 110.0466755  31.1047564
 102.9773294 111.1514055  28.3061303 103.7183007 111.7521208  28.2265765
 103.2091217 110.4091693  27.7479345  98.1214632 116.3370422  26.5839532
  98.0068147 115.4355680  26.8846631  97.2659150 116.5834119  26.2324349
 103.7560762 122.0735092  27.0531943 104.2889099 121.3123380  26.8231251
 103.2274843 121.7808744  27.7956097 106.9230457 107.1795158  22.5825584
 106.5794726 108.0696800  22.5064695 107.2909419 106.9896816  21.7195169
 102.2469883 109.6338543  19.5540999 103.1122880 109.4381352  19.1946889
 102.3147392 109.4048895  20.4810356 100.4245637 112.9237926  21.5671127
 101.0645016 112.7826685  20.8694090  99.5923167 112.6372439  21.1909729
  98.8999179 114.3076008  23.5142938  99.5722232 114.0993370  22.8655587
  98.0728965 114.1098094  23.0748171 104.8024751 110.9337949  25.5308599
 104.1552666 111.6327898  25.4373076 105.5725766 111.3674093  25.8984847
 108.2103549 121.1986801  28.6059153 108.0589055 120.9697353  27.6889236
 108.2008228 122.1557402  28.6190498  99.3026676 117.5818611  24.2745376
  99.1646474 116.8498850  24.8756915 100.2131599 117.4927511  23.9929563
 101.9308977 117.2938570  23.7629055 102.6408595 116.6531762  23.7215674
 101.8878285 117.5451465  24.6855236 100.6437911 114.2803788  25.5824695
 100.1075268 113.8294526  26.2346291 100.0554619 114.4149697  24.8395159
  96.3777032 113.4159796  22.6677689  96.2935220 112.8085465  21.9328099
  95.5559738 113.9068814  22.6687185 104.8113772 117.7992656  29.1693174
 104.1354409 117.6986785  29.8395549 105.6341406 117.6431869  29.6329171
  91.1510286 116.6070192  20.5110133  91.1894385 116.0733783  21.3047251
  90.6450579 116.0805398  19.8921110  98.5301048 111.4534733  24.0072675
  98.5942375 112.3149564  23.5950073  98.4668168 110.8408735  23.2745033
  98.0053321 113.5257866  27.6545709  98.6325359 113.1434943  28.2683233
  97.1481239 113.3072067  28.0201402 101.1139424 110.7444718  25.8432264
 101.6373826 110.9907014  26.6058574 100.8951757 111.5764753  25.4235402
 102.3191969 111.6858413  23.5281935 101.9788789 110.8866226  23.9302615
 101.6130975 111.9860124  22.9558768 102.9708441 108.7707725  21.9809258
 103.7934510 108.2968203  21.8588148 103.2146504 109.5498209  22.4807944
 104.2069533 112.8866734  21.8835253 103.9487311 113.8083805  21.8819584
 103.6754573 112.4897169  22.5735718  94.9692682 118.0032190  22.7288898
  94.4246150 118.7791998  22.8609172  95.8472031 118.3502995  22.5708019
  95.7558703 117.1302087  25.6219055  95.0140440 117.2784722  26.2083685
  95.4351448 117.3910352  24.7585804 101.2421378 112.8475772  29.3159629
 101.2909533 113.7237894  28.9337398 101.7843892 112.3053165  28.7431272
 109.1377861 116.2240289  27.2252801 110.0387724 116.0846754  26.9336799
 109.2125835 116.3894744  28.1650979 103.4720666 113.6007144  26.0705987
 102.6023976 113.8940710  25.7988576 103.7080147 114.1847589  26.7913251
 106.1759700 109.8186761  23.5871408 106.6941644 110.5547788  23.2617896
 105.8214833 110.1250754  24.4218167 108.3195532 111.7460261  23.0403280
 107.7245464 112.0265273  22.3449769 108.0345229 112.2354162  23.8120022
 104.4991254 120.8024596  29.4714040 105.4194263 120.9803195  29.6654087
 104.4640837 119.8580642  29.3193739 102.3681192 114.2858837  31.5039570
 102.2677919 115.2353194  31.4351661 102.1502734 113.9577075  30.6315640
 102.2312462 117.7155975  30.3204632 101.7479543 118.5156336  30.5268521
 102.3173401 117.7263920  29.3672076  98.7485181 120.1761626  24.9243863
  99.5678070 120.6705705  24.9478701  99.0221989 119.2593594  24.8961431
  94.0020096 114.5099760  25.6236060  94.6478959 113.9998714  26.1123286
  93.7937247 115.2468442  26.1979486 106.5273488 121.5780608  31.1228201
 107.3964647 121.7521260  30.7614836 106.0480239 122.3975024  31.0003930
  98.3417587 111.6567377  29.7211075  99.2049048 111.3004182  29.9314399
  97.7682997 111.3181272  30.4086479  61.2806682  34.7534048  13.1466513
  61.2695322  34.3586846  12.2747016  61.4427321  34.0200120  13.7400284
  58.0013943  37.5371159  12.0945697  57.7103809  38.4416790  11.9792363
  58.6370927  37.5787687  12.8089766  62.9603828  37.2232575   9.0895490
  62.6604551  38.1257614   8.9811297  62.6154887  36.9564758   9.9416643
  60.4341837  31.1604761  14.7127825  59.6575171  31.7198681  14.7030689
  61.0732400  31.6461544  15.2342695  58.6888210  33.9690214  14.2745792
  59.4302894  34.5075258  13.9980615  57.9825195  34.5956503  14.4317344
  64.1643549  36.1119354  12.8717953  64.5726905  35.6701765  12.1272586
  63.4420811  35.5371982  13.1252146  65.6212527  35.2534942  10.5809949
  65.8329423  35.8966702   9.9044331  65.5742276  34.4197258  10.1131880
  66.7358355  38.1306897   8.7532307  67.5575799  37.7287085   8.4714988
  66.7320758  38.0275132   9.7048423  60.5014959  37.6790941  10.9093017
  60.5659391  38.1411348  11.7451189  59.7925883  37.0488306  11.0375327
  61.8431453  39.9682615  14.9072340  61.3995307  39.1818993  14.5893244
  62.5048666  40.1561765  14.2416231  56.6018574  41.4978416   9.4333018
  57.1525999  41.3695480   8.6610012  55.7630050  41.7973305   9.0827911
  63.9412691  40.2485415  12.9353741  63.9231166  41.0694296  12.4434010
  64.8632611  40.1239490  13.1603882  60.3985745  37.7629544  13.7777249
  60.9314082  37.0017832  13.5476557  59.8699826  37.4703196  14.5201404
  68.9297874  36.6950809   7.2230693  69.3634380  36.6026098   8.0713747
  69.6429454  36.6708310   6.5850709  62.6625769  40.2952903   8.7563794
  62.7162791  40.8643840   9.5241510  61.7940550  40.4654789   8.3917831
  69.7913423  36.7374510   9.7563579  69.9849313  37.6420321  10.0022853
  69.6914041  36.2781929  10.5902164  64.8528532  36.8881253  15.3304459
  64.7014038  36.6591804  14.4134543  64.8433211  37.8451854  15.3435804
  66.5620738  39.9200375  13.4080941  66.5033285  39.2359595  12.7411524
  66.9640257  40.6619365  12.9561567  55.5811437  46.7362289   6.2014660
  55.8208036  47.3680813   6.8793678  54.7380634  46.3850329   6.4880019
  66.5638146  37.8839959  11.6394921  65.6764925  37.5465881  11.7621320
  67.1336697  37.1522991  11.8763686  60.0939299  42.5441412   8.6056164
  60.0209471  43.3496383   9.1175468  59.6516692  42.7433377   7.7804185
  62.5537983  42.4428246  10.7614323  63.2665955  43.0775710  10.6890224
  62.0628011  42.5392112   9.9454324  57.6049896  40.1922689  11.5819893
  58.3059356  40.8259172  11.7349288  57.1345011  40.5337421  10.8215533
  61.4538755  33.4887108  15.8938481  60.7779392  33.3881237  16.5640856
  62.2766389  33.3326321  16.3574478  60.1961538  44.7954035  10.1296097
  60.7479846  44.9585657  10.8945182  60.5367732  45.3858473   9.4576122
  65.0472412  39.6215293  15.9844751  65.5912316  40.2345251  15.4899706
  64.4659257  40.1794871  16.5011764  63.3329925  42.7436011   7.1159779
  63.2081065  41.9425750   6.6070724  63.9909016  43.2382204   6.6273749
  65.3964834  40.5445031   8.7439329  64.4495169  40.4250382   8.6717656
  65.7447607  39.6567529   8.8265591  66.0045389  41.1626306   6.0308554
  66.9291936  40.9569167   5.8933005  65.8360692  40.9142707   6.9397896
  60.3427349  42.3612517  12.1444751  60.6514476  42.1161663  13.0167451
  61.1402831  42.5659155  11.6563621  68.3701207  39.0811347  15.3206073
  67.5796750  39.0635486  14.7810572  68.1334561  39.6199640  16.0755109
  68.4899082  35.9303813  12.6338801  68.5397087  35.7653820  13.5754324
  68.3813005  35.0631072  12.2436682  65.7802844  31.9134741  13.9498108
  66.6812707  31.7741206  13.6582106  65.8550819  32.0789196  14.8896285
  69.9917279  38.3500755  12.8780823  69.7002087  38.7130735  13.7144284
  69.3789410  37.6367763  12.6994155  68.2404467  33.4733369  11.3460881
  68.7158588  33.6661015  10.5379732  67.3170032  33.5292555  11.1004264
  69.4194214  33.5705249   8.6931486  69.3870534  32.6321250   8.8791170
  70.0294837  33.6489286   7.9597311  75.2370764  34.6321256   7.8337523
  75.9674152  34.3706544   8.3945226  74.6277709  33.8949978   7.8739591
  73.3186061  32.7729118   8.4311974  72.5919224  32.6385083   7.8228465
  72.9033348  33.0805947   9.2368692  61.1416237  36.4919048  16.1959347
  62.0619247  36.6697647  16.3899393  61.1065820  35.5475093  16.0439046
  59.0106175  29.9753288  18.2284877  58.9102902  30.9247645  18.1596968
  58.7927717  29.6471527  17.3560947  58.8737445  33.4050427  17.0449939
  58.3904527  34.2050787  17.2513828  58.9598384  33.4158372  16.0917383
  63.1698471  37.2675059  17.8473508  64.0389631  37.4415712  17.4860143
  62.6905223  38.0869476  17.7249237  57.3384651  44.3872160   9.5262941
  58.2411898  44.4195771   9.8429436  57.1122021  43.4572611   9.5409277
  74.8290947  48.9763685   7.2518782  75.4669357  48.8570433   6.5482122
  74.7111790  49.9244529   7.3106734  71.6380653  48.9291113   7.1880307
  71.2999165  48.8132178   6.3000842  72.5070421  48.5282279   7.1681313
  67.4967469  50.7826590   3.1777198  66.9332334  50.6916527   2.4093486
  67.3819864  49.9626494   3.6579691  72.1200436  50.0825965  13.1466513
  72.1089077  49.6878763  12.2747016  72.2821076  49.3492038  13.7400284
  65.0431901  52.2777781   6.0161418  65.8353193  51.9368606   5.6007718
  65.2828551  52.3872757   6.9363572  73.0767027  54.4497558  -1.5108337
  72.4255007  55.0351638  -1.8974323  73.8711390  54.9803752  -1.4513300
  67.0022655  51.5386695  -1.1121203  67.7753531  50.9915682  -1.2508327
  67.3548053  52.4030944  -0.9006741  68.8407697  52.8663077  12.0945697
  68.5497563  53.7708708  11.9792363  69.4764682  52.9079605  12.8089766
  69.7663904  50.2439926   8.6847056  70.3627476  50.0195948   7.9704019
  69.8238876  49.5024671   9.2872504  74.3832215  46.7015139   4.3271990
  75.1695304  46.2834562   3.9762407  74.6470920  47.6061231   4.4953639
  74.5542293  52.1387990  -0.9739353  73.9188126  52.2122616  -0.2618448
  74.2239699  52.7281588  -1.6520274  79.7840642  46.6390372   5.2304969
  80.5165814  46.0689589   5.4642798  79.0279998  46.2511973   5.6711474
  71.4016762  49.0617614   2.4268311  71.0374969  48.5348235   3.1381233
  72.2583878  48.6716083   2.2534797  77.3066063  40.3511947   9.6899577
  76.9749388  41.2207357   9.4660792  76.7111676  40.0348231  10.3693608
  73.7997582  52.5524493   9.0895490  73.4998305  53.4549531   8.9811297
  73.4548642  52.2856676   9.9416643  67.2510064  49.0038289   5.1232195
  66.3260560  48.8714503   5.3309886  67.4994477  49.7832509   5.6202137
  77.1994726  45.0707033   6.7692928  76.2911603  45.0022441   6.4751689
  77.1482322  45.5478978   7.5974753  64.6118875  48.6471563   5.9575984
  64.7411256  48.9006042   6.8715395  63.9316326  49.2399271   5.6380639
  68.7818362  59.3168813   2.0566458  68.7042392  60.2676638   2.1354938
  68.1780006  58.9714685   2.7141384  71.2735592  46.4896678  14.7127825
  70.4968926  47.0490598  14.7030689  71.9126155  46.9753461  15.2342695
  79.0656372  43.2723471   8.5470801  78.4230753  43.5656004   7.9010596
  78.5611301  43.1576391   9.3523998  76.7196536  47.0186644  -0.7643339
  77.6314392  47.2514031  -0.9395642  76.2106183  47.6023688  -1.3268261
  69.5281964  49.2982132  14.2745792  70.2696649  49.8367176  13.9980615
  68.8218950  49.9248420  14.4317344  75.0037304  51.4411272  12.8717953
  75.4120660  50.9993683  12.1272586  74.2814565  50.8663900  13.1252146
  71.3568374  46.3783879  10.2451510  72.2029569  46.8023292  10.3886159
  71.2967012  45.7217503  10.9390073  75.3266118  52.0012463   6.6270242
  74.6974981  52.1658177   5.9246310  74.9391781  52.4154072   7.3981206
  79.2055350  52.9366901   3.9814606  78.5206388  53.3165802   3.4311639
  79.2899200  53.5462227   4.7146554  74.5067819  44.0388247  11.9032684
  74.2628751  44.7930308  11.3666960  74.7827750  44.4173595  12.7379931
  76.4606282  50.5826860  10.5809949  76.6723177  51.2258620   9.9044331
  76.4136030  49.7489176  10.1131880  74.0632511  43.1944680   7.4846522
  73.2016990  43.4925934   7.7763259  74.0894946  43.4115079   6.5527554
  70.8794080  51.7386871   3.8920327  71.3432426  52.0174574   3.1024950
  70.6150878  50.8370315   3.7093418  67.7718161  51.2858352   6.8300091
  68.3419518  51.7145621   6.1917575  68.3626273  51.0040937   7.5284276
  69.8162966  47.8610023   0.7009892  70.5187010  48.3131067   1.1683819
  69.4843595  47.2193842   1.3289786  68.2643328  46.4521780  15.0761102
  67.6341988  47.1338061  15.3096499  68.1579416  46.3404861  14.1314240
  63.5588300  46.1193576   6.0027026  62.7687354  46.3751104   5.5267137
  64.0499548  46.9341914   6.1079067  77.5752110  53.4598815   8.7532307
  78.3969554  53.0579002   8.4714988  77.5714513  53.3567049   9.7048423
  65.5103046  46.4838155   2.9610503  64.7134209  46.5956849   3.4793998
  65.2828638  46.8224807   2.0951393  71.3408713  53.0082858  10.9093017
  71.4053146  53.4703266  11.7451189  70.6319637  52.3780223  11.0375327
  61.8426003  46.3724066   8.4342017  62.0934042  47.2571076   8.6999593
  62.3785552  46.1928668   7.6617109  85.6658103  49.8037564   5.1017278
  84.9121811  49.2344962   4.9461283  85.8005644  49.7700228   6.0487913
  71.0556731  54.6750966   0.7771998  70.9202406  55.5202502   1.2056845
  71.5966543  54.8770243   0.0137931  67.5424071  40.7542546  17.4386353
  67.1491016  40.2008744  18.1133997  68.3590211  41.0653124  17.8292870
  64.5086128  52.1926404   1.3499923  65.0210649  52.9869654   1.5005487
  65.1608841  51.4952694   1.2833524  66.3181013  55.3092160   3.4322676
  66.4947641  56.2310125   3.2443660  67.1137847  54.9950579   3.8617056
  70.4592032  42.1700425  15.0306609  71.2001745  42.7707578  14.9511072
  70.6909954  41.4278063  14.4724652  65.6033370  47.3556792  13.3084839
  65.4886885  46.4542049  13.6091938  64.7477887  47.6020489  12.9569656
  72.6825207  55.2974532  14.9072340  72.2389062  54.5110911  14.5893244
  73.3442421  55.4853683  14.2416231  67.4412329  56.8270334   9.4333018
  67.9919754  56.6987397   8.6610012  66.6023804  57.1265223   9.0827911
  74.7806445  55.5777332  12.9353741  74.7624921  56.3986213  12.4434010
  75.7026365  55.4531407  13.1603882  71.2379500  53.0921462  13.7777249
  71.7707836  52.3309750  13.5476557  70.7093581  52.7995114  14.5201404
  74.4049195  38.1981528   9.3070891  74.0613464  39.0883169   9.2310002
  74.7728157  38.0083185   8.4440476  62.4735045  50.5215058   2.1259493
  63.3110267  50.9312067   1.9093201  62.6513313  49.5814500   2.0959687
  74.3699477  48.1890139  -2.1856674  73.8546101  48.9594743  -1.9468286
  74.0976786  47.5155275  -1.5623612  71.9546588  43.0339840   2.8728565
  71.0988185  42.6446690   2.6934203  72.3673540  43.1131800   2.0128350
  73.4845735  40.5686183   7.2720124  72.9810531  40.5316318   6.4587930
  73.7776342  41.4778926   7.3316781  69.7288621  40.6524913   6.2786306
  70.5941618  40.4567721   5.9192196  69.7966130  40.4235264   7.2055663
  79.3433751  50.9422493  -0.2503500  78.5663194  50.6033653  -0.6948338
  80.0225232  50.9475117  -0.9248535  74.1585780  46.0617231  -0.3596893
  73.8535916  46.3763380   0.4913251  75.1116223  46.1398651  -0.3169560
  72.6032212  52.2207454   1.2896061  72.0753574  51.4860214   0.9769299
  72.1019715  52.9982131   1.0436030  77.5825058  50.4156475   6.4063108
  76.9248733  51.1055736   6.4943236  78.3865458  50.8052907   6.7497094
  76.3930517  48.7700847   4.4567049  76.9062399  49.4030839   4.9588759
  77.0431741  48.1702043   4.0910409  73.6552891  58.7485172  -2.7872279
  72.9814590  59.0516868  -2.1787322  74.0418713  59.5514252  -3.1366822
  72.8711348  46.2450303   6.7025390  71.9533909  46.4665250   6.5447078
  73.2871492  46.3196613   5.8437097  73.6546396  47.6441719   1.8328070
  74.4018215  48.1563116   1.5235192  73.9237985  47.3225771   2.6932464
  71.9273046  50.1400259  -1.1844975  71.0184265  49.8559292  -1.0872506
  71.9568130  50.5599338  -2.0441669  77.1592313  53.7506849   2.5846192
  76.7054640  52.9097759   2.6411383  76.5286280  54.3868247   2.9220972
  76.1025233  44.6798835   3.8146860  75.3647990  44.1676221   4.1457102
  76.3552006  44.2399216   3.0030136  75.6025253  55.5883346   3.5196010
  75.8948227  56.1488403   2.8008376  76.1123873  55.8811907   4.2749169
  76.2036860  37.4575087   4.4088629  76.5095737  36.5972450   4.1214544
  76.9289465  38.0492707   4.2087623  70.4757940  47.7528880   4.9164820
  70.5306550  46.8002716   4.8407296  69.6649142  47.9088319   5.4006118
  68.4150300  46.3705940   2.6755199  67.6018165  46.6700110   3.0820391
  68.9109294  45.9761628   3.3929681  70.5658878  56.3663697   4.6089463
  70.5235057  56.5924543   3.6797995  71.4821577  56.1327071   4.7575265
  74.0124512  46.8347764  11.5070093  74.3673899  47.0619237  12.3664558
  74.6596643  47.1666141  10.8847348  79.7422249  49.9566200   2.2119422
  79.6040147  50.1467796   1.2840611  79.3858467  50.7185583   2.6687473
  67.9064375  43.9424295   8.2916434  68.5463754  43.8013054   7.5939397
  67.0741905  43.6558809   7.9155036  79.7691628  52.0242727   7.2230693
  80.2028135  51.9318016   8.0713747  80.4823209  52.0000228   6.5850709
  68.6824679  53.2426726   4.4051426  69.4765277  52.7477046   4.2034001
  67.9716371  52.7144589   4.0419132  73.5019523  55.6244821   8.7563794
  73.5556545  56.1935757   9.5241510  72.6334304  55.7946706   8.3917831
  66.3817916  45.3262377  10.2388245  67.0540970  45.1179740   9.5900894
  65.5547703  45.1284463   9.7993477  80.6307178  52.0666428   9.7563579
  80.8243068  52.9712238  10.0022853  80.5307796  51.6073847  10.5902164
  72.2843488  41.9524318  12.2553906  71.6371403  42.6514268  12.1618382
  73.0544504  42.3860462  12.6230154  75.6922286  52.2173170  15.3304459
  75.5407793  51.9883722  14.4134543  75.6826966  53.1743772  15.3435804
  72.4607623  49.7905083  10.3150726  73.3899683  49.9416243  10.1419693
  72.0398653  49.8789104   9.4599372  71.2595955  53.8155748   8.0849263
  71.1207040  53.4474532   8.9575201  70.4710551  54.3303387   7.9133221
  71.8544107  58.9164844  -0.5725200  72.0295862  58.4452887   0.2420422
  71.1676895  59.5430610  -0.3443940  72.8101170  53.1937350   5.4738101
  72.4751002  53.1538120   6.3695751  72.3105115  52.5282066   5.0008511
  66.7845414  48.6004980  10.9990682  66.6465212  47.8685219  11.6002221
  67.6950337  48.5113880  10.7174870  69.4127714  48.3124940  10.4874362
  70.1227333  47.6718132  10.4460980  69.3697022  48.5637835  11.4100543
  77.4014493  55.2492293  13.4080941  77.3427039  54.5651513  12.7411524
  77.8034011  55.9911283  12.9561567  68.1256648  45.2990158  12.3070001
  67.5894005  44.8480896  12.9591598  67.5373357  45.4336066  11.5640466
  66.4205192  62.0654207   6.2014660  66.6601790  62.6972731   6.8793678
  65.5774388  61.7142247   6.4880019  77.4031900  53.2131877  11.6394921
  76.5158679  52.8757799  11.7621320  77.9730451  52.4814908  11.8763686
  59.0561047  49.5455969   4.9637972  59.7432087  49.2317699   4.3758987
  58.9009176  50.4497333   4.6905224  63.8595770  44.4346165   9.3922996
  63.7753958  43.8271835   8.6573406  63.0378476  44.9255184   9.3932492
  70.9333054  57.8733329   8.6056164  70.8603225  58.6788301   9.1175468
  70.4910447  58.0725295   7.7804185  70.7222833  57.1105099   2.1158985
  69.9390355  57.6526780   2.2097210  71.4215578  57.6279079   2.5153227
  74.0319483  42.9199729   4.7593191  74.5288183  42.1669691   4.4394261
  73.2606465  42.9564045   4.1936400  81.8849241  48.6240094   6.4011482
  81.8739117  49.5064810   6.0305415  81.0166620  48.2711645   6.2066019
  73.3931737  57.7720163  10.7614323  74.1059709  58.4067628  10.6890224
  72.9021766  57.8684029   9.9454324  75.1149264  51.6771416   2.3331614
  74.1805543  51.7972878   2.1636319  75.2925933  50.7743883   2.0691624
  70.6154452  45.0617112   4.4864875  70.2452240  44.5088152   5.1745781
  71.1113545  44.4575245   3.9339875  78.5021815  47.5188735   2.8681648
  78.9682268  48.3516727   2.7941951  78.9529316  47.0533717   3.5726907
  68.4443651  55.5214607  11.5819893  69.1453110  56.1551090  11.7349288
  67.9738766  55.8629338  10.8215533  76.5698047  53.8632557  -0.1332200
  76.8457890  53.7489151   0.7761674  75.7002545  53.4650041  -0.1720026
  76.4738478  39.8869322   6.9072550  75.5601558  40.1173549   7.0754757
  76.9031580  39.9707766   7.7586582  76.2444937  48.0759214   9.4072444
  75.5916387  48.3235122   8.7524897  76.6225317  47.2623352   9.0734921
  73.2052111  58.1118907   3.5100614  73.3874505  57.2940563   3.9728366
  74.0285097  58.3286600   3.0725504  73.5394276  57.0387093   0.7715663
  74.0682042  56.5279547   0.1585825  73.8022496  56.7229623   1.6361196
  72.2932510  48.8179025  15.8938481  71.6173147  48.7173155  16.5640856
  73.1160144  48.6618239  16.3574478  64.0411369  55.0550962   8.5150996
  64.6264806  54.3094650   8.6478900  63.8436207  55.3654919   9.3987660
  66.8950024  58.0902209   3.5313438  66.2260399  58.5748337   3.0477479
  66.7562894  58.3371430   4.4456817  58.6329024  47.6256562   7.2355439
  58.6713123  47.0920153   8.0292557  58.1269316  47.0991768   6.6166416
  71.0355293  60.1245953  10.1296097  71.5873601  60.2877574  10.8945182
  71.3761486  60.7150391   9.4576122  66.0119786  42.4721103  10.7317982
  66.0761112  43.3335933  10.3195379  65.9486906  41.8595104   9.9990340
  65.4872058  44.5444235  14.3791016  66.1144097  44.1621312  14.9928540
  64.6299977  44.3258437  14.7446708  75.8866167  54.9507210  15.9844751
  76.4306071  55.5637169  15.4899706  75.3053012  55.5086789  16.5011764
  74.1723680  58.0727928   7.1159779  74.0474819  57.2717668   6.6070724
  74.8302771  58.5674122   6.6273749  65.7931848  44.4276661   6.2936919
  65.0718434  45.0412628   6.1544393  66.5825104  44.9634426   6.2153565
  76.2358588  55.8736948   8.7439329  75.2888924  55.7542300   8.6717656
  76.5841361  54.9859446   8.8265591  68.5958162  41.7631087  12.5677571
  69.1192563  42.0093384  13.3303880  68.3770495  42.5951122  12.1480708
  73.2405022  55.6689665   4.9443681  73.0929984  54.7406372   5.1251251
  74.0658515  55.6909755   4.4600757  76.8439143  56.4918223   6.0308554
  77.7685691  56.2861085   5.8933005  76.6754447  56.2434624   6.9397896
  69.8010707  42.7044782  10.2527242  69.4607527  41.9052595  10.6547921
  69.0949713  43.0046493   9.6804075  70.4527178  39.7894095   8.7054565
  71.2753248  39.3154573   8.5833455  70.6965242  40.5684579   9.2053251
  67.9765757  46.4813215   6.5146543  67.8310338  46.7953519   7.4070825
  67.4990961  47.0998116   5.9617442  69.8362140  43.4715763   6.5627433
  69.8223709  42.5756857   6.2259731  70.5534568  43.4786427   7.1965719
  71.6888271  43.9053104   8.6080560  71.4306049  44.8270174   8.6064891
  71.1573311  43.5083538   9.2981024  76.6334460  57.0103891   1.3870646
  76.8071337  56.4450313   0.6344498  77.1263351  57.8104786   1.2050135
  62.4511419  49.0218560   9.4534204  61.9064887  49.7978368   9.5854479
  63.3290769  49.3689364   9.2953326  72.1090226  40.0385054   4.9681723
  72.1311923  40.1024387   4.0133702  72.5258285  39.1989563   5.1622229
  82.4873851  49.7740314   3.0060945  82.9304997  49.0247639   2.6080069
  81.6100361  49.7650450   2.6234677  77.6209632  56.3270655  -1.5132456
  78.3160537  56.9477348  -1.2945142  77.9632782  55.4766006  -1.2380078
  63.2377441  48.1488456  12.3464361  62.4959177  48.2971091  12.9328992
  62.9170186  48.4096722  11.4831111  79.5201055  53.7770361   0.0154875
  80.0452379  54.1157633  -0.7095805  79.4323408  52.8417376  -0.1681991
  71.1821104  57.6904434  12.1444751  71.4908230  57.4453581  13.0167451
  71.9796586  57.8951073  11.6563621  71.2041716  59.8442344   4.3750128
  70.7646706  59.3518723   5.0682984  71.9549833  59.3015312   4.1342203
  63.6834055  56.0353885   4.3774756  64.5092075  55.7357657   3.9973399
  63.3328107  55.2661507   4.8264544  68.6515588  55.3880353   6.4472429
  68.0295597  54.7251058   6.1474657  69.3220455  55.4141485   5.7646077
  61.8842660  53.9540211   5.3363689  61.0474568  53.5262386   5.1547691
  61.8566305  54.1472655   6.2734481  68.7240116  43.8662141  16.0404935
  68.7728271  44.7424264  15.6582705  69.2662630  43.3239534  15.4676579
  79.2094961  54.4103264  15.3206073  78.4190505  54.3927403  14.7810572
  78.9728316  54.9491558  16.0755109  79.3292836  51.2595731  12.6338801
  79.3790841  51.0945738  13.5754324  79.2206760  50.3922990  12.2436682
  68.2129095  53.9384276  -0.0769110  68.3617215  54.6219741  -0.7302437
  69.0195538  53.9189366   0.4380346  76.6196599  47.2426659  13.9498108
  77.5206461  47.1033124  13.6582106  76.6944573  47.4081114  14.8896285
  70.9539404  44.6193513  12.7951294  70.0842713  44.9127080  12.5233883
  71.1898884  45.2033958  13.5158558  80.8311033  53.6792672  12.8780823
  80.5395841  54.0422653  13.7144284  80.2183164  52.9659681  12.6994155
  82.0306715  51.2445552   5.3983393  82.8653607  51.6835356   5.5620953
  82.1665844  50.7684205   4.5791639  79.0798221  48.8025287  11.3460881
  79.5552343  48.9952933  10.5379732  78.1563787  48.8584473  11.1004264
  65.9681728  49.9649454   0.9291959  65.7227770  49.0611784   1.1272169
  66.1377643  49.9666604  -0.0128563  73.6578438  40.8373130  10.3116714
  74.1760382  41.5734157   9.9863203  73.3033571  41.1437124  11.1463474
  73.9091032  37.2573413   5.8317611  74.1892786  36.5896602   6.4578038
  74.6941639  37.4502509   5.3192275  71.7124501  56.4332407  -2.6057363
  71.1398468  57.0522594  -3.0586891  72.2857294  56.9831769  -2.0717441
  77.7799890  45.6791047   9.5789186  78.7317313  45.7789145   9.6001410
  77.6103341  44.8869315  10.0887271  75.8014270  42.7646630   9.7648587
  75.2064202  43.0451643   9.0695076  75.5163967  43.2540531  10.5365328
  74.9321760  56.7169557  -1.4748780  75.8652433  56.6515119  -1.2715905
  74.8444973  57.5525824  -1.9334248  77.5609777  56.0335427  -4.5144833
  77.4823409  55.6995291  -3.6209075  78.3819444  56.5257195  -4.5153360
  80.2587968  48.8997167   8.6931486  80.2264288  47.9613167   8.8791170
  80.8688592  48.9781203   7.9597311  80.4082457  45.6908210   8.7389769
  79.8921505  44.9066667   8.5519698  81.2922405  45.3626927   8.9036288
  78.0693184  39.4349226   4.6985582  77.8718005  39.1264314   5.5828914
  78.6792889  40.1610865   4.8283512  86.0764518  49.9613173   7.8337523
  86.8067906  49.6998462   8.3945226  85.4671463  49.2241895   7.8739591
  84.1579815  48.1021036   8.4311974  83.4312979  47.9677001   7.8228465
  83.7427102  48.4097865   9.2368692  71.9809992  51.8210966  16.1959347
  72.9013001  51.9989565  16.3899393  71.9459575  50.8767011  16.0439046
  61.1992157  47.0149559   5.1212621  60.8794941  46.1614868   4.8286995
  60.6525585  47.2298138   5.8770589  64.9772064  49.7312000   8.8382128
  65.1958074  50.6629108   8.8570162  65.3897838  49.3719975   9.6236932
  69.8499929  45.3045206  18.2284877  69.7496656  46.2539563  18.1596968
  69.6321471  44.9763445  17.3560947  61.0680417  50.6352471   7.0905743
  60.3743888  50.2206424   6.5775697  61.8153408  50.6773007   6.4939162
  77.2045637  41.4258658   1.9560777  76.6244306  42.0843462   1.5738830
  76.9381570  40.6036002   1.5448195  75.6549204  40.8263715   4.1582098
  76.1548982  40.9380250   3.3496416  76.2984812  40.5224768   4.7982906
  69.7131199  48.7342345  17.0449939  69.2298281  49.5342705  17.2513828
  69.7992139  48.7450290  16.0917383  62.9817159  50.5670725   4.9671758
  62.9587847  50.6658412   4.0153641  63.2917796  51.4135875   5.2888924
  65.6404537  52.6246880   9.0818372  66.5947791  52.5930822   9.0148304
  65.4417061  52.1637503   9.8968598  66.2303919  51.1947996  11.6489170
  67.0496808  51.6892074  11.6724007  66.5040727  50.2779964  11.6206738
  75.9870515  43.5858748   1.0117126  75.0996370  43.8708399   0.7937320
  76.4024504  43.4252511   0.1644402  79.3385051  43.6105269   4.7271465
  80.1145442  44.1001721   4.9996082  78.6133186  44.0363323   5.1843334
  81.7757610  44.3232888   5.7845405  82.3702101  44.0828624   5.0738714
  81.8484194  43.6040019   6.4118942  63.9954766  58.1666499   6.0988570
  63.8609234  57.4066900   5.5326568  63.5786828  58.8907399   5.6317359
  75.1313729  53.3503423  -4.8934854  75.8349579  53.5553425  -4.2777199
  74.4076378  53.9180185  -4.6285771  75.9611539  49.1013284   1.2267416
  75.9046740  49.5581835   0.3875048  76.5139882  48.3403969   1.0490258
  79.7716345  44.8903016   2.0517535  79.5153279  44.4899652   2.8825743
  79.1469213  45.6046810   1.9267674  84.0828683  47.6299089   4.5588827
  83.5228241  47.6992278   5.3320389  83.4772186  47.4540074   3.8388323
  67.1523892  59.0635816   6.3107013  67.0356276  60.0081249   6.2085703
  66.3316338  58.7609378   6.6992812  77.0400426  53.7885952  -2.8436394
  77.8746030  53.3567150  -3.0258920  76.8784769  53.6167966  -1.9159500
  76.6946318  50.2918065  -1.4780055  76.6395122  50.1262337  -2.4191611
  76.0692374  50.9994098  -1.3217865  61.4838833  45.5286130  12.3481367
  62.1297697  45.0185084  12.8368592  61.2755984  46.2654811  12.9224792
  74.0092226  52.5966977  17.8473508  74.8783385  52.7707629  17.4860143
  73.5298977  53.4161394  17.7249237  68.1778406  59.7164078   9.5262941
  69.0805652  59.7487688   9.8429436  67.9515776  58.7864529   9.5409277
  69.9332008  58.4695065   6.1873020  68.9827639  58.4696926   6.0737392
  70.2364494  57.7227799   5.6709055  65.8236324  42.6753747  16.4456381
  66.6867786  42.3190552  16.6559706  65.2501735  42.3367642  17.1331786
  85.6684701  64.3055603   7.2518782  86.3063111  64.1862350   6.5482122
  85.5505544  65.2536447   7.3106734  82.4774408  64.2583031   7.1880307
  82.1392919  64.1424096   6.3000842  83.3464176  63.8574196   7.1681313
  78.3361223  66.1118508   3.1777198  77.7726088  66.0208444   2.4093486
  78.2213618  65.2918412   3.6579691  82.9594191  65.4117883  13.1466513
  82.9482831  65.0170681  12.2747016  83.1214830  64.6783955  13.7400284
  75.8825655  67.6069699   6.0161418  76.6746947  67.2660524   5.6007718
  76.1222305  67.7164674   6.9363572  83.9160782  69.7789475  -1.5108337
  83.2648762  70.3643556  -1.8974323  84.7105145  70.3095670  -1.4513300
  77.8416409  66.8678612  -1.1121203  78.6147285  66.3207599  -1.2508327
  78.1941808  67.7322862  -0.9006741  79.6801452  68.1954995  12.0945697
  79.3891318  69.1000626  11.9792363  80.3158436  68.2371522  12.8089766
  80.6057659  65.5731843   8.6847056  81.2021231  65.3487866   7.9704019
  80.6632630  64.8316589   9.2872504  80.1782687  63.0271279  -3.4802753
  80.4308208  62.5052800  -4.2419290  79.2407246  62.8637424  -3.3776069
  85.2225970  62.0307057   4.3271990  86.0089059  61.6126480   3.9762407
  85.4864674  62.9353149   4.4953639  85.3936047  67.4679907  -0.9739353
  84.7581880  67.5414534  -0.2618448  85.0633454  68.0573506  -1.6520274
  90.6234397  61.9682290   5.2304969  91.3559569  61.3981507   5.4642798
  89.8673753  61.5803891   5.6711474  79.8978976  64.9299384  -1.2778378
  79.7815234  64.2544288  -0.6097294  80.0081236  64.4431758  -2.0946225
  82.2410517  64.3909532   2.4268311  81.8768724  63.8640153   3.1381233
  83.0977633  64.0008001   2.2534797  88.1459817  55.6803864   9.6899577
  87.8143142  56.5499275   9.4660792  87.5505431  55.3640148  10.3693608
  81.8816004  59.4199431  -2.5770340  82.0490406  60.2879668  -2.2099869
  81.6913173  59.5826713  -3.5009051  84.6391337  67.8816410   9.0895490
  84.3392060  68.7841449   8.9811297  84.2942396  67.6148593   9.9416643
  78.0903818  64.3330207   5.1232195  77.1654315  64.2006421   5.3309886
  78.3388231  65.1124426   5.6202137  88.0388481  60.3998950   6.7692928
  87.1305358  60.3314359   6.4751689  87.9876076  60.8770895   7.5974753
  81.8605224  61.8757089  -1.5923673  81.7404850  62.3214140  -0.7538193
  81.1657813  62.2242406  -2.1510135  75.4512629  63.9763481   5.9575984
  75.5805010  64.2297960   6.8715395  74.7710081  64.5691189   5.6380639
  79.6212117  74.6460731   2.0566458  79.5436146  75.5968556   2.1354938
  79.0173760  74.3006603   2.7141384  82.1129346  61.8188596  14.7127825
  81.3362680  62.3782516  14.7030689  82.7519909  62.3045379  15.2342695
  89.9050127  58.6015389   8.5470801  89.2624507  58.8947922   7.9010596
  89.4005055  58.4868309   9.3523998  87.5590291  62.3478562  -0.7643339
  88.4708147  62.5805949  -0.9395642  87.0499938  62.9315606  -1.3268261
  80.3675719  64.6274049  14.2745792  81.1090403  65.1659093  13.9980615
  79.6612704  65.2540338  14.4317344  85.8431058  66.7703190  12.8717953
  86.2514414  66.3285600  12.1272586  85.1208320  66.1955817  13.1252146
  82.1962128  61.7075797  10.2451510  83.0423324  62.1315210  10.3886159
  82.1360766  61.0509421  10.9390073  86.1659873  67.3304380   6.6270242
  85.5368735  67.4950095   5.9246310  85.7785535  67.7445990   7.3981206
  90.0449105  68.2658818   3.9814606  89.3600143  68.6457720   3.4311639
  90.1292954  68.8754145   4.7146554  85.3461574  59.3680165  11.9032684
  85.1022506  60.1222225  11.3666960  85.6221504  59.7465513  12.7379931
  87.3000036  65.9118777  10.5809949  87.5116932  66.5550537   9.9044331
  87.2529785  65.0781094  10.1131880  84.9026265  58.5236598   7.4846522
  84.0410744  58.8217852   7.7763259  84.9288700  58.7406997   6.5527554
  81.7187835  67.0678789   3.8920327  82.1826180  67.3466491   3.1024950
  81.4544633  66.1662233   3.7093418  78.6111916  66.6150270   6.8300091
  79.1813273  67.0437538   6.1917575  79.2020028  66.3332855   7.5284276
  80.6556721  63.1901941   0.7009892  81.3580764  63.6422985   1.1683819
  80.3237349  62.5485760   1.3289786  79.1037082  61.7813698  15.0761102
  78.4735743  62.4629978  15.3096499  78.9973170  61.6696779  14.1314240
  74.3982055  61.4485494   6.0027026  73.6081109  61.7043022   5.5267137
  74.8893302  62.2633831   6.1079067  88.4145864  68.7890733   8.7532307
  89.2363308  68.3870920   8.4714988  88.4108267  68.6858967   9.7048423
  76.3496800  61.8130073   2.9610503  75.5527963  61.9248767   3.4793998
  76.1222392  62.1516725   2.0951393  82.1802468  68.3374776  10.9093017
  82.2446900  68.7995183  11.7451189  81.4713392  67.7072141  11.0375327
  72.6819758  61.7015984   8.4342017  72.9327796  62.5862994   8.6999593
  73.2179306  61.5220586   7.6617109  96.5051857  65.1329481   5.1017278
  95.7515566  64.5636879   4.9461283  96.6399399  65.0992146   6.0487913
  81.8950485  70.0042883   0.7771998  81.7596160  70.8494419   1.2056845
  82.4360298  70.2062161   0.0137931  78.3817825  56.0834463  17.4386353
  77.9884771  55.5300662  18.1133997  79.1983965  56.3945042  17.8292870
  75.3479883  67.5218322   1.3499923  75.8604403  68.3161572   1.5005487
  76.0002596  66.8244612   1.2833524  77.1574768  70.6384078   3.4322676
  77.3341396  71.5602043   3.2443660  77.9531601  70.3242497   3.8617056
  81.2985786  57.4992342  15.0306609  82.0395499  58.0999496  14.9511072
  81.5303709  56.7569980  14.4724652  76.4427124  62.6848710  13.3084839
  76.3280639  61.7833967  13.6091938  75.5871642  62.9312406  12.9569656
  83.5218962  70.6266450  14.9072340  83.0782816  69.8402829  14.5893244
  84.1836175  70.8145601  14.2416231  78.2806083  72.1562252   9.4333018
  78.8313508  72.0279315   8.6610012  77.4417559  72.4557141   9.0827911
  85.6200200  70.9069250  12.9353741  85.6018675  71.7278131  12.4434010
  86.5420120  70.7823325  13.1603882  82.0773254  68.4213379  13.7777249
  82.6101591  67.6601668  13.5476557  81.5487335  68.1287031  14.5201404
  85.2442949  53.5273445   9.3070891  84.9007218  54.4175087   9.2310002
  85.6121912  53.3375103   8.4440476  73.3128800  65.8506976   2.1259493
  74.1504022  66.2603984   1.9093201  73.4907067  64.9106418   2.0959687
  85.2093232  63.5182056  -2.1856674  84.6939855  64.2886661  -1.9468286
  84.9370540  62.8447193  -1.5623612  82.7940343  58.3631757   2.8728565
  81.9381939  57.9738608   2.6934203  83.2067295  58.4423718   2.0128350
  84.3239489  55.8978101   7.2720124  83.8204285  55.8608236   6.4587930
  84.6170096  56.8070843   7.3316781  80.5682375  55.9816830   6.2786306
  81.4335372  55.7859639   5.9192196  80.6359884  55.7527182   7.2055663
  90.1827506  66.2714411  -0.2503500  89.4056949  65.9325571  -0.6948338
  90.8618987  66.2767034  -0.9248535  84.9979535  61.3909149  -0.3596893
  84.6929671  61.7055298   0.4913251  85.9509977  61.4690568  -0.3169560
  83.4425967  67.5499372   1.2896061  82.9147328  66.8152131   0.9769299
  82.9413470  68.3274048   1.0436030  88.4218813  65.7448392   6.4063108
  87.7642487  66.4347654   6.4943236  89.2259212  66.1344824   6.7497094
  78.1744694  58.2119038   3.6502673  78.7488446  57.9894220   2.9175866
  78.7615677  58.2807733   4.4031274  87.2324272  64.0992765   4.4567049
  87.7456153  64.7322757   4.9588759  87.8825495  63.4993961   4.0910409
  78.5014282  60.2423499  -2.3301442  77.6651594  60.5798186  -2.0092167
  78.3619051  60.1072479  -3.2674305  80.4767362  55.0860287   2.3777742
  79.8231774  54.7709304   1.7534357  80.4347836  54.4636028   3.1037565
  81.5878567  65.3679582  -5.7068966  80.6805629  65.1368836  -5.5077817
  82.0849599  64.5717201  -5.5194984  84.4946646  74.0777089  -2.7872279
  83.8208345  74.3808786  -2.1787322  84.8812468  74.8806170  -3.1366822
  83.7105102  61.5742221   6.7025390  82.7927664  61.7957168   6.5447078
  84.1265246  61.6488531   5.8437097  84.4940150  62.9733636   1.8328070
  85.2411969  63.4855034   1.5235192  84.7631740  62.6517689   2.6932464
  82.7666800  65.4692177  -1.1844975  81.8578020  65.1851210  -1.0872506
  82.7961884  65.8891256  -2.0441669  87.9986068  69.0798767   2.5846192
  87.5448395  68.2389676   2.6411383  87.3680035  69.7160165   2.9220972
  86.9418987  60.0090753   3.8146860  86.2041744  59.4968139   4.1457102
  87.1945761  59.5691134   3.0030136  86.4419007  70.9175263   3.5196010
  86.7341981  71.4780320   2.8008376  86.9517628  71.2103824   4.2749169
  87.0430615  52.7867005   4.4088629  87.3489492  51.9264368   4.1214544
  87.7683220  53.3784625   4.2087623  73.3354971  63.1897691   2.7970227
  73.1379371  62.5967052   2.0721293  72.7801635  62.8849901   3.5146166
  81.3151694  63.0820798   4.9164820  81.3700304  62.1294634   4.8407296
  80.5042896  63.2380237   5.4006118  82.4642888  67.0100921  -3.8456897
  82.0262318  66.2936780  -4.3051260  83.2053329  67.2377036  -4.4071806
  79.2544054  61.6997857   2.6755199  78.4411920  61.9992028   3.0820391
  79.7503049  61.3053546   3.3929681  81.4052632  71.6955614   4.6089463
  81.3628811  71.9216461   3.6797995  82.3215331  71.4618989   4.7575265
  84.8518266  62.1639682  11.5070093  85.2067654  62.3911155  12.3664558
  85.4990397  62.4958059  10.8847348  90.5816003  65.2858118   2.2119422
  90.4433902  65.4759714   1.2840611  90.2252222  66.0477501   2.6687473
  78.7458129  59.2716213   8.2916434  79.3857508  59.1304972   7.5939397
  77.9135660  58.9850726   7.9155036  90.6085383  67.3534645   7.2230693
  91.0421889  67.2609934   8.0713747  91.3216963  67.3292145   6.5850709
  79.5218433  68.5718643   4.4051426  80.3159032  68.0768963   4.2034001
  78.8110125  68.0436506   4.0419132  84.3413278  70.9536739   8.7563794
  84.3950300  71.5227675   9.5241510  83.4728059  71.1238624   8.3917831
  75.8301196  62.7161725   0.4811179  74.8998785  62.6546181   0.6981141
  75.9258668  62.1937678  -0.3152180  75.7486746  59.2416538   3.0689420
  76.0093563  60.1561871   2.9598581  76.5703918  58.7740980   3.2186033
  77.2211671  60.6554295  10.2388245  77.8934724  60.4471657   9.5900894
  76.3941457  60.4576381   9.7993477  91.4700932  67.3958345   9.7563579
  91.6636822  68.3004156  10.0022853  91.3701550  66.9365764  10.5902164
  83.1237243  57.2816236  12.2553906  82.4765158  57.9806186  12.1618382
  83.8938258  57.7152380  12.6230154  86.5316041  67.5465088  15.3304459
  86.3801547  67.3175640  14.4134543  86.5220720  68.5035690  15.3435804
  83.3001377  65.1197001  10.3150726  84.2293437  65.2708160  10.1419693
  82.8792407  65.2081022   9.4599372  82.0989709  69.1447665   8.0849263
  81.9600795  68.7766450   8.9575201  81.3104305  69.6595305   7.9133221
  82.6937861  74.2456762  -0.5725200  82.8689617  73.7744805   0.2420422
  82.0070649  74.8722528  -0.3443940  83.6494924  68.5229268   5.4738101
  83.3144757  68.4830038   6.3695751  83.1498870  67.8573984   5.0008511
  77.6239168  63.9296898  10.9990682  77.4858966  63.1977137  11.6002221
  78.5344092  63.8405798  10.7174870  86.5854116  65.8685302  -4.2524839
  85.9683286  65.1432131  -4.3491787  86.1170604  66.6294663  -4.5957765
  80.2521469  63.6416857  10.4874362  80.9621087  63.0010050  10.4460980
  80.2090777  63.8929752  11.4100543  88.2408247  70.5784211  13.4080941
  88.1820794  69.8943431  12.7411524  88.6427766  71.3203201  12.9561567
  78.9650403  60.6282075  12.3070001  78.4287760  60.1772814  12.9591598
  78.3767111  60.7627984  11.5640466  77.2598946  77.3946125   6.2014660
  77.4995545  78.0264649   6.8793678  76.4168143  77.0434165   6.4880019
  78.3752662  60.0870727  -5.1303535  77.4982128  59.9659527  -5.4941288
  78.8510415  59.2956805  -5.3824646  88.2425655  68.5423795  11.6394921
  87.3552434  68.2049716  11.7621320  88.8124206  67.8106826  11.8763686
  69.8954802  64.8747886   4.9637972  70.5825842  64.5609616   4.3758987
  69.7402931  65.7789251   4.6905224  74.6989524  59.7638083   9.3922996
  74.6147713  59.1563752   8.6573406  73.8772230  60.2547101   9.3932492
  81.7726808  73.2025247   8.6056164  81.6996980  74.0080218   9.1175468
  81.3304201  73.4017213   7.7804185  81.5616588  72.4397017   2.1158985
  80.7784110  72.9818697   2.2097210  82.2609333  72.9570997   2.5153227
  84.8713238  58.2491646   4.7593191  85.3681937  57.4961609   4.4394261
  84.1000219  58.2855963   4.1936400  92.7242995  63.9532012   6.4011482
  92.7132872  64.8356727   6.0305415  91.8560375  63.6003563   6.2066019
  84.2325492  73.1012081  10.7614323  84.9453464  73.7359546  10.6890224
  83.7415520  73.1975947   9.9454324  85.9543019  67.0063334   2.3331614
  85.0199297  67.1264796   2.1636319  86.1319687  66.1035800   2.0691624
  81.4548207  60.3909029   4.4864875  81.0845994  59.8380070   5.1745781
  81.9507299  59.7867163   3.9339875  89.3415570  62.8480653   2.8681648
  89.8076022  63.6808645   2.7941951  89.7923070  62.3825635   3.5726907
  79.2837405  70.8506524  11.5819893  79.9846865  71.4843007  11.7349288
  78.8132520  71.1921256  10.8215533  87.4091801  69.1924474  -0.1332200
  87.6851645  69.0781069   0.7761674  86.5396300  68.7941959  -0.1720026
  87.3132233  55.2161240   6.9072550  86.3995312  55.4465467   7.0754757
  87.7425334  55.2999684   7.7586582  87.0838691  63.4051132   9.4072444
  86.4310141  63.6527039   8.7524897  87.4619071  62.5915270   9.0734921
  84.0445865  73.4410825   3.5100614  84.2268260  72.6232481   3.9728366
  84.8678851  73.6578517   3.0725504  84.3788031  72.3679010   0.7715663
  84.9075797  71.8571465   0.1585825  84.6416250  72.0521540   1.6361196
  83.1326264  64.1470943  15.8938481  82.4566901  64.0465072  16.5640856
  83.9553898  63.9910157  16.3574478  74.8805123  70.3842880   8.5150996
  75.4658560  69.6386567   8.6478900  74.6829962  70.6946836   9.3987660
  77.7343778  73.4194127   3.5313438  77.0654154  73.9040255   3.0477479
  77.5956648  73.6663347   4.4456817  69.4722778  62.9548480   7.2355439
  69.5106878  62.4212070   8.0292557  68.9663071  62.4283685   6.6166416
  81.8749047  75.4537870  10.1296097  82.4267355  75.6169492  10.8945182
  82.2155241  76.0442308   9.4576122  76.8513540  57.8013020  10.7317982
  76.9154867  58.6627851  10.3195379  76.7880661  57.1887022   9.9990340
  76.3265813  59.8736153  14.3791016  76.9537852  59.4913230  14.9928540
  75.4693732  59.6550355  14.7446708  86.7259921  70.2799128  15.9844751
  87.2699825  70.8929086  15.4899706  86.1446766  70.8378706  16.5011764
  73.1031356  61.6812582   0.3109371  73.3984797  60.7723260   0.2576424
  72.2019391  61.6600321  -0.0109627  85.0117434  73.4019846   7.1159779
  84.8868574  72.6009586   6.6070724  85.6696525  73.8966039   6.6273749
  76.6325603  59.7568578   6.2936919  75.9112188  60.3704546   6.1544393
  77.4218858  60.2926343   6.2153565  87.0752343  71.2028866   8.7439329
  86.1282678  71.0834217   8.6717656  87.4235116  70.3151364   8.8265591
  79.4351916  57.0923005  12.5677571  79.9586318  57.3385302  13.3303880
  79.2164249  57.9243040  12.1480708  74.8319197  59.3626680   0.4348696
  74.5031903  58.4824058   0.2523802  75.1858568  59.3074348   1.3225085
  84.0798776  70.9981582   4.9443681  83.9323738  70.0698290   5.1251251
  84.9052270  71.0201673   4.4600757  77.9461020  59.6499649   0.8024173
  78.2857093  60.1785571   0.0802782  78.3933141  59.9880055   1.5782740
  87.6832898  71.8210141   6.0308554  88.6079445  71.6153002   5.8933005
  87.5148201  71.5726542   6.9397896  80.6404461  58.0336700  10.2527242
  80.3001282  57.2344513  10.6547921  79.9343467  58.3338411   9.6804075
  81.2920933  55.1186012   8.7054565  82.1147002  54.6446491   8.5833455
  81.5358996  55.8976496   9.2053251  79.9329167  58.1474271  -0.9982534
  80.6537530  58.5255524  -1.5018817  79.3094472  58.8663148  -0.8947556
  84.0760290  58.8519420  -0.0624201  84.2923905  59.7344058  -0.3635373
  83.5954357  58.4605633  -0.7918559  78.8159512  61.8105133   6.5146543
  78.6704092  62.1245436   7.4070825  78.3384715  62.4290033   5.9617442
  80.6755895  58.8007681   6.5627433  80.6617463  57.9048774   6.2259731
  81.3928323  58.8078345   7.1965719  82.5282025  59.2345021   8.6080560
  82.2699803  60.1562092   8.6064891  81.9967066  58.8375456   9.2981024
  87.4728214  72.3395808   1.3870646  87.6465092  71.7742231   0.6344498
  87.9657105  73.1396703   1.2050135  73.2905174  64.3510478   9.4534204
  72.7458642  65.1270285   9.5854479  74.1684524  64.6981282   9.2953326
  80.0792791  57.6822061   1.8315003  80.2008702  56.7538708   2.0305890
  79.7894833  57.6960747   0.9193318  82.9483981  55.3676972   4.9681723
  82.9705678  55.4316305   4.0133702  83.3652040  54.5281480   5.1622229
  93.3267605  65.1032231   3.0060945  93.7698751  64.3539557   2.6080069
  92.4494116  65.0942368   2.6234677  88.4603387  71.6562573  -1.5132456
  89.1554291  72.2769266  -1.2945142  88.8026537  70.8057924  -1.2380078
  74.0771196  63.4780374  12.3464361  73.3352932  63.6263009  12.9328992
  73.7563940  63.7388639  11.4831111  90.3594810  69.1062278   0.0154875
  90.8846134  69.4449551  -0.7095805  90.2717162  68.1709294  -0.1681991
  82.0214858  73.0196352  12.1444751  82.3301985  72.7745499  13.0167451
  82.8190340  73.2242990  11.6563621  82.0435470  75.1734262   4.3750128
  81.6040461  74.6810640   5.0682984  82.7943587  74.6307229   4.1342203
  74.5227809  71.3645803   4.3774756  75.3485829  71.0649574   3.9973399
  74.1721861  70.5953425   4.8264544  79.4909343  70.7172271   6.4472429
  78.8689352  70.0542976   6.1474657  80.1614209  70.7433403   5.7646077
  72.7236414  69.2832129   5.3363689  71.8868323  68.8554303   5.1547691
  72.6960060  69.4764572   6.2734481  79.5633870  59.1954059  16.0404935
  79.6122026  60.0716182  15.6582705  80.1056384  58.6531452  15.4676579
  90.0488716  69.7395182  15.3206073  89.2584259  69.7219321  14.7810572
  89.8122070  70.2783476  16.0755109  90.1686591  66.5887648  12.6338801
  90.2184596  66.4237656  13.5754324  90.0600514  65.7214907  12.2436682
  79.0522849  69.2676194  -0.0769110  79.2010970  69.9511658  -0.7302437
  79.8589293  69.2481284   0.4380346  87.4590353  62.5718576  13.9498108
  88.3600216  62.4325041  13.6582106  87.5338328  62.7373031  14.8896285
  81.7933159  59.9485431  12.7951294  80.9236468  60.2418997  12.5233883
  82.0292639  60.5325876  13.5158558  91.6704788  69.0084590  12.8780823
  91.3789596  69.3714570  13.7144284  91.0576919  68.2951598  12.6994155
  92.8700470  66.5737470   5.3983393  93.7047361  67.0127274   5.5620953
  93.0059599  66.0976123   4.5791639  89.9191976  64.1317205  11.3460881
  90.3946097  64.3244851  10.5379732  88.9957541  64.1876390  11.1004264
  76.8075482  65.2941372   0.9291959  76.5621524  64.3903702   1.1272169
  76.9771397  65.2958522  -0.0128563  84.4972192  56.1665048  10.3116714
  85.0154136  56.9026075   9.9863203  84.1427325  56.4729041  11.1463474
  76.0771130  61.0269729  -1.5721880  75.3840375  61.1014084  -2.2281844
  75.8322882  60.2630073  -1.0500363  84.7484787  52.5865331   5.8317611
  85.0286540  51.9188520   6.4578038  85.5335393  52.7794426   5.3192275
  82.5518255  71.7624325  -2.6057363  81.9792222  72.3814512  -3.0586891
  83.1251049  72.3123686  -2.0717441  88.6193645  61.0082965   9.5789186
  89.5711068  61.1081062   9.6001410  88.4497095  60.2161233  10.0887271
  86.6408024  58.0938548   9.7648587  86.0457956  58.3743561   9.0695076
  86.3557721  58.5832449  10.5365328  85.7715515  72.0461475  -1.4748780
  86.7046188  71.9807036  -1.2715905  85.6838728  72.8817742  -1.9334248
  88.4003531  71.3627345  -4.5144833  88.3217163  71.0287209  -3.6209075
  89.2213198  71.8549113  -4.5153360  91.0981723  64.2289084   8.6931486
  91.0658043  63.2905085   8.8791170  91.7082346  64.3073121   7.9597311
  82.9365054  63.0985137  -5.2641310  83.8824158  62.9691345  -5.1952892
  82.5579298  62.3599799  -4.7871882  91.2476211  61.0200128   8.7389769
  90.7315260  60.2358584   8.5519698  92.1316160  60.6918844   8.9036288
  88.9086938  54.7641143   4.6985582  88.7111759  54.4556231   5.5828914
  89.5186644  55.4902782   4.8283512  96.9158273  65.2905091   7.8337523
  97.6461661  65.0290379   8.3945226  96.3065218  64.5533813   7.8739591
  94.9973570  63.4312954   8.4311974  94.2706733  63.2968919   7.8228465
  94.5820857  63.7389782   9.2368692  82.8203746  67.1502883  16.1959347
  83.7406756  67.3281482  16.3899393  82.7853329  66.2058929  16.0439046
  81.1207971  61.0235114  -5.3286425  80.2139426  60.7268226  -5.2523711
  81.3983952  60.7264932  -6.1952139  72.0385911  62.3441477   5.1212621
  71.7188695  61.4906785   4.8286995  71.4919339  62.5590055   5.8770589
  75.8165819  65.0603918   8.8382128  76.0351828  65.9921026   8.8570162
  76.2291592  64.7011892   9.6236932  82.7370036  55.5672003   0.8257816
  81.9270765  55.2219088   1.2013062  83.4254453  55.2579547   1.4145428
  84.6660585  54.6450050   2.4482113  85.2191623  55.0645504   3.1072136
  84.9030671  53.7185798   2.4905069  80.6893684  60.6337124  18.2284877
  80.5890411  61.5831481  18.1596968  80.4715226  60.3055363  17.3560947
  79.8906755  57.8822049  -5.1874446  80.7525919  58.2076947  -4.9278628
  80.0757099  57.0953545  -5.7001380  71.9074171  65.9644389   7.0905743
  71.2137642  65.5498341   6.5775697  72.6547162  66.0064925   6.4939162
  88.0439392  56.7550575   1.9560777  87.4638061  57.4135379   1.5738830
  87.7775324  55.9327920   1.5448195  86.4942958  56.1555633   4.1582098
  86.9942737  56.2672168   3.3496416  87.1378566  55.8516686   4.7982906
  80.5524954  64.0634263  17.0449939  80.0692036  64.8634623  17.2513828
  80.6385893  64.0742208  16.0917383  73.8210914  65.8962642   4.9671758
  73.7981602  65.9950330   4.0153641  74.1311550  66.7427793   5.2888924
  76.4798291  67.9538797   9.0818372  77.4341545  67.9222740   9.0148304
  76.2810815  67.4929421   9.8968598  77.0697674  66.5239913  11.6489170
  77.8890563  67.0183992  11.6724007  77.3434481  65.6071882  11.6206738
  86.8264270  58.9150666   1.0117126  85.9390125  59.2000316   0.7937320
  87.2418259  58.7544429   0.1644402  90.1778806  58.9397187   4.7271465
  90.9539196  59.4293639   4.9996082  89.4526940  59.3655241   5.1843334
  92.6151365  59.6524806   5.7845405  93.2095855  59.4120542   5.0738714
  92.6877948  58.9331937   6.4118942  74.8348520  73.4958417   6.0988570
  74.7002988  72.7358818   5.5326568  74.4180583  74.2199317   5.6317359
  85.9707483  68.6795340  -4.8934854  86.6743333  68.8845343  -4.2777199
  85.2470132  69.2472102  -4.6285771  86.8005294  64.4305202   1.2267416
  86.7440495  64.8873753   0.3875048  87.3533636  63.6695886   1.0490258
  90.6110099  60.2194934   2.0517535  90.3547034  59.8191569   2.8825743
  89.9862967  60.9338727   1.9267674  94.9222437  62.9591007   4.5588827
  94.3621995  63.0284196   5.3320389  94.3165941  62.7831991   3.8388323
  77.9917646  74.3927734   6.3107013  77.8750030  75.3373166   6.2085703
  77.1710092  74.0901295   6.6992812  87.8794181  69.1177870  -2.8436394
  88.7139785  68.6859068  -3.0258920  87.7178524  68.9459883  -1.9159500
  87.5340073  65.6209983  -1.4780055  87.4788877  65.4554254  -2.4191611
  86.9086128  66.3286016  -1.3217865  72.3232588  60.8578047  12.3481367
  72.9691451  60.3477001  12.8368592  72.1149739  61.5946729  12.9224792
  84.8485980  67.9258895  17.8473508  85.7177140  68.0999547  17.4860143
  84.3692732  68.7453312  17.7249237  80.8436198  55.1218092  -1.8994737
  80.8314868  56.0659932  -1.7426466  81.7359620  54.9388237  -2.1935276
  79.0172160  75.0455996   9.5262941  79.9199407  75.0779606   9.8429436
  78.7909530  74.1156447   9.5409277  80.7725762  73.7986982   6.1873020
  79.8221393  73.7988844   6.0737392  81.0758248  73.0519717   5.6709055
  84.6588318  51.7160869   2.3551200  83.8920714  51.1619355   2.5007882
  85.0699023  51.7882737   3.2165352  76.6630079  58.0045664  16.4456381
  77.5261540  57.6482469  16.6559706  76.0895489  57.6659559  17.1331786
  96.5078456  79.6347521   7.2518782  97.1456866  79.5154268   6.5482122
  96.3899299  80.5828365   7.3106734  93.3168162  79.5874949   7.1880307
  92.9786674  79.4716014   6.3000842  94.1857930  79.1866114   7.1681313
  89.1754978  81.4410425   3.1777198  88.6119843  81.3500362   2.4093486
  89.0607373  80.6210330   3.6579691  93.7987945  80.7409801  13.1466513
  93.7876586  80.3462599  12.2747016  93.9608585  80.0075873  13.7400284
  86.7219410  82.9361617   6.0161418  87.5140702  82.5952441   5.6007718
  86.9616060  83.0456592   6.9363572  88.6810164  82.1970530  -1.1121203
  89.4541040  81.6499517  -1.2508327  89.0335562  83.0614779  -0.9006741
  90.5195206  83.5246912  12.0945697  90.2285072  84.4292543  11.9792363
  91.1552191  83.5663440  12.8089766  91.4451413  80.9023761   8.6847056
  92.0414985  80.6779783   7.9704019  91.5026385  80.1608506   9.2872504
  96.0619724  77.3598975   4.3271990  96.8482813  76.9418398   3.9762407
  96.3258429  78.2645067   4.4953639 101.4628151  77.2974208   5.2304969
 102.1953323  76.7273425   5.4642798 100.7067507  76.9095808   5.6711474
  90.7372730  80.2591302  -1.2778378  90.6208988  79.5836206  -0.6097294
  90.8474990  79.7723676  -2.0946225  93.0804271  79.7201449   2.4268311
  92.7162478  79.1932070   3.1381233  93.9371387  79.3299918   2.2534797
  98.9853572  71.0095782   9.6899577  98.6536897  71.8791193   9.4660792
  98.3899185  70.6932066  10.3693608  92.7209758  74.7491349  -2.5770340
  92.8884160  75.6171585  -2.2099869  92.5306927  74.9118631  -3.5009051
  95.4785091  83.2108328   9.0895490  95.1785814  84.1133367   8.9811297
  95.1336151  82.9440511   9.9416643  88.9297573  79.6622125   5.1232195
  88.0048069  79.5298339   5.3309886  89.1781986  80.4416344   5.6202137
  98.8782235  75.7290868   6.7692928  97.9699112  75.6606276   6.4751689
  98.8269831  76.2062813   7.5974753  92.6998979  77.2049006  -1.5923673
  92.5798604  77.6506057  -0.7538193  92.0051567  77.5534324  -2.1510135
  86.2906384  79.3055398   5.9575984  86.4198765  79.5589877   6.8715395
  85.6103835  79.8983106   5.6380639  92.9523101  77.1480514  14.7127825
  92.1756435  77.7074434  14.7030689  93.5913664  77.6337297  15.2342695
 100.7443881  73.9307306   8.5470801 100.1018262  74.2239840   7.9010596
 100.2398810  73.8160227   9.3523998  91.2069473  79.9565967  14.2745792
  91.9484158  80.4951011  13.9980615  90.5006459  80.5832256  14.4317344
  96.6824813  82.0995107  12.8717953  97.0908169  81.6577518  12.1272586
  95.9602074  81.5247735  13.1252146  93.0355883  77.0367714  10.2451510
  93.8817078  77.4607128  10.3886159  92.9754520  76.3801339  10.9390073
  97.0053627  82.6596298   6.6270242  96.3762490  82.8242012   5.9246310
  96.6179290  83.0737908   7.3981206 100.8842859  83.5950736   3.9814606
 100.1993897  83.9749637   3.4311639 100.9686709  84.2046063   4.7146554
  96.1855328  74.6972083  11.9032684  95.9416260  75.4514143  11.3666960
  96.4615259  75.0757430  12.7379931  98.1393791  81.2410695  10.5809949
  98.3510686  81.8842455   9.9044331  98.0923539  80.4073012  10.1131880
  95.7420020  73.8528516   7.4846522  94.8804499  74.1509769   7.7763259
  95.7682455  74.0698915   6.5527554  92.5581589  82.3970706   3.8920327
  93.0219935  82.6758409   3.1024950  92.2938387  81.4954151   3.7093418
  89.4505670  81.9442188   6.8300091  90.0207027  82.3729456   6.1917575
  90.0413782  81.6624772   7.5284276  91.4950475  78.5193859   0.7009892
  92.1974519  78.9714902   1.1683819  91.1631104  77.8777677   1.3289786
  89.9430837  77.1105615  15.0761102  89.3129497  77.7921896  15.3096499
  89.8366925  76.9988697  14.1314240  85.2375809  76.7777411   6.0027026
  84.4474863  77.0334940   5.5267137  85.7287057  77.5925749   6.1079067
  99.2539619  84.1182650   8.7532307 100.0757063  83.7162838   8.4714988
  99.2502022  84.0150885   9.7048423  87.1890555  77.1421990   2.9610503
  86.3921718  77.2540685   3.4793998  86.9616147  77.4808643   2.0951393
  93.0196222  83.6666694  10.9093017  93.0840655  84.1287101  11.7451189
  92.3107146  83.0364059  11.0375327  83.5213512  77.0307902   8.4342017
  83.7721551  77.9154912   8.6999593  84.0573061  76.8512503   7.6617109
 107.3445612  80.4621399   5.1017278 106.5909320  79.8928797   4.9461283
 107.4793153  80.4284063   6.0487913  89.2211580  71.4126381  17.4386353
  88.8278525  70.8592580  18.1133997  90.0377720  71.7236959  17.8292870
  86.1873637  82.8510239   1.3499923  86.6998158  83.6453489   1.5005487
  86.8396350  82.1536530   1.2833524  87.9968522  85.9675995   3.4322676
  88.1735150  86.8893960   3.2443660  88.7925356  85.6534415   3.8617056
  92.1379541  72.8284260  15.0306609  92.8789254  73.4291413  14.9511072
  92.3697463  72.0861898  14.4724652  87.2820879  78.0140627  13.3084839
  87.1674394  77.1125885  13.6091938  86.4265396  78.2604324  12.9569656
  94.3612716  85.9558368  14.9072340  93.9176571  85.1694746  14.5893244
  95.0229930  86.1437518  14.2416231  89.1199838  87.4854169   9.4333018
  89.6707263  87.3571233   8.6610012  88.2811313  87.7849058   9.0827911
  96.4593954  86.2361168  12.9353741  96.4412430  87.0570049  12.4434010
  97.3813874  86.1115243  13.1603882  92.9167009  83.7505297  13.7777249
  93.4495345  82.9893585  13.5476557  92.3881090  83.4578949  14.5201404
  96.0836704  68.8565363   9.3070891  95.7400973  69.7467005   9.2310002
  96.4515666  68.6667021   8.4440476  84.1522554  81.1798894   2.1259493
  84.9897776  81.5895902   1.9093201  84.3300822  80.2398336   2.0959687
  93.6334097  73.6923675   2.8728565  92.7775694  73.3030525   2.6934203
  94.0461049  73.7715636   2.0128350  95.1633244  71.2270018   7.2720124
  94.6598040  71.1900153   6.4587930  95.4563851  72.1362761   7.3316781
  91.4076130  71.3108748   6.2786306  92.2729127  71.1151557   5.9192196
  91.4753639  71.0819100   7.2055663  95.8373289  76.7201066  -0.3596893
  95.5323425  77.0347215   0.4913251  96.7903732  76.7982486  -0.3169560
  94.2819721  82.8791290   1.2896061  93.7541083  82.1444049   0.9769299
  93.7807224  83.6565966   1.0436030  99.2612567  81.0740310   6.4063108
  98.6036242  81.7639571   6.4943236 100.0652967  81.4636742   6.7497094
  89.0138449  73.5410956   3.6502673  89.5882201  73.3186137   2.9175866
  89.6009431  73.6099650   4.4031274  98.0718026  79.4284683   4.4567049
  98.5849908  80.0614675   4.9588759  98.7219250  78.8285878   4.0910409
  89.3408036  75.5715417  -2.3301442  88.5045348  75.9090103  -2.0092167
  89.2012806  75.4364397  -3.2674305  91.3161117  70.4152205   2.3777742
  90.6625529  70.1001222   1.7534357  91.2741591  69.7927945   3.1037565
  94.5498857  76.9034138   6.7025390  93.6321418  77.1249085   6.5447078
  94.9659001  76.9780449   5.8437097  95.3333905  78.3025554   1.8328070
  96.0805724  78.8146951   1.5235192  95.6025494  77.9809607   2.6932464
  97.7812742  75.3382670   3.8146860  97.0435499  74.8260056   4.1457102
  98.0339515  74.8983052   3.0030136  97.8824369  68.1158922   4.4088629
  98.1883246  67.2556286   4.1214544  98.6076974  68.7076542   4.2087623
  84.1748725  78.5189609   2.7970227  83.9773125  77.9258970   2.0721293
  83.6195389  78.2141819   3.5146166  92.1545449  78.4112715   4.9164820
  92.2094059  77.4586552   4.8407296  91.3436651  78.5672154   5.4006118
  90.0937809  77.0289775   2.6755199  89.2805674  77.3283946   3.0820391
  90.5896803  76.6345464   3.3929681  92.2446387  87.0247532   4.6089463
  92.2022566  87.2508378   3.6797995  93.1609086  86.7910907   4.7575265
  95.6912021  77.4931600  11.5070093  96.0461408  77.7203073  12.3664558
  96.3384152  77.8249976  10.8847348  89.5851884  74.6008131   8.2916434
  90.2251263  74.4596890   7.5939397  88.7529414  74.3142644   7.9155036
 101.4479137  82.6826562   7.2230693 101.8815644  82.5901852   8.0713747
 102.1610718  82.6584063   6.5850709  90.3612188  83.9010561   4.4051426
  91.1552786  83.4060881   4.2034001  89.6503880  83.3728424   4.0419132
  95.1807032  86.2828657   8.7563794  95.2344054  86.8519593   9.5241510
  94.3121813  86.4530542   8.3917831  86.6694951  78.0453643   0.4811179
  85.7392539  77.9838098   0.6981141  86.7652423  77.5229595  -0.3152180
  86.5880500  74.5708456   3.0689420  86.8487317  75.4853789   2.9598581
  87.4097672  74.1032898   3.2186033  88.0605425  75.9846213  10.2388245
  88.7328479  75.7763575   9.5900894  87.2335212  75.7868299   9.7993477
 102.3094687  82.7250263   9.7563579 102.5030577  83.6296074  10.0022853
 102.2095305  82.2657682  10.5902164  93.9630997  72.6108154  12.2553906
  93.3158912  73.3098103  12.1618382  94.7332013  73.0444298  12.6230154
  97.3709795  82.8757006  15.3304459  97.2195302  82.6467558  14.4134543
  97.3614475  83.8327607  15.3435804  94.1395132  80.4488919  10.3150726
  95.0687192  80.6000078  10.1419693  93.7186162  80.5372939   9.4599372
  92.9383464  84.4739583   8.0849263  92.7994549  84.1058367   8.9575201
  92.1498060  84.9887222   7.9133221  94.4888679  83.8521186   5.4738101
  94.1538511  83.8121956   6.3695751  93.9892624  83.1865902   5.0008511
  88.4632923  79.2588816  10.9990682  88.3252721  78.5269055  11.6002221
  89.3737846  79.1697716  10.7174870  91.0915223  78.9708775  10.4874362
  91.8014842  78.3301967  10.4460980  91.0484531  79.2221670  11.4100543
  99.0802002  85.9076128  13.4080941  99.0214548  85.2235349  12.7411524
  99.4821520  86.6495118  12.9561567  89.8044157  75.9573993  12.3070001
  89.2681514  75.5064731  12.9591598  89.2160866  76.0919902  11.5640466
  88.0992701  92.7238042   6.2014660  88.3389299  93.3556566   6.8793678
  87.2561897  92.3726082   6.4880019  89.2146416  75.4162644  -5.1303535
  88.3375883  75.2951445  -5.4941288  89.6904169  74.6248723  -5.3824646
  99.0819409  83.8715712  11.6394921  98.1946188  83.5341634  11.7621320
  99.6517960  83.1398744  11.8763686  80.7348556  80.2039804   4.9637972
  81.4219596  79.8901534   4.3758987  80.5796685  81.1081169   4.6905224
  85.5383279  75.0930001   9.3922996  85.4541467  74.4855670   8.6573406
  84.7165985  75.5839019   9.3932492  92.6120563  88.5317165   8.6056164
  92.5390734  89.3372136   9.1175468  92.1697956  88.7309130   7.7804185
  95.7106992  73.5783564   4.7593191  96.2075692  72.8253526   4.4394261
  94.9393974  73.6147881   4.1936400 103.5636750  79.2823930   6.4011482
 103.5526626  80.1648645   6.0305415 102.6954129  78.9295481   6.2066019
  95.0719246  88.4303999  10.7614323  95.7847218  89.0651464  10.6890224
  94.5809275  88.5267865   9.9454324  96.7936773  82.3355251   2.3331614
  95.8593052  82.4556714   2.1636319  96.9713442  81.4327718   2.0691624
  92.2941961  75.7200947   4.4864875  91.9239749  75.1671988   5.1745781
  92.7901054  75.1159081   3.9339875 100.1809324  78.1772571   2.8681648
 100.6469777  79.0100562   2.7941951 100.6316825  77.7117552   3.5726907
  90.1231160  86.1798442  11.5819893  90.8240619  86.8134925  11.7349288
  89.6526275  86.5213174  10.8215533  98.1525987  70.5453158   6.9072550
  97.2389067  70.7757384   7.0754757  98.5819089  70.6291602   7.7586582
  97.9232446  78.7343050   9.4072444  97.2703896  78.9818957   8.7524897
  98.3012826  77.9207188   9.0734921  93.9720019  79.4762861  15.8938481
  93.2960656  79.3756990  16.5640856  94.7947653  79.3202074  16.3574478
  85.7198878  85.7134797   8.5150996  86.3052315  84.9678485   8.6478900
  85.5223716  86.0238754   9.3987660  88.5737533  88.7486045   3.5313438
  87.9047908  89.2332172   3.0477479  88.4350403  88.9955265   4.4456817
  80.3116532  78.2840397   7.2355439  80.3500632  77.7503988   8.0292557
  79.8056825  77.7575603   6.6166416  92.7142802  90.7829788  10.1296097
  93.2661110  90.9461410  10.8945182  93.0548995  91.3734226   9.4576122
  87.6907295  73.1304938  10.7317982  87.7548621  73.9919769  10.3195379
  87.6274415  72.5178940   9.9990340  87.1659567  75.2028070  14.3791016
  87.7931606  74.8205148  14.9928540  86.3087486  74.9842272  14.7446708
  97.5653676  85.6091046  15.9844751  98.1093580  86.2221004  15.4899706
  96.9840521  86.1670624  16.5011764  83.9425110  77.0104500   0.3109371
  84.2378551  76.1015178   0.2576424  83.0413146  76.9892239  -0.0109627
  95.8511189  88.7311764   7.1159779  95.7262328  87.9301503   6.6070724
  96.5090280  89.2257957   6.6273749  87.4719357  75.0860496   6.2936919
  86.7505943  75.6996464   6.1544393  88.2612613  75.6218261   6.2153565
  97.9146097  86.5320784   8.7439329  96.9676433  86.4126135   8.6717656
  98.2628870  85.6443282   8.8265591  90.2745671  72.4214923  12.5677571
  90.7980072  72.6677219  13.3303880  90.0558004  73.2534957  12.1480708
  85.6712952  74.6918597   0.4348696  85.3425658  73.8115976   0.2523802
  86.0252322  74.6366266   1.3225085  94.9192531  86.3273500   4.9443681
  94.7717493  85.3990207   5.1251251  95.7446024  86.3493591   4.4600757
  88.7854775  74.9791567   0.8024173  89.1250847  75.5077488   0.0802782
  89.2326895  75.3171973   1.5782740  98.5226652  87.1502059   6.0308554
  99.4473200  86.9444920   5.8933005  98.3541956  86.9018460   6.9397896
  91.4798216  73.3628618  10.2527242  91.1395036  72.5636431  10.6547921
  90.7737222  73.6630329   9.6804075  92.1314687  70.4477930   8.7054565
  92.9540757  69.9738408   8.5833455  92.3752751  71.2268414   9.2053251
  90.7722922  73.4766189  -0.9982534  91.4931284  73.8547441  -1.5018817
  90.1488226  74.1955065  -0.8947556  94.9154045  74.1811338  -0.0624201
  95.1317659  75.0635975  -0.3635373  94.4348112  73.7897551  -0.7918559
  89.6553266  77.1397051   6.5146543  89.5097847  77.4537354   7.4070825
  89.1778470  77.7581951   5.9617442  91.5149649  74.1299599   6.5627433
  91.5011218  73.2340692   6.2259731  92.2322077  74.1370263   7.1965719
  93.3675780  74.5636939   8.6080560  93.1093558  75.4854010   8.6064891
  92.8360820  74.1667374   9.2981024  84.1298928  79.6802395   9.4534204
  83.5852396  80.4562203   9.5854479  85.0078278  80.0273200   9.2953326
  90.9186545  73.0113979   1.8315003  91.0402456  72.0830625   2.0305890
  90.6288587  73.0252665   0.9193318  93.7877735  70.6968890   4.9681723
  93.8099432  70.7608223   4.0133702  94.2045794  69.8573398   5.1622229
 104.1661360  80.4324149   3.0060945 104.6092506  79.6831474   2.6080069
 103.2887870  80.4234285   2.6234677  84.9164950  78.8072291  12.3464361
  84.1746686  78.9554927  12.9328992  84.5957695  79.0680557  11.4831111
  92.8608613  88.3488270  12.1444751  93.1695739  88.1037416  13.0167451
  93.6584095  88.5534908  11.6563621  92.8829225  90.5026179   4.3750128
  92.4434215  90.0102558   5.0682984  93.6337342  89.9599147   4.1342203
  85.3621564  86.6937720   4.3774756  86.1879584  86.3941492   3.9973399
  85.0115616  85.9245343   4.8264544  90.3303097  86.0464188   6.4472429
  89.7083106  85.3834893   6.1474657  91.0007964  86.0725320   5.7646077
  83.5630169  84.6124047   5.3363689  82.7262077  84.1846221   5.1547691
  83.5353814  84.8056490   6.2734481  90.4027625  74.5245976  16.0404935
  90.4515780  75.4008099  15.6582705  90.9450139  73.9823369  15.4676579
 100.8882470  85.0687100  15.3206073 100.0978014  85.0511239  14.7810572
 100.6515825  85.6075393  16.0755109 101.0080345  81.9179566  12.6338801
 101.0578350  81.7529574  13.5754324 100.8994269  81.0506825  12.2436682
  98.2984108  77.9010494  13.9498108  99.1993970  77.7616959  13.6582106
  98.3732082  78.0664949  14.8896285  92.6326913  75.2777349  12.7951294
  91.7630222  75.5710915  12.5233883  92.8686393  75.8617794  13.5158558
 102.5098542  84.3376508  12.8780823 102.2183350  84.7006488  13.7144284
 101.8970673  83.6243516  12.6994155 103.7094224  81.9029387   5.3983393
 104.5441116  82.3419191   5.5620953 103.8453353  81.4268041   4.5791639
 100.7585730  79.4609122  11.3460881 101.2339852  79.6536769  10.5379732
  99.8351296  79.5168308  11.1004264  87.6469237  80.6233289   0.9291959
  87.4015279  79.7195619   1.1272169  87.8165152  80.6250440  -0.0128563
  95.3365947  71.4956966  10.3116714  95.8547891  72.2317993   9.9863203
  94.9821080  71.8020959  11.1463474  86.9164885  76.3561647  -1.5721880
  86.2234129  76.4306002  -2.2281844  86.6716636  75.5921991  -1.0500363
  95.5878541  67.9157248   5.8317611  95.8680295  67.2480437   6.4578038
  96.3729148  68.1086344   5.3192275  99.4587399  76.3374882   9.5789186
 100.4104822  76.4372980   9.6001410  99.2890850  75.5453151  10.0887271
  97.4801779  73.4230466   9.7648587  96.8851711  73.7035478   9.0695076
  97.1951476  73.9124366  10.5365328 101.9375477  79.5581002   8.6931486
 101.9051797  78.6197003   8.8791170 102.5476101  79.6365039   7.9597311
 102.0869966  76.3492045   8.7389769 101.5709014  75.5650502   8.5519698
 102.9709914  76.0210762   8.9036288  99.7480693  70.0933061   4.6985582
  99.5505514  69.7848149   5.5828914 100.3580398  70.8194700   4.8283512
 107.7552027  80.6197009   7.8337523 108.4855415  80.3582297   8.3945226
 107.1458972  79.8825731   7.8739591 105.8367324  78.7604871   8.4311974
 105.1100488  78.6260836   7.8228465 105.4214611  79.0681700   9.2368692
  93.6597501  82.4794801  16.1959347  94.5800510  82.6573400  16.3899393
  93.6247084  81.5350846  16.0439046  82.8779666  77.6733395   5.1212621
  82.5582450  76.8198703   4.8286995  82.3313094  77.8881973   5.8770589
  86.6559573  80.3895836   8.8382128  86.8745583  81.3212944   8.8570162
  87.0685347  80.0303810   9.6236932  93.5763791  70.8963921   0.8257816
  92.7664519  70.5511006   1.2013062  94.2648208  70.5871465   1.4145428
  95.5054339  69.9741968   2.4482113  96.0585378  70.3937421   3.1072136
  95.7424426  69.0477716   2.4905069  91.5287438  75.9629042  18.2284877
  91.4284165  76.9123398  18.1596968  91.3108980  75.6347280  17.3560947
  90.7300510  73.2113967  -5.1874446  91.5919674  73.5368865  -4.9278628
  90.9150854  72.4245462  -5.7001380  82.7467926  81.2936306   7.0905743
  82.0531397  80.8790259   6.5775697  83.4940917  81.3356843   6.4939162
  98.8833146  72.0842493   1.9560777  98.3031815  72.7427297   1.5738830
  98.6169079  71.2619838   1.5448195  97.3336713  71.4847551   4.1582098
  97.8336491  71.5964085   3.3496416  97.9772321  71.1808604   4.7982906
  91.3918708  79.3926180  17.0449939  90.9085790  80.1926540  17.2513828
  91.4779648  79.4034125  16.0917383  84.6604668  81.2254560   4.9671758
  84.6375356  81.3242247   4.0153641  84.9705305  82.0719711   5.2888924
  87.3192046  83.2830715   9.0818372  88.2735300  83.2514657   9.0148304
  87.1204570  82.8221339   9.8968598  87.9091428  81.8531831  11.6489170
  88.7284317  82.3475910  11.6724007  88.1828236  80.9363799  11.6206738
  97.6658024  74.2442583   1.0117126  96.7783879  74.5292234   0.7937320
  98.0812013  74.0836347   0.1644402 101.0172560  74.2689104   4.7271465
 101.7932951  74.7585557   4.9996082 100.2920695  74.6947159   5.1843334
 103.4545119  74.9816724   5.7845405 104.0489610  74.7412460   5.0738714
 103.5271703  74.2623854   6.4118942  85.6742275  88.8250335   6.0988570
  85.5396743  88.0650735   5.5326568  85.2574337  89.5491234   5.6317359
  97.6399048  79.7597119   1.2267416  97.5834249  80.2165671   0.3875048
  98.1927390  78.9987804   1.0490258 101.4503854  75.5486851   2.0517535
 101.1940788  75.1483487   2.8825743 100.8256722  76.2630645   1.9267674
 105.7616192  78.2882924   4.5588827 105.2015750  78.3576114   5.3320389
 105.1559695  78.1123909   3.8388323  88.8311401  89.7219652   6.3107013
  88.7143785  90.6665084   6.2085703  88.0103847  89.4193213   6.6992812
  83.1626342  76.1869965  12.3481367  83.8085206  75.6768919  12.8368592
  82.9543493  76.9238647  12.9224792  95.6879735  83.2550812  17.8473508
  96.5570894  83.4291465  17.4860143  95.2086486  84.0745229  17.7249237
  91.6829953  70.4510010  -1.8994737  91.6708623  71.3951850  -1.7426466
  92.5753375  70.2680155  -2.1935276  89.8565915  90.3747913   9.5262941
  90.7593161  90.4071524   9.8429436  89.6303285  89.4448364   9.5409277
  91.6119517  89.1278900   6.1873020  90.6615148  89.1280762   6.0737392
  91.9152003  88.3811635   5.6709055  95.4982072  67.0452786   2.3551200
  94.7314468  66.4911273   2.5007882  95.9092777  67.1174655   3.2165352
  87.5023833  73.3337582  16.4456381  88.3655295  72.9774387  16.6559706
  86.9289244  72.9951477  17.1331786 104.6381700  96.0701718  13.1466513
 104.6270340  95.6754516  12.2747016 104.8002339  95.3367791  13.7400284
 109.8247326  86.3387700   9.6899577 109.4930651  87.2083111   9.4660792
 109.2292940  86.0223984  10.3693608 103.7916855  92.4772431  14.7127825
 103.0150189  93.0366351  14.7030689 104.4307418  92.9629214  15.2342695
 102.0463228  95.2857885  14.2745792 102.7877912  95.8242929  13.9980615
 101.3400213  95.9124173  14.4317344 103.8749637  92.3659632  10.2451510
 104.7210833  92.7899045  10.3886159 103.8148275  91.7093256  10.9390073
 107.0249083  90.0264000  11.9032684 106.7810015  90.7806061  11.3666960
 107.3009013  90.4049348  12.7379931 100.7824591  92.4397533  15.0761102
 100.1523252  93.1213814  15.3096499 100.6760679  92.3280614  14.1314240
  94.3607267  92.3599819   8.4342017  94.6115305  93.2446829   8.6999593
  94.8966815  92.1804421   7.6617109 100.0605334  86.7418299  17.4386353
  99.6672280  86.1884497  18.1133997 100.8771474  87.0528877  17.8292870
 102.9773295  88.1576178  15.0306609 103.7183008  88.7583331  14.9511072
 103.2091218  87.4153816  14.4724652  98.1214633  93.3432545  13.3084839
  98.0068148  92.4417802  13.6091938  97.2659151  93.5896242  12.9569656
 103.7560763  99.0797215  13.7777249 104.2889100  98.3185503  13.5476557
 103.2274844  98.7870867  14.5201404 106.9230458  84.1857281   9.3070891
 106.5794727  85.0758922   9.2310002 107.2909421  83.9958938   8.4440476
 102.2469884  86.6400666   6.2786306 103.1122881  86.4443474   5.9192196
 102.3147393  86.4111017   7.2055663 100.4245638  89.9300048   8.2916434
 101.0645017  89.7888807   7.5939397  99.5923169  89.6434562   7.9155036
  98.8999180  91.3138130  10.2388245  99.5722233  91.1055493   9.5900894
  98.0728966  91.1160216   9.7993477 104.8024752  87.9400071  12.2553906
 104.1552667  88.6390021  12.1618382 105.5725767  88.3736215  12.6230154
 108.2103550  98.2048923  15.3304459 108.0589056  97.9759475  14.4134543
 108.2008229  99.1619525  15.3435804  99.3026677  94.5880733  10.9990682
  99.1646475  93.8560972  11.6002221 100.2131601  94.4989633  10.7174870
 101.9308978  94.3000693  10.4874362 102.6408596  93.6593885  10.4460980
 101.8878286  94.5513588  11.4100543 100.6437912  91.2865911  12.3070001
 100.1075269  90.8356649  12.9591598 100.0554620  91.4211819  11.5640466
  96.3777033  90.4221918   9.3922996  96.2935222  89.8147588   8.6573406
  95.5559739  90.9130937   9.3932492 104.8113773  94.8054778  15.8938481
 104.1354410  94.7048908  16.5640856 105.6341407  94.6493992  16.3574478
  91.1510287  93.6132315   7.2355439  91.1894386  93.0795906   8.0292557
  90.6450580  93.0867521   6.6166416  98.5301049  88.4596856  10.7317982
  98.5942376  89.3211686  10.3195379  98.4668170  87.8470857   9.9990340
  98.0053322  90.5319988  14.3791016  98.6325361  90.1497065  14.9928540
  97.1481241  90.3134190  14.7446708 101.1139425  87.7506840  12.5677571
 101.6373827  87.9969137  13.3303880 100.8951758  88.5826875  12.1480708
 102.3191970  88.6920535  10.2527242 101.9788790  87.8928348  10.6547921
 101.6130976  88.9922246   9.6804075 102.9708442  85.7769848   8.7054565
 103.7934511  85.3030326   8.5833455 103.2146505  86.5560332   9.2053251
 104.2069534  89.8928857   8.6080560 103.9487312  90.8145927   8.6064891
 103.6754575  89.4959291   9.2981024  94.9692683  95.0094313   9.4534204
  94.4246151  95.7854121   9.5854479  95.8472033  95.3565117   9.2953326
  95.7558705  94.1364209  12.3464361  95.0140441  94.2846845  12.9328992
  95.4351449  94.3972475  11.4831111 101.2421379  89.8537894  16.0404935
 101.2909535  90.7300017  15.6582705 101.7843893  89.3115287  15.4676579
 109.1377862  93.2302412  13.9498108 110.0387725  93.0908877  13.6582106
 109.2125837  93.3956867  14.8896285 103.4720668  90.6069267  12.7951294
 102.6023977  90.9002833  12.5233883 103.7080148  91.1909712  13.5158558
 106.1759701  86.8248883  10.3116714 106.6941645  87.5609910   9.9863203
 105.8214834  87.1312877  11.1463474 108.3195533  88.7522383   9.7648587
 107.7245465  89.0327396   9.0695076 108.0345230  89.2416284  10.5365328
 104.4991255  97.8086719  16.1959347 105.4194265  97.9865318  16.3899393
 104.4640838  96.8642764  16.0439046 102.3681193  91.2920959  18.2284877
 102.2677920  92.2415316  18.1596968 102.1502735  90.9639198  17.3560947
 102.2312463  94.7218098  17.0449939 101.7479545  95.5218458  17.2513828
 102.3173402  94.7326043  16.0917383  98.7485183  97.1823749  11.6489170
  99.5678072  97.6767827  11.6724007  99.0221990  96.2655717  11.6206738
  94.0020097  91.5161883  12.3481367  94.6478960  91.0060837  12.8368592
  93.7937248  92.2530564  12.9224792 106.5273489  98.5842730  17.8473508
 107.3964649  98.7583382  17.4860143 106.0480240  99.4037147  17.7249237
  98.3417588  88.6629500  16.4456381  99.2049049  88.3066305  16.6559706
  97.7682998  88.3243395  17.1331786  82.9594192  42.4180005  -0.1288181
  82.9482833  42.0232804  -1.0007677  83.1214831  41.6846078   0.4645591
  79.6801453  45.2017117  -1.1808997  79.3891319  46.1062748  -1.2962331
  80.3158437  45.2433645  -0.4664927  84.6391338  44.8878533  -4.1859203
  84.3392061  45.7903572  -4.2943396  84.2942398  44.6210716  -3.3338050
  82.1129348  38.8250719   1.4373131  81.3362682  39.3844639   1.4275996
  82.7519911  39.3107502   1.9588002  80.3675720  41.6336172   0.9991098
  81.1090404  42.1721216   0.7225922  79.6612705  42.2602461   1.1562650
  85.8431060  43.7765312  -0.4036740  86.2514416  43.3347723  -1.1482108
  85.1208321  43.2017940  -0.1502547  87.3000038  42.9180900  -2.6944744
  87.5116933  43.5612660  -3.3710363  87.2529786  42.0843216  -3.1622814
  88.4145866  45.7952855  -4.5222387  89.2363309  45.3933043  -4.8039705
  88.4108269  45.6921089  -3.5706271  82.1802469  45.3436899  -2.3661676
  82.2446902  45.8057306  -1.5303504  81.4713393  44.7134264  -2.2379366
  83.5218963  47.6328573   1.6317646  83.0782817  46.8464951   1.3138551
  84.1836177  47.8207723   0.9661537  78.2806084  49.1624374  -3.8421675
  78.8313509  49.0341438  -4.6144681  77.4417560  49.4619263  -4.1926782
  85.6200201  47.9131373  -0.3400952  85.6018677  48.7340254  -0.8320683
  86.5420121  47.7885448  -0.1150811  82.0773255  45.4275502   0.5022556
  82.6101592  44.6663790   0.2721864  81.5487336  45.1349154   1.2446710
  90.6085384  44.3596767  -6.0524000  91.0421891  44.2672056  -5.2040946
  91.3216965  44.3354268  -6.6903984  84.3413279  47.9598861  -4.5190900
  84.3950301  48.5289798  -3.7513184  83.4728060  48.1300746  -4.8836862
  91.4700933  44.4020468  -3.5191115  91.6636823  45.3066278  -3.2731840
  91.3701552  43.9427887  -2.6852530  86.5316042  44.5527211   2.0549766
  86.3801549  44.3237762   1.1379850  86.5220722  45.5097812   2.0681111
  88.2408249  47.5846333   0.1326248  88.1820795  46.9005553  -0.5343169
  88.6427767  48.3265323  -0.3193126  77.2598948  54.4008247  -7.0740033
  77.4995546  55.0326771  -6.3961015  76.4168144  54.0496287  -6.7874674
  88.2425656  45.5485917  -1.6359773  87.3552435  45.2111839  -1.5133374
  88.8124207  44.8168948  -1.3991007  81.7726809  50.2087370  -4.6698529
  81.6996981  51.0142341  -4.1579225  81.3304203  50.4079335  -5.4950508
  84.2325493  50.1074204  -2.5140371  84.9453465  50.7421668  -2.5864469
  83.7415522  50.2038070  -3.3300369  79.2837406  47.8568647  -1.6934800
  79.9846866  48.4905130  -1.5405406  78.8132521  48.1983379  -2.4539161
  83.1326265  41.1533066   2.6183787  82.4566902  41.0527195   3.2886163
  83.9553899  40.9972279   3.0819785  81.8749048  52.4599993  -3.1458597
  82.4267356  52.6231615  -2.3809511  82.2155242  53.0504431  -3.8178572
  86.7259923  47.2861251   2.7090058  87.2699827  47.8991209   2.2145013
  86.1446767  47.8440829   3.2257071  85.0117436  50.4081969  -6.1594914
  84.8868575  49.6071708  -6.6683969  85.6696527  50.9028162  -6.6480944
  87.0752344  48.2090989  -4.5315364  86.1282680  48.0896340  -4.6037038
  87.4235117  47.3213487  -4.4489103  87.6832899  48.8272264  -7.2446139
  88.6079447  48.6215125  -7.3821688  87.5148203  48.5788665  -6.3356798
  82.0214860  50.0258475  -1.1309942  82.3301986  49.7807621  -0.2587243
  82.8190342  50.2305113  -1.6191072  90.0488717  46.7457305   2.0451379
  89.2584261  46.7281443   1.5055879  89.8122072  47.2845598   2.8000416
  90.1686592  43.5949771  -0.6415892  90.2184597  43.4299778   0.2999630
  90.0600515  42.7277030  -1.0318012  87.4590354  39.5780699   0.6743414
  88.3600217  39.4387164   0.3827412  87.5338329  39.7435154   1.6141592
  91.6704789  46.0146712  -0.3973871  91.3789597  46.3776693   0.4389590
  91.0576920  45.3013721  -0.5760539  89.9191977  41.1379327  -1.9293813
  90.3946099  41.3306973  -2.7374961  88.9957543  41.1938513  -2.1750429
  91.0981724  41.2351207  -4.5823208  91.0658044  40.2967208  -4.3963524
  91.7082348  41.3135244  -5.3157383  96.9158274  42.2967214  -5.4417171
  97.6461662  42.0352502  -4.8809467  96.3065219  41.5595936  -5.4015103
  94.9973571  40.4375076  -4.8442720  94.2706734  40.3031041  -5.4526228
  94.5820858  40.7451905  -4.0386001  82.8203747  44.1565006   2.9204653
  83.7406757  44.3343605   3.1144700  82.7853330  43.2121051   2.7684353
  80.6893685  37.6399246   4.9530184  80.5890412  38.5893603   4.8842275
  80.4715227  37.3117485   4.0806254  80.5524955  41.0696385   3.7695245
  80.0692037  41.8696745   3.9759134  80.6385894  41.0804330   2.8162689
  84.8485981  44.9321017   4.5718814  85.7177141  45.1061670   4.2105449
  84.3692733  45.7515434   4.4494544  79.0172162  52.0518118  -3.7491752
  79.9199408  52.0841729  -3.4325257  78.7909532  51.1218569  -3.7345416
  96.5078457  56.6409643  -6.0235911  97.1456867  56.5216391  -6.7272571
  96.3899300  57.5890487  -5.9647959  93.3168163  56.5937071  -6.0874386
  92.9786675  56.4778136  -6.9753851  94.1857931  56.1928237  -6.1073380
  89.1754979  58.4472548 -10.0977495  88.6119844  58.3562485 -10.8661208
  89.0607374  57.6272452  -9.6175003  93.7987946  57.7471923  -0.1288181
  93.7876587  57.3524721  -1.0007677  93.9608586  57.0137996   0.4645591
  86.7219411  59.9423739  -7.2593275  87.5140703  59.6014564  -7.6746976
  86.9616061  60.0518714  -6.3391122  88.6810165  59.2032653 -14.3875896
  89.4541041  58.6561640 -14.5263020  89.0335564  60.0676902 -14.1761435
  90.5195207  60.5309035  -1.1808997  90.2285073  61.4354666  -1.2962331
  91.1552192  60.5725563  -0.4664927  91.4451414  57.9085883  -4.5907637
  92.0414987  57.6841906  -5.3050674  91.5026386  57.1670629  -3.9882189
  96.0619726  54.3661097  -8.9482703  96.8482815  53.9480520  -9.2992286
  96.3258430  55.2707189  -8.7801055 101.4628153  54.3036330  -8.0449724
 102.1953325  53.7335547  -7.8111895 100.7067508  53.9157931  -7.6043219
  93.0804272  56.7263572 -10.8486382  92.7162480  56.1994193 -10.1373461
  93.9371388  56.3362041 -11.0219897  98.9853573  48.0157904  -3.5855116
  98.6536898  48.8853315  -3.8093901  98.3899186  47.6994188  -2.9061085
  95.4785093  60.2170450  -4.1859203  95.1785816  61.1195489  -4.2943396
  95.1336152  59.9502634  -3.3338050  88.9297574  56.6684247  -8.1522499
  88.0048070  56.5360461  -7.9444807  89.1781987  57.4478467  -7.6552556
  98.8782236  52.7352991  -6.5061766  97.9699114  52.6668399  -6.8003005
  98.8269832  53.2124936  -5.6779940  86.2906385  56.3117521  -7.3178710
  86.4198766  56.5652000  -6.4039298  85.6103836  56.9045229  -7.6374055
  92.9523102  54.1542636   1.4373131  92.1756436  54.7136556   1.4275996
  93.5913665  54.6399419   1.9588002 100.7443883  50.9369429  -4.7283892
 100.1018263  51.2301962  -5.3744097 100.2398811  50.8222349  -3.9230695
  91.2069474  56.9628090   0.9991098  91.9484159  57.5013134   0.7225922
  90.5006460  57.5894378   1.1562650  96.6824814  59.1057230  -0.4036740
  97.0908170  58.6639641  -1.1482108  95.9602076  58.5309858  -0.1502547
  93.0355884  54.0429837  -3.0303183  93.8817079  54.4669250  -2.8868534
  92.9754522  53.3863461  -2.3364620  97.0053629  59.6658421  -6.6484451
  96.3762491  59.8304135  -7.3508383  96.6179291  60.0800030  -5.8773487
 100.8842861  60.6012859  -9.2940087 100.1993899  60.9811760  -9.8443054
 100.9686710  61.2108185  -8.5608140  96.1855329  51.7034205  -1.3722009
  95.9416261  52.4576266  -1.9087734  96.4615260  52.0819553  -0.5374762
  98.1393792  58.2472818  -2.6944744  98.3510687  58.8904577  -3.3710363
  98.0923540  57.4135134  -3.1622814  95.7420021  50.8590638  -5.7908172
  94.8804500  51.1571892  -5.4991434  95.7682456  51.0761037  -6.7227139
  92.5581591  59.4032829  -9.3834366  93.0219936  59.6820532 -10.1729744
  92.2938389  58.5016273  -9.5661275  89.4505672  58.9504310  -6.4454603
  90.0207029  59.3791579  -7.0837118  90.0413783  58.6686895  -5.7470417
  91.4950477  55.5255981 -12.5744801  92.1974520  55.9777025 -12.1070875
  91.1631105  54.8839800 -11.9464908  89.9430838  54.1167738   1.8006408
  89.3129499  54.7984019   2.0341805  89.8366926  54.0050819   0.8559547
  85.2375811  53.7839534  -7.2727667  84.4474865  54.0397062  -7.7487557
  85.7287058  54.5987872  -7.1675627  99.2539620  61.1244773  -4.5222387
 100.0757064  60.7224960  -4.8039705  99.2502023  61.0213007  -3.5706271
  87.1890556  54.1484113 -10.3144191  86.3921719  54.2602807  -9.7960695
  86.9616148  54.4870765 -11.1803300  93.0196224  60.6728816  -2.3661676
  93.0840656  61.1349224  -1.5303504  92.3107147  60.0426181  -2.2379366
  83.5213514  54.0370024  -4.8412677  83.7721552  54.9217034  -4.5755101
  84.0573062  53.8574626  -5.6137585  89.2211581  48.4188504   4.1631660
  88.8278526  47.8654702   4.8379304  90.0377721  48.7299082   4.5538177
  86.1873639  59.8572362 -11.9254771  86.6998159  60.6515612 -11.7749206
  86.8396351  59.1598652 -11.9921169  87.9968523  62.9738118  -9.8432017
  88.1735152  63.8956083 -10.0311034  88.7925357  62.6596537  -9.4137638
  92.1379542  49.8346383   1.7551916  92.8789255  50.4353536   1.6756379
  92.3697465  49.0924021   1.1969959  87.2820880  55.0202750   0.0330146
  87.1674395  54.1188007   0.3337245  86.4265398  55.2666447  -0.3185038
  94.3612718  62.9620490   1.6317646  93.9176572  62.1756869   1.3138551
  95.0229931  63.1499641   0.9661537  89.1199839  64.4916292  -3.8421675
  89.6707264  64.3633355  -4.6144681  88.2811315  64.7911181  -4.1926782
  96.4593956  63.2423290  -0.3400952  96.4412431  64.0632171  -0.8320683
  97.3813876  63.1177365  -0.1150811  92.9167010  60.7567420   0.5022556
  93.4495347  59.9955708   0.2721864  92.3881091  60.4641072   1.2446710
  96.0836705  45.8627486  -3.9683802  95.7400974  46.7529127  -4.0444692
  96.4515667  45.6729143  -4.8314217  84.1522555  58.1861016 -11.1495200
  84.9897777  58.5958024 -11.3661492  84.3300823  57.2460458 -11.1795006
  93.6334099  50.6985798 -10.4026129  92.7775695  50.3092648 -10.5820490
  94.0461050  50.7777758 -11.2626343  95.1633245  48.2332141  -6.0034569
  94.6598041  48.1962276  -6.8166764  95.4563852  49.1424884  -5.9437912
  91.4076131  48.3170871  -6.9968387  92.2729128  48.1213679  -7.3562498
  91.4753640  48.0881222  -6.0699031  95.8373291  53.7263189 -13.6351586
  95.5323426  54.0409338 -12.7841443  96.7903733  53.8044609 -13.5924253
  94.2819723  59.8853412 -11.9858632  93.7541084  59.1506172 -12.2985395
  93.7807225  60.6628089 -12.2318664  99.2612569  58.0802433  -6.8691586
  98.6036243  58.7701694  -6.7811457 100.0652968  58.4698865  -6.5257599
  98.0718027  56.4346805  -8.8187644  98.5849909  57.0676797  -8.3165934
  98.7219251  55.8348001  -9.1844284  94.5498858  53.9096261  -6.5729303
  93.6321420  54.1311208  -6.7307615  94.9659002  53.9842571  -7.4317596
  95.3333906  55.3087677 -11.4426623  96.0805725  55.8209074 -11.7519501
  95.6025496  54.9871729 -10.5822230  97.7812743  52.3444793  -9.4607834
  97.0435500  51.8322179  -9.1297591  98.0339517  51.9045174 -10.2724557
  92.1545450  55.4174838  -8.3589873  92.2094060  54.4648674  -8.4347397
  91.3436652  55.5734277  -7.8748575  90.0937810  54.0351898 -10.5999495
  89.2805676  54.3346068 -10.1934302  90.5896804  53.6407586  -9.8825012
  92.2446388  64.0309655  -8.6665230  92.2022567  64.2570501  -9.5956698
  93.1609087  63.7973029  -8.5179429  95.6912022  54.4993722  -1.7684601
  96.0461410  54.7265195  -0.9090135  96.3384153  54.8312099  -2.3907345
  89.5851885  51.6070253  -4.9838260  90.2251264  51.4659012  -5.6815296
  88.7529415  51.3204767  -5.3599658 101.4479138  59.6888685  -6.0524000
 101.8815645  59.5963974  -5.2040946 102.1610719  59.6646185  -6.6903984
  90.3612189  60.9072684  -8.8703267  91.1552787  60.4123004  -9.0720692
  89.6503881  60.3790547  -9.2335562  95.1807033  63.2890779  -4.5190900
  95.2344056  63.8581715  -3.7513184  94.3121815  63.4592664  -4.8836862
  88.0605427  52.9908335  -3.0366448  88.7328480  52.7825697  -3.6853799
  87.2335213  52.7930421  -3.4761216 102.3094688  59.7312386  -3.5191115
 102.5030578  60.6358196  -3.2731840 102.2095306  59.2719805  -2.6852530
  93.9630999  49.6170276  -1.0200787  93.3158914  50.3160226  -1.1136311
  94.7332014  50.0506420  -0.6524539  97.3709797  59.8819128   2.0549766
  97.2195303  59.6529680   1.1379850  97.3614476  60.8389730   2.0681111
  94.1395133  57.4551041  -2.9603968  95.0687193  57.6062201  -3.1335000
  93.7186163  57.5435062  -3.8155321  92.9383465  61.4801706  -5.1905430
  92.7994550  61.1120490  -4.3179492  92.1498061  61.9949345  -5.3621472
  94.4888680  60.8583308  -7.8016592  94.1538513  60.8184078  -6.9058942
  93.9892626  60.1928024  -8.2746182  88.4632924  56.2650938  -2.2764011
  88.3252722  55.5331177  -1.6752472  89.3737847  56.1759838  -2.5579823
  91.0915225  55.9770898  -2.7880332  91.8014843  55.3364090  -2.8293713
  91.0484533  56.2283792  -1.8654151  99.0802003  62.9138251   0.1326248
  99.0214549  62.2297471  -0.5343169  99.4821522  63.6557241  -0.3193126
  89.8044159  52.9636116  -0.9684692  89.2681516  52.5126854  -0.3163096
  89.2160867  53.0982024  -1.7114228  88.0992702  69.7300165  -7.0740033
  88.3389300  70.3618689  -6.3961015  87.2561899  69.3788205  -6.7874674
  99.0819411  60.8777835  -1.6359773  98.1946189  60.5403757  -1.5133374
  99.6517962  60.1460866  -1.3991007  80.7348558  57.2101927  -8.3116721
  81.4219597  56.8963657  -8.8995706  80.5796686  58.1143291  -8.5849470
  85.5383280  52.0992123  -3.8831698  85.4541468  51.4917793  -4.6181288
  84.7165986  52.5901142  -3.8822201  92.6120564  65.5379287  -4.6698529
  92.5390735  66.3434259  -4.1579225  92.1697957  65.7371253  -5.4950508
  95.7106994  50.5845687  -8.5161503  96.2075693  49.8315649  -8.8360432
  94.9393975  50.6210003  -9.0818293 103.5636751  56.2886052  -6.8743211
 103.5526627  57.1710768  -7.2449278 102.6954130  55.9357603  -7.0688674
  95.0719247  65.4366121  -2.5140371  95.7847220  66.0713586  -2.5864469
  94.5809276  65.5329987  -3.3300369  96.7936774  59.3417374 -10.9423079
  95.8593053  59.4618836 -11.1118375  96.9713443  58.4389841 -11.2063069
  92.2941962  52.7263070  -8.7889818  91.9239750  52.1734110  -8.1008912
  92.7901055  52.1221203  -9.3414818 100.1809326  55.1834693 -10.4073045
 100.6469778  56.0162685 -10.4812742 100.6316826  54.7179675  -9.7027786
  90.1231161  63.1860565  -1.6934800  90.8240620  63.8197048  -1.5405406
  89.6526276  63.5275296  -2.4539161  98.1525988  47.5515280  -6.3682144
  97.2389068  47.7819507  -6.1999937  98.5819090  47.6353724  -5.5168111
  97.9232447  55.7405172  -3.8682250  97.2703897  55.9881080  -4.5229797
  98.3012827  54.9269310  -4.2019772  93.9720020  56.4824983   2.6183787
  93.2960657  56.3819113   3.2886163  94.7947654  56.3264197   3.0819785
  85.7198879  62.7196920  -4.7603697  86.3052316  61.9740608  -4.6275793
  85.5223717  63.0300877  -3.8767033  88.5737534  65.7548167  -9.7441255
  87.9047909  66.2394295 -10.2277215  88.4350404  66.0017388  -8.8297876
  80.3116534  55.2902520  -6.0399254  80.3500633  54.7566111  -5.2462136
  79.8056827  54.7637726  -6.6588277  92.7142803  67.7891911  -3.1458597
  93.2661111  67.9523532  -2.3809511  93.0548996  68.3796349  -3.8178572
  87.6907296  50.1367061  -2.5436712  87.7548623  50.9981891  -2.9559314
  87.6274416  49.5241062  -3.2764353  87.1659569  52.2090193   1.1036322
  87.7931607  51.8267270   1.7173847  86.3087487  51.9904395   1.4692015
  97.5653677  62.6153168   2.7090058  98.1093581  63.2283126   2.2145013
  96.9840522  63.1732747   3.2257071  95.8511190  65.7373886  -6.1594914
  95.7262330  64.9363626  -6.6683969  96.5090281  66.2320080  -6.6480944
  87.4719358  52.0922619  -6.9817774  86.7505944  52.7058586  -7.1210301
  88.2612614  52.6280384  -7.0601128  97.9146098  63.5382906  -4.5315364
  96.9676434  63.4188258  -4.6037038  98.2628872  62.6505404  -4.4489103
  90.2745672  49.4277045  -0.7077122  90.7980074  49.6739342   0.0549187
  90.0558005  50.2597080  -1.1273985  94.9192532  63.3335623  -8.3311012
  94.7717494  62.4052330  -8.1503442  95.7446025  63.3555713  -8.8153937
  98.5226654  64.1564181  -7.2446139  99.4473201  63.9507043  -7.3821688
  98.3541957  63.9080582  -6.3356798  91.4798217  50.3690740  -3.0227452
  91.1395037  49.5698553  -2.6206772  90.7737223  50.6692451  -3.5950619
  92.1314689  47.4540053  -4.5700129  92.9540758  46.9800531  -4.6921239
  92.3752752  48.2330537  -4.0701443  89.6553267  54.1459173  -6.7608150
  89.5097848  54.4599476  -5.8683869  89.1778471  54.7644074  -7.3137252
  91.5149650  51.1361721  -6.7127261  91.5011219  50.2402815  -7.0494963
  92.2322078  51.1432385  -6.0788975  93.3675781  51.5699062  -4.6674133
  93.1093559  52.4916132  -4.6689803  92.8360821  51.1729496  -3.9773669
  84.1298930  56.6864518  -3.8220489  83.5852398  57.4624326  -3.6900215
  85.0078280  57.0335322  -3.9801368  93.7877737  47.7031012  -8.3072971
  93.8099433  47.7670345  -9.2620991  94.2045796  46.8635521  -8.1132465
  84.9164952  55.8134414  -0.9290332  84.1746688  55.9617049  -0.3425702
  84.5957696  56.0742680  -1.7923583  92.8608614  65.3550392  -1.1309942
  93.1695741  65.1099539  -0.2587243  93.6584096  65.5597031  -1.6191072
  92.8829226  67.5088302  -8.9004566  92.4434216  67.0164681  -8.2071709
  93.6337343  66.9661270  -9.1412490  85.3621565  63.6999843  -8.8979938
  86.1879585  63.4003615  -9.2781294  85.0115617  62.9307465  -8.4490149
  90.3303098  63.0526311  -6.8282264  89.7083108  62.3897016  -7.1280036
  91.0007965  63.0787443  -7.5108616  83.5630170  61.6186169  -7.9391004
  82.7262079  61.1908344  -8.1207003  83.5353816  61.8118613  -7.0020213
  90.4027626  51.5308099   2.7650242  90.4515781  52.4070222   2.3828012
  90.9450140  50.9885492   2.1921885 100.8882472  62.0749222   2.0451379
 100.0978015  62.0573361   1.5055879 100.6515826  62.6137516   2.8000416
 101.0080347  58.9241689  -0.6415892 101.0578351  58.7591696   0.2999630
 100.8994270  58.0568948  -1.0318012  98.2984109  54.9072617   0.6743414
  99.1993972  54.7679082   0.3827412  98.3732083  55.0727072   1.6141592
  92.6326914  52.2839471  -0.4803399  91.7630224  52.5773037  -0.7520811
  92.8686395  52.8679916   0.2403864 102.5098543  61.3438630  -0.3973871
 102.2183352  61.7068611   0.4389590 101.8970675  60.6305638  -0.5760539
 103.7094226  58.9091510  -7.8771301 104.5441117  59.3481314  -7.7133740
 103.8453354  58.4330163  -8.6963055 100.7585732  56.4671245  -1.9293813
 101.2339853  56.6598891  -2.7374961  99.8351297  56.5230431  -2.1750429
  87.6469238  57.6295412 -12.3462735  87.4015280  56.7257742 -12.1482524
  87.8165153  57.6312562 -13.2883257  95.3365948  48.5019088  -2.9637979
  95.8547892  49.2380115  -3.2891490  94.9821081  48.8083082  -2.1291220
  95.5878542  44.9219371  -7.4437082  95.8680296  44.2542560  -6.8176656
  96.3729149  45.1148467  -7.9562418  99.4587401  53.3437005  -3.6965507
 100.4104824  53.4435103  -3.6753283  99.2890851  52.5515273  -3.1867423
  97.4801780  50.4292588  -3.5106106  96.8851712  50.7097601  -4.2059618
  97.1951477  50.9186489  -2.7389365 101.9375478  56.5643125  -4.5823208
 101.9051799  55.6259125  -4.3963524 102.5476102  56.6427161  -5.3157383
 102.0869967  53.3554168  -4.5364924 101.5709016  52.5712625  -4.7234995
 102.9709915  53.0272885  -4.3718405 107.7552028  57.6259131  -5.4417171
 108.4855417  57.3644420  -4.8809467 107.1458974  56.8887853  -5.4015103
 105.8367325  55.7666994  -4.8442720 105.1100489  55.6322959  -5.4526228
 105.4214612  56.0743823  -4.0386001  93.6597502  59.4856924   2.9204653
  94.5800511  59.6635523   3.1144700  93.6247085  58.5412969   2.7684353
  82.8779667  54.6795517  -8.1542072  82.5582451  53.8260826  -8.4467698
  82.3313095  54.8944096  -7.3984105  86.6559574  57.3957958  -4.4372565
  86.8745584  58.3275066  -4.4184532  87.0685348  57.0365933  -3.6517762
  91.5287440  52.9691164   4.9530184  91.4284167  53.9185521   4.8842275
  91.3108982  52.6409403   4.0806254  82.7467927  58.2998429  -6.1848950
  82.0531398  57.8852382  -6.6978996  83.4940918  58.3418965  -6.7815531
  91.3918710  56.3988303   3.7695245  90.9085791  57.1988663   3.9759134
  91.4779649  56.4096248   2.8162689  84.6604669  58.2316683  -8.3082935
  84.6375357  58.3304370  -9.2601052  84.9705306  59.0781833  -7.9865769
  87.3192047  60.2892838  -4.1936321  88.2735301  60.2576780  -4.2606389
  87.1204571  59.8283461  -3.3786095  87.9091429  58.8593954  -1.6265523
  88.7284318  59.3538032  -1.6030686  88.1828237  57.9425922  -1.6547956
 101.0172562  51.2751227  -8.5483229 101.7932952  51.7647679  -8.2758612
 100.2920696  51.7009281  -8.0911359  85.6742276  65.8312457  -7.1766123
  85.5396744  65.0712858  -7.7428125  85.2574338  66.5553357  -7.6437334
  97.6399049  56.7659242 -12.0487278  97.5834251  57.2227793 -12.8879645
  98.1927392  56.0049927 -12.2264435  88.8311402  66.7281774  -6.9647680
  88.7143786  67.6727207  -7.0668990  88.0103848  66.4255336  -6.5761881
  83.1626344  53.1932088  -0.9273326  83.8085207  52.6831042  -0.4386101
  82.9543495  53.9300769  -0.3529901  95.6879736  60.2612935   4.5718814
  96.5570895  60.4353587   4.2105449  95.2086487  61.0807352   4.4494544
  89.8565916  67.3810036  -3.7491752  90.7593163  67.4133646  -3.4325257
  89.6303286  66.4510487  -3.7345416  91.6119518  66.1341023  -7.0881673
  90.6615149  66.1342884  -7.2017301  91.9152004  65.3873757  -7.6045639
  87.5023835  50.3399705   3.1701688  88.3655296  49.9836509   3.3805013
  86.9289245  50.0013599   3.8577092 104.6381701  73.0763841  -0.1288181
 104.6270342  72.6816639  -1.0007677 104.8002340  72.3429913   0.4645591
 109.8247327  63.3449822  -3.5855116 109.4930652  64.2145233  -3.8093901
 109.2292941  63.0286106  -2.9061085 103.7916857  69.4834554   1.4373131
 103.0150191  70.0428474   1.4275996 104.4307420  69.9691337   1.9588002
 102.0463229  72.2920007   0.9991098 102.7877913  72.8305051   0.7225922
 101.3400214  72.9186296   1.1562650 103.8749639  69.3721755  -3.0303183
 104.7210834  69.7961168  -2.8868534 103.8148276  68.7155379  -2.3364620
 107.0249084  67.0326123  -1.3722009 106.7810016  67.7868183  -1.9087734
 107.3009014  67.4111470  -0.5374762 100.7824593  69.4459655   1.8006408
 100.1523253  70.1275936   2.0341805 100.6760681  69.3342737   0.8559547
  94.3607268  69.3661942  -4.8412677  94.6115306  70.2508952  -4.5755101
  94.8966816  69.1866543  -5.6137585 100.0605335  63.7480421   4.1631660
  99.6672281  63.1946620   4.8379304 100.8771476  64.0591000   4.5538177
 102.9773296  65.1638300   1.7551916 103.7183010  65.7645454   1.6756379
 103.2091219  64.4215938   1.1969959  98.1214634  70.3494668   0.0330146
  98.0068149  69.4479925   0.3337245  97.2659152  70.5958364  -0.3185038
 103.7560764  76.0859337   0.5022556 104.2889101  75.3247626   0.2721864
 103.2274845  75.7932989   1.2446710 106.9230459  61.1919403  -3.9683802
 106.5794729  62.0821045  -4.0444692 107.2909422  61.0021061  -4.8314217
 102.2469886  63.6462788  -6.9968387 103.1122882  63.4505597  -7.3562498
 102.3147394  63.4173140  -6.0699031 100.4245639  66.9362171  -4.9838260
 101.0645019  66.7950930  -5.6815296  99.5923170  66.6496684  -5.3599658
  98.8999181  68.3200253  -3.0366448  99.5722235  68.1117615  -3.6853799
  98.0728968  68.1222339  -3.4761216 104.8024753  64.9462194  -1.0200787
 104.1552668  65.6452144  -1.1136311 105.5725769  65.3798338  -0.6524539
 108.2103551  75.2111046   2.0549766 108.0589057  74.9821598   1.1379850
 108.2008231  76.1681648   2.0681111  99.3026678  71.5942856  -2.2764011
  99.1646476  70.8623095  -1.6752472 100.2131602  71.5051756  -2.5579823
 101.9308979  71.3062815  -2.7880332 102.6408598  70.6656007  -2.8293713
 101.8878287  71.5575710  -1.8654151 100.6437913  68.2928033  -0.9684692
 100.1075270  67.8418772  -0.3163096 100.0554621  68.4273942  -1.7114228
  96.3777034  67.4284041  -3.8831698  96.2935223  66.8209710  -4.6181288
  95.5559741  67.9193059  -3.8822201 104.8113774  71.8116901   2.6183787
 104.1354411  71.7111030   3.2886163 105.6341408  71.6556115   3.0819785
  91.1510288  70.6194438  -6.0399254  91.1894388  70.0858028  -5.2462136
  90.6450581  70.0929643  -6.6588277  98.5301051  65.4658978  -2.5436712
  98.5942377  66.3273809  -2.9559314  98.4668171  64.8532980  -3.2764353
  98.0053323  67.5382111   1.1036322  98.6325362  67.1559188   1.7173847
  97.1481242  67.3196313   1.4692015 101.1139426  64.7568963  -0.7077122
 101.6373828  65.0031259   0.0549187 100.8951760  65.5888998  -1.1273985
 102.3191971  65.6982658  -3.0227452 101.9788792  64.8990471  -2.6206772
 101.6130978  65.9984369  -3.5950619 102.9708443  62.7831970  -4.5700129
 103.7934513  62.3092449  -4.6921239 103.2146507  63.5622454  -4.0701443
 104.2069536  66.8990979  -4.6674133 103.9487313  67.8208050  -4.6689803
 103.6754576  66.5021414  -3.9773669  94.9692684  72.0156435  -3.8220489
  94.4246152  72.7916243  -3.6900215  95.8472034  72.3627240  -3.9801368
  95.7558706  71.1426332  -0.9290332  95.0140442  71.2908967  -0.3425702
  95.4351450  71.4034597  -1.7923583 101.2421380  66.8600017   2.7650242
 101.2909536  67.7362140   2.3828012 101.7843895  66.3177410   2.1921885
 109.1377863  70.2364534   0.6743414 110.0387726  70.0970999   0.3827412
 109.2125838  70.4018989   1.6141592 103.4720669  67.6131389  -0.4803399
 102.6023978  67.9064955  -0.7520811 103.7080149  68.1971834   0.2403864
 106.1759703  63.8311006  -2.9637979 106.6941646  64.5672033  -3.2891490
 105.8214835  64.1374999  -2.1291220 108.3195535  65.7584506  -3.5106106
 107.7245467  66.0389519  -4.2059618 108.0345231  66.2478407  -2.7389365
 104.4991256  74.8148841   2.9204653 105.4194266  74.9927440   3.1144700
 104.4640839  73.8704887   2.7684353 102.3681194  68.2983082   4.9530184
 102.2677921  69.2477439   4.8842275 102.1502736  67.9701321   4.0806254
 102.2312464  71.7280221   3.7695245 101.7479546  72.5280581   3.9759134
 102.3173403  71.7388165   2.8162689  98.7485184  74.1885871  -1.6265523
  99.5678073  74.6829950  -1.6030686  99.0221992  73.2717840  -1.6547956
  94.0020098  68.5224005  -0.9273326  94.6478962  68.0122959  -0.4386101
  93.7937249  69.2592687  -0.3529901 106.5273490  75.5904853   4.5718814
 107.3964650  75.7645505   4.2105449 106.0480242  76.4099270   4.4494544
  98.3417589  65.6691622   3.1701688  99.2049051  65.3128427   3.3805013
  97.7683000  65.3305517   3.8577092   3.9084353 123.2849966  84.8833126
   4.6409525 122.7149183  85.1170955   3.1523709 122.8971567  85.3239632
   1.4309774 116.9971540  89.3427735   1.0993099 117.8666951  89.1188950
   0.8355387 116.6807824  90.0221765   1.3238437 121.7166626  86.4221085
   0.4155314 121.6482035  86.1279846   1.2726033 122.1938571  87.2502910
   3.1900083 119.9183065  88.1998959   2.5474464 120.2115598  87.5538753
   2.6855012 119.8035985  89.0052155   0.3280571 114.1034681  84.0616786
   0.6339448 113.2432044  83.7742701   1.0533176 114.6952301  83.8615780
   1.9043601 122.3250641  89.2317343   2.8561024 122.4248738  89.2529567
   1.7347052 121.5328909  89.7415428   4.5326168 122.3367804  88.3917926
   4.0165216 121.5526260  88.2047855   5.4166116 122.0086520  88.5564446
   2.1936895 116.0808819  84.3513739   1.9961716 115.7723908  85.2357071
   2.8036600 116.8070458  84.4811669   8.2823526 124.7480630  88.0840131
   7.5556690 124.6136595  87.4756623   7.8670813 125.0557458  88.8896849
   1.3289348 118.0718251  81.6088934   0.7488017 118.7303055  81.2266987
   1.0625281 117.2495596  81.1976352   3.4628762 120.2564863  84.3799622
   4.2389153 120.7461315  84.6524239   2.7376897 120.6822917  84.8371491
   5.9001321 120.9692482  85.4373563   6.4945812 120.7288218  84.7266871
   5.9727905 120.2499613  86.0647099   3.8960056 121.5362610  81.7045692
   3.6396990 121.1359245  82.5353900   3.2712924 122.2506404  81.5795831
   8.2072394 124.2758683  84.2116984   7.6471952 124.3451872  84.9848546
   7.6015897 124.0999667  83.4916480   3.9084355 100.2912089  71.6078433
   4.6409527  99.7211306  71.8416262   3.1523710  99.9033689  72.0484938
   1.4309775  94.0033663  76.0673041   1.0993100  94.8729074  75.8434256
   0.8355388  93.6869947  76.7467072   1.3238438  98.7228749  73.1466391
   0.4155316  98.6544157  72.8525152   1.2726034  99.2000694  73.9748217
   3.1900085  96.9245187  74.9244265   2.5474465  97.2177721  74.2784060
   2.6855013  96.8098108  75.7297462   0.8440248 100.6708361  65.6130124
   1.7558105 100.9035747  65.4377822   0.3349895 101.2545405  65.0505203
   3.3299063 106.5888617  70.3588070   2.6450101 106.9687518  69.8085103
   3.4142912 107.1983944  71.0920017   0.5849994 104.2348576  76.9583413
   0.7966889 104.8780336  76.2817794   0.5379742 103.4010892  76.4905343
   1.6995822 107.1120531  75.1305771   2.5213266 106.7100719  74.8488452
   1.6958225 107.0088766  76.0821886   9.7901815 103.4559280  71.4790742
   9.0365524 102.8866678  71.3234746   9.9249356 103.4221944  72.4261377
   3.4677464 104.5944210  66.1269963   2.6906906 104.2555369  65.6825126
   4.1468945 104.5996833  65.4524928   1.7068771 104.0678191  72.7836571
   1.0492445 104.7577452  72.8716700   2.5109170 104.4574623  73.1270558
   0.5174229 102.4222564  70.8340513   1.0306111 103.0552556  71.3362223
   1.1675453 101.8223759  70.4683873   1.2836026 107.4028565  68.9619656
   0.8298353 106.5619475  69.0184846   0.6529992 108.0389964  69.2994436
   0.3280572  91.1096803  70.7862093   0.6339449  90.2494167  70.4988008
   1.0533177  91.7014423  70.5861086   3.8665961 103.6087916  68.5892885
   3.7283859 103.7989512  67.6614075   3.5102180 104.3707299  69.0460937
   3.8935340 105.6764443  73.6004157   4.3271847 105.5839732  74.4487211
   4.6066921 105.6521944  72.9624173   4.7550890 105.7188144  76.1337042
   4.9486780 106.6233955  76.3796317   4.6551508 105.2595563  76.9675627
   1.5258205 108.9014009  79.7854405   1.4670751 108.2173229  79.1184988
   1.9277724 109.6432999  79.3335031   1.5275613 106.8653593  78.0168384
   0.6402391 106.5279515  78.1394783   2.0974164 106.1336624  78.2537150
   6.0092953 102.2761811  72.7784946   5.9982829 103.1586526  72.4078879
   5.1410333 101.9233361  72.5839483   2.6265528 101.1710452  69.2455112
   3.0925980 102.0038443  69.1715415   3.0773028 100.7055433  69.9500371
   0.9682856 110.1439940  72.4082018   1.8929403 109.9382801  72.2706469
   0.7998159 109.8956341  73.3171359   0.7578172 110.6625607  67.7644109
   0.9315049 110.0972030  67.0117962   1.2507063 111.4626502  67.5823599
   6.6117563 103.4262030  69.3834409   7.0548709 102.6769355  68.9853532
   5.7344073 103.4172166  69.0008141   1.7453344 109.9792371  64.8641008
   2.4404249 110.5999064  65.0828322   2.0876495 109.1287723  65.1393385
   3.6444767 107.4292077  66.3928338   4.1696092 107.7679350  65.6677658
   3.5567120 106.4939092  66.2091473   3.3338674 108.0624981  81.6979536
   2.5434217 108.0449120  81.1584036   3.0972028 108.6013274  82.4528573
   3.4536549 104.9117447  79.0112265   3.5034554 104.7467454  79.9527788
   3.3450472 104.0444706  78.6210146   0.7440311 100.8948375  80.3271571
   1.6450174 100.7554840  80.0355569   0.8188286 101.0602830  81.2669749
   4.9554745 107.3314389  79.2554286   4.6639554 107.6944369  80.0917747
   4.3426877 106.6181397  79.0767618   6.1550428 104.8967268  71.7756857
   6.9897319 105.3357072  71.9394417   6.2909557 104.4205922  70.9565102
   3.2041934 102.4547003  77.7234344   3.6796055 102.6474649  76.9153196
   2.2807499 102.5106189  77.4777728   1.9043603  99.3312763  75.9562650
   2.8561026  99.4310861  75.9774874   1.7347053  98.5391032  76.4660734
   1.6853489 109.6857144  61.8628631   1.6067121 109.3517007  62.7564389
   2.5063156 110.1778912  61.8620103   4.3831680 102.5518883  75.0704950
   4.3508001 101.6134884  75.2564633   4.9932304 102.6302920  74.3370774
   4.5326169  99.3429926  75.1163233   4.0165218  98.5588383  74.9293162
   5.4166117  99.0148643  75.2809752   2.1936896  93.0870942  71.0759045
   1.9961717  92.7786030  71.9602377   2.8036601  93.8132581  71.2056975
  10.2008230 103.6134890  74.2110986  10.9311619 103.3520178  74.7718690
   9.5915176 102.8763612  74.2513054   8.2823527 101.7542752  74.8085438
   7.5556691 101.6198717  74.2001929   7.8670814 102.0619581  75.6142156
   1.3289350  95.0780374  68.3334241   0.7488019  95.7365178  67.9512293
   1.0625282  94.2557719  67.9221659   3.4628764  97.2626985  71.1044929
   4.2389154  97.7523438  71.3769545   2.7376898  97.6885040  71.5616798
   5.9001322  97.9754605  72.1618869   6.4945813  97.7350341  71.4512177
   5.9727906  97.2561735  72.7892405   3.8960057  98.5424732  68.4290999
   3.6396991  98.1421368  69.2599207   3.2712925  99.2568526  68.3041138
   8.2072395 101.2820805  70.9362290   7.6471953 101.3513995  71.7093852
   7.6015898 101.1061790  70.2161787   1.1644138 107.4407668  63.5337069
   1.9989742 107.0088867  63.3514544   1.0028481 107.2689682  64.4613964
   9.7928414 117.9577319  73.6292246  10.4306824 117.8384067  72.9255586
   9.6749256 118.9058163  73.6880198   6.6018120 117.9104747  73.5653771
   6.2636631 117.7945812  72.6774306   7.4707888 117.5095913  73.5454777
   2.4604936 119.7640224  69.5550662   1.8969801 119.6730161  68.7866949
   2.3457331 118.9440128  70.0353154   7.0837903 119.0639599  79.5239976
   7.0726544 118.6692397  78.6520480   7.2458542 118.3305672  80.1173748
   8.0404494 123.4311192  64.8665127   7.3892474 124.0165272  64.4799140
   8.8348857 123.9617386  64.9260164   1.9660121 120.5200329  65.2652261
   2.7390997 119.9729316  65.1265137   2.3185520 121.3844578  65.4766722
   3.8045164 121.8476711  78.4719160   3.5135030 122.7522342  78.3565827
   4.4402148 121.8893239  79.1863230   4.7301371 119.2253560  75.0620520
   5.3264943 119.0009582  74.3477483   4.7876342 118.4838305  75.6645968
   4.3026399 116.6792995  62.8970711   4.5551920 116.1574516  62.1354174
   3.3650958 116.5159140  62.9997394   9.3469682 115.6828773  70.7045454
  10.1332771 115.2648196  70.3535871   9.6108386 116.5874865  70.8727103
   9.5179759 121.1201624  65.4034111   8.8825592 121.1936250  66.1155016
   9.1877166 121.7095222  64.7253190  14.7478109 115.6204006  71.6078433
  15.4803281 115.0503223  71.8416262  13.9917465 115.2325607  72.0484938
   4.0222688 118.5821101  65.0995086   3.9058946 117.9066004  65.7676170
   4.1324948 118.0953475  64.2827239   6.3654229 118.0431248  68.8041775
   6.0012436 117.5161869  69.5154697   7.2221345 117.6529717  68.6308260
  12.2703530 109.3325581  76.0673041  11.9386854 110.2020991  75.8434256
  11.6749143 109.0161865  76.7467072   6.0059716 113.0721148  63.8003124
   6.1734118 113.9401384  64.1673595   5.8156885 113.2348429  62.8764413
   8.7635049 121.5338127  75.4668954   8.4635772 122.4363165  75.3584761
   8.4186109 121.2670310  76.3190107   2.2147531 117.9851923  71.5005658
   1.2898027 117.8528137  71.7083350   2.4631944 118.7646143  71.9975601
  12.1632193 114.0520667  73.1466391  11.2549070 113.9836075  72.8525152
  12.1119789 114.5292612  73.9748217   5.9848937 115.5278805  64.7849790
   5.8648562 115.9735856  65.6235271   5.2901525 115.8764123  64.2263329
   6.2373059 115.4710312  81.0901289   5.4606393 116.0304232  81.0804153
   6.8763622 115.9567095  81.6116159  14.0293839 112.2537105  74.9244265
  13.3868219 112.5469638  74.2784060  13.5248768 112.1390025  75.7297462
  11.6834003 116.0000278  65.6130124  12.5951859 116.2327665  65.4377822
  11.1743650 116.5837322  65.0505203   4.4919431 118.2795766  80.6519256
   5.2334115 118.8180810  80.3754079   3.7856416 118.9062054  80.8090807
   9.9674771 120.4224906  79.2491417  10.3758127 119.9807317  78.5046049
   9.2452032 119.8477534  79.5025610   6.3205841 115.3597513  76.6224974
   7.1667036 115.7836926  76.7659623   6.2604478 114.7031137  77.3163537
  10.2903585 120.9826097  73.0043706   9.6612448 121.1471811  72.3019774
   9.9029247 121.3967706  73.7754670  14.1692817 121.9180535  70.3588070
  13.4843855 122.2979436  69.8085103  14.2536666 122.5275861  71.0920017
   9.4705286 113.0201881  78.2806148   9.2266218 113.7743942  77.7440423
   9.7465216 113.3987229  79.1153395  11.4243749 119.5640494  76.9583413
  11.6360644 120.2072253  76.2817794  11.3773497 118.7302810  76.4905343
   9.0269978 112.1758314  73.8619985   8.1654457 112.4739568  74.1536723
   9.0532412 112.3928713  72.9301018   5.8431547 120.7200505  70.2693791
   6.3069893 120.9988208  69.4798414   5.5788345 119.8183949  70.0866882
   2.7355628 120.2671986  73.2073554   3.3056985 120.6959255  72.5691039
   3.3263740 119.9854571  73.9057740   4.7800433 116.8423657  67.0783356
   5.4824476 117.2944701  67.5457283   4.4481062 116.2007476  67.7063249
   3.2280795 115.4335414  81.4534566   2.5979455 116.1151695  81.6869962
   3.1216883 115.3218495  80.5087704  12.5389577 122.4412449  75.1305771
  13.3607020 122.0392636  74.8488452  12.5351980 122.3380683  76.0821886
   6.3046180 121.9896492  77.2866481   6.3690613 122.4516900  78.1224653
   5.5957104 121.3593857  77.4148791  20.6295570 118.7851198  71.4790742
  19.8759278 118.2158596  71.3234746  20.7643111 118.7513862  72.4261377
   6.0194198 123.6564600  67.1545461   5.8839873 124.5016136  67.5830309
   6.5604010 123.8583877  66.3911395   2.5061537 109.7356180  83.8159817
   2.1128483 109.1822378  84.4907461   3.3227678 110.0466758  84.2066334
   5.4229498 111.1514059  81.4080073   6.1639212 111.7521212  81.3284536
   5.6547421 110.4091697  80.8498116   7.6462674 124.2788166  81.2845803
   7.2026528 123.4924545  80.9666708   8.3079888 124.4667317  80.6189694
   9.7443912 124.5590966  79.3127205   9.7262388 125.3799847  78.8207474
  10.6663832 124.4345041  79.5377346   6.2016966 122.0735096  80.1550713
   6.7345303 121.3123384  79.9250021   5.6731047 121.7808748  80.8974868
   9.3686661 107.1795162  75.6844355   9.0250931 108.0696803  75.6083465
   9.7365624 106.9896819  74.8213940   9.3336944 117.1703773  64.1916790
   8.8183567 117.9408377  64.4305177   9.0614252 116.4968909  64.8149851
   6.9184055 112.0153474  69.2502028   6.0625651 111.6260324  69.0707667
   7.3311007 112.0945434  68.3901814   8.4483202 109.5499817  73.6493588
   7.9447997 109.5129952  72.8361393   8.7413809 110.4592560  73.7090245
   4.6926088 109.6338547  72.6559770   5.5579084 109.4381355  72.2965659
   4.7603597 109.4048898  73.5829127  14.3071218 119.9236127  66.1269963
  13.5300661 119.5847287  65.6825126  14.9862699 119.9288751  65.4524928
   9.1223247 115.0430865  66.0176571   8.8173383 115.3577014  66.8686714
  10.0753689 115.1212285  66.0603904   7.5669679 121.2021088  67.6669525
   7.0391041 120.4673848  67.3542763   7.0657182 121.9795765  67.4209493
  12.5462525 119.3970109  72.7836571  11.8886200 120.0869370  72.8716700
  13.3502924 119.7866541  73.1270558   2.2988407 111.8640754  70.0276137
   2.8732159 111.6415936  69.2949330   2.8859389 111.9329449  70.7804738
  11.3567984 117.7514481  70.8340513  11.8699866 118.3844473  71.3362223
  12.0069208 117.1515677  70.4683873   2.6257994 113.8945216  64.0472022
   1.7895306 114.2319902  64.3681297   2.4862763 113.7594195  63.1099159
   4.6011074 108.7382003  68.7551206   3.9475487 108.4231021  68.1307821
   4.5591549 108.1157744  69.4811029   5.7122279 119.0201298  60.6704498
   4.8049341 118.7890552  60.8695647   6.2093311 118.2238918  60.8578480
   7.8348815 115.2263937  73.0798854   6.9171376 115.4478884  72.9220542
   8.2508958 115.3010247  72.2210561   8.6183863 116.6255353  68.2101534
   9.3655681 117.1376750  67.9008656   8.8875452 116.3039405  69.0705928
   6.8910513 119.1213893  65.1928488   5.9821732 118.8372926  65.2900958
   6.9205596 119.5412972  64.3331795  12.1229780 122.7320483  68.9619656
  11.6692107 121.8911393  69.0184846  11.4923747 123.3681881  69.2994436
  11.0662700 113.6612469  70.1920323  10.3285456 113.1489855  70.5230566
  11.3189473 113.2212850  69.3803600  10.5662719 124.5696980  69.8969474
  10.8585694 125.1302037  69.1781840  11.0761340 124.8625541  70.6522633
  11.1674327 106.4388721  70.7862093  11.4733204 105.5786084  70.4988008
  11.8926932 107.0306341  70.5861086   5.4395407 116.7342514  71.2938284
   5.4944017 115.7816350  71.2180760   4.6286609 116.8901953  71.7779582
   6.5886600 120.6622637  62.5316567   6.1506030 119.9458496  62.0722204
   7.3297041 120.8898752  61.9701658   3.3787767 115.3519574  69.0528662
   2.5655632 115.6513744  69.4593855   3.8746761 114.9575262  69.7703145
   8.9761978 115.8161398  77.8843556   9.3311366 116.0432871  78.7438022
   9.6234110 116.1479775  77.2620812  14.7059715 118.9379834  68.5892885
  14.5677614 119.1281430  67.6614075  14.3495934 119.6999217  69.0460937
   2.8701841 112.9237929  74.6689897   3.5101221 112.7826688  73.9712861
   2.0379372 112.6372443  74.2928499  14.7329095 121.0056361  73.6004157
  15.1665602 120.9131650  74.4487211  15.4460676 120.9813862  72.9624173
   3.6462145 122.2240360  70.7824890   4.4402744 121.7290680  70.5807465
   2.9353838 121.6958223  70.4192595   8.4656990 124.6058455  75.1337257
   8.5194012 125.1749391  75.9014973   7.5971771 124.7760340  74.7691295
   1.3455383 114.3076011  76.6161709   2.0178437 114.0993373  75.9674358
   0.5185170 114.1098097  76.1766941  15.5944644 121.0480062  76.1337042
  15.7880535 121.9525872  76.3796317  15.4945263 120.5887481  76.9675627
   7.2480955 110.9337952  78.6327370   6.6008870 111.6327902  78.5391846
   8.0181971 111.3674096  79.0003618  10.6559753 121.1986804  81.7077923
  10.5045260 120.9697356  80.7908007  10.6464433 122.1557406  81.7209268
   7.4245090 118.7718717  76.6924189   8.3537150 118.9229877  76.5193157
   7.0036120 118.8602738  75.8372836   6.2233421 122.7969382  74.4622727
   6.0844507 122.4288166  75.3348665   5.4348018 123.3117021  74.2906685
   7.7738636 122.1750984  71.8511565   7.4388469 122.1351754  72.7469215
   7.2742582 121.5095700  71.3781975   1.7482880 117.5818614  77.3764146
   1.6102678 116.8498853  77.9775685   2.6587804 117.4927514  77.0948334
  10.7097828 119.5207019  62.1248624  10.0926999 118.7953847  62.0281677
  10.2414317 120.2816379  61.7815699   4.3765181 117.2938574  76.8647826
   5.0864800 116.6531766  76.8234444   4.3334489 117.5451469  77.7874006
  12.3651960 124.2305927  79.7854405  12.3064506 123.5465147  79.1184988
  12.7671478 124.9724917  79.3335031   3.0894115 114.2803792  78.6843465
   2.5531472 113.8294530  79.3365061   2.5010824 114.4149700  77.9413929
   2.4996374 113.7392443  61.2469929   1.6225840 113.6181244  60.8832175
   2.9754127 112.9478521  60.9948817  12.3669367 122.1945511  78.0168384
  11.4796146 121.8571433  78.1394783  12.9367918 121.4628542  78.2537150
   8.9956950 111.9013363  71.1366655   9.4925650 111.1483325  70.8167725
   8.2243932 111.9377679  70.5709864  16.8486708 117.6053728  72.7784946
  16.8376584 118.4878444  72.4078879  15.9804087 117.2525279  72.5839483
  10.0786731 120.6585050  68.7105078   9.1443010 120.7786512  68.5409782
  10.2563399 119.7557517  68.4465088   5.5791919 114.0430746  70.8638339
   5.2089706 113.4901786  71.5519245   6.0751011 113.4388879  70.3113339
  13.4659282 116.5002369  69.2455112  13.9319734 117.3330361  69.1715415
  13.9166783 116.0347351  69.9500371  11.5335513 122.8446191  66.2441264
  11.8095357 122.7302785  67.1535138  10.6640012 122.4463675  66.2053437
  11.4375945 108.8682956  73.2846013  10.5239025 109.0987183  73.4528220
  11.8669046 108.9521400  74.1360046  11.2082403 117.0572848  75.7845907
  10.5553854 117.3048756  75.1298360  11.5862783 116.2436986  75.4508385
   7.2569976 117.7992659  82.2711945   6.5810613 117.6986789  82.9414320
   8.0797610 117.6431873  82.7347942   0.9757253 111.4534737  77.1091445
   1.0398579 112.3149567  76.6968843   0.9124373 110.8408738  76.3763804
  10.8503634 123.9320844  82.3618215  11.3943538 124.5450803  81.8673170
  10.2690479 124.4900423  82.8785228  11.1996055 124.8550582  75.1212793
  10.2526391 124.7355934  75.0491120  11.5478828 123.9673080  75.2039054
   3.5595628 110.7444721  78.9451035   4.0830030 110.9907018  79.7077344
   3.3407962 111.5764756  78.5254172   8.2042488 124.6503299  71.3217145
   8.0567451 123.7220006  71.5024715   9.0295982 124.6723389  70.8374220
   2.0704733 113.3021366  67.1797637   2.4100805 113.8307287  66.4576246
   2.5176853 113.6401772  67.9556204  11.8076610 125.4731857  72.4082018
  12.7323158 125.2674719  72.2706469  11.6391914 125.2248258  73.3171359
   4.7648173 111.6858416  76.6300705   4.4244994 110.8866229  77.0321385
   4.0587180 111.9860127  76.0577538   5.4164645 108.7707729  75.0828028
   6.2390715 108.2968207  74.9606919   5.6602709 109.5498213  75.5826715
   4.0572880 111.7995987  65.3790930   4.7781242 112.1777240  64.8754647
   3.4338184 112.5184864  65.4825908   8.2004003 112.5041136  66.3149262
   8.4167617 113.3865774  66.0138090   7.7198070 112.1127350  65.5854904
   2.9403224 115.4626849  72.8920007   2.7947805 115.7767153  73.7844288
   2.4628428 116.0811750  72.3390906   4.7999607 112.4529397  72.9400896
   4.7861176 111.5570491  72.6033194   5.5172035 112.4600061  73.5739182
   6.6525738 112.8866738  74.9854024   6.3943515 113.8083808  74.9838354
   6.1210778 112.4897172  75.6754488  11.5971926 125.9917525  67.7644109
  11.7708804 125.4263947  67.0117962  12.0900818 126.7918420  67.5823599
   4.2036503 111.3343778  68.2088467   4.3252414 110.4060424  68.4079354
   3.9138545 111.3482464  67.2966782   7.0727693 109.0198688  71.3455186
   7.0949390 109.0838021  70.3907166   7.4895752 108.1803197  71.5395693
  17.4511318 118.7553948  69.3834409  17.8942464 118.0061273  68.9853532
  16.5737828 118.7464084  69.0008141  12.5847099 125.3084289  64.8641008
  13.2798003 125.9290982  65.0828322  12.9270249 124.4579640  65.1393385
  14.4838522 122.7583995  66.3928338  15.0089846 123.0971267  65.6677658
  14.3960875 121.8231010  66.2091473   3.6877582 112.8475775  82.4178399
   3.7365738 113.7237898  82.0356169   4.2300097 112.3053168  81.8450042
  14.1732428 123.3916898  81.6979536  13.3827972 123.3741037  81.1584036
  13.9365783 123.9305192  82.4528573  14.2930303 120.2409365  79.0112265
  14.3428308 120.0759372  79.9527788  14.1844226 119.3736624  78.6210146
   3.1766562 122.9197910  66.3004354   3.3254682 123.6033375  65.6471026
   3.9833005 122.9003000  66.8153809  11.5834065 116.2240293  80.3271571
  12.4843928 116.0846758  80.0355569  11.6582040 116.3894748  81.2669749
   5.9176871 113.6007147  79.1724758   5.0480180 113.8940714  78.9007346
   6.1536351 114.1847592  79.8932021  15.7948500 122.6606306  79.2554286
  15.5033308 123.0236287  80.0917747  15.1820631 121.9473315  79.0767618
  16.9944182 120.2259186  71.7756857  17.8291074 120.6648990  71.9394417
  17.1303311 119.7497839  70.9565102  14.0435688 117.7838921  77.7234344
  14.5189810 117.9766567  76.9153196  13.1201254 117.8398107  77.4777728
   0.9319195 118.9463088  67.3065423   0.6865237 118.0425418  67.5045633
   1.1015109 118.9480238  66.3644901   8.6215905 109.8186764  76.6890178
   9.1397849 110.5547791  76.3636667   8.2671037 110.1250758  77.5236937
   8.8728499 106.2387047  72.2091075   9.1530253 105.5710236  72.8351501
   9.6579106 106.4316143  71.6965739  12.7437357 114.6604681  75.9562650
  13.6954780 114.7602779  75.9774874  12.5740808 113.8682949  76.4660734
  10.7651737 111.7460264  76.1422051  10.1701669 112.0265277  75.4468539
  10.4801433 112.2354165  76.9138792  12.5247244 125.0149061  61.8628631
  12.4460875 124.6808925  62.7564389  13.3456911 125.5070829  61.8620103
  15.2225435 117.8810801  75.0704950  15.1901755 116.9426801  75.2564633
  15.8326059 117.9594837  74.3370774   7.0608766 116.7506854  61.1132154
   8.0067871 116.6213062  61.1820572   6.6823011 116.0121516  61.5901582
  15.3719923 114.6721844  75.1163233  14.8558972 113.8880301  74.9293162
  16.2559872 114.3440561  75.2809752  13.0330650 108.4162860  71.0759045
  12.8355471 108.1077948  71.9602377  13.6430356 109.1424499  71.2056975
  21.0401985 118.9426807  74.2110986  21.7705373 118.6812096  74.7718690
  20.4308930 118.2055529  74.2513054  19.1217282 117.0834670  74.8085438
  18.3950445 116.9490635  74.2001929  18.7064569 117.3911499  75.6142156
   6.9447458 120.8024600  82.5732811   7.8650468 120.9803199  82.7672857
   6.9097041 119.8580645  82.4212510   5.2451683 114.6756830  61.0487039
   4.3383138 114.3789943  61.1249752   5.5227664 114.3786648  60.1821325
   6.8613749 109.2193720  67.2031280   6.0514477 108.8740805  67.5786526
   7.5498166 108.9101263  67.7918892   8.7904297 108.2971767  68.8255577
   9.3435336 108.7167220  69.4845600   9.0274383 107.3707515  68.8678533
   4.8137396 114.2858840  84.6058341   4.7134123 115.2353197  84.5370432
   4.5958938 113.9577079  83.7334411   4.0150468 111.5343765  61.1899018
   4.8769632 111.8598664  61.4494835   4.2000812 110.7475261  60.6772084
  12.1683104 110.4072292  68.3334241  11.5881773 111.0657096  67.9512293
  11.9019037 109.5849636  67.9221659  10.6186670 109.8077349  70.5355561
  11.1186449 109.9193884  69.7269880  11.2622278 109.5038402  71.1756370
   4.6768666 117.7155979  83.4223402   4.1935748 118.5156339  83.6287291
   4.7629605 117.7263924  82.4690846   0.6042004 121.6060514  75.4591836
   1.5585257 121.5744456  75.3921768   0.4054527 121.1451137  76.2742062
   1.1941386 120.1761630  78.0262634   2.0134275 120.6705708  78.0497471
   1.4678194 119.2593598  77.9980201  10.9507982 112.5672382  67.3890589
  10.0633837 112.8522033  67.1710784  11.3661971 112.4066145  66.5417866
  14.3022518 112.5918903  71.1044929  15.0782908 113.0815355  71.3769545
  13.5770652 113.0176957  71.5616798  16.7395077 113.3046522  72.1618869
  17.3339568 113.0642258  71.4512177  16.8121661 112.5853653  72.7892405
  10.0951196 122.3317057  61.4838609  10.7987046 122.5367059  62.0996265
   9.3713844 122.8993819  61.7487693  10.9249006 118.0826918  67.6040879
  10.8684207 118.5395469  66.7648512  11.4777348 117.3217603  67.4263722
  14.7353812 113.8716650  68.4290999  14.4790746 113.4713286  69.2599207
  14.1106680 114.5860444  68.3041138  19.0466150 116.6112723  70.9362290
  18.4865708 116.6805912  71.7093852  18.4409653 116.4353708  70.2161787
  12.0037893 122.7699586  63.5337069  12.8383497 122.3380784  63.3514544
  11.8422236 122.5981600  64.4613964  11.6583785 119.2731699  64.8993409
  11.6032589 119.1075971  63.9581853  11.0329840 119.9807732  65.0555598
   8.9729692 121.5780611  84.2246971   9.8420852 121.7521263  83.8633606
   8.4936444 122.3975028  84.1022701   4.9679911 108.7739808  64.4778727
   4.9558580 109.7181648  64.6346998   5.8603332 108.5909954  64.1838188
   8.7832030 105.3682585  68.7324664   8.0164426 104.8141072  68.8781346
   9.1942735 105.4404454  69.5938815  25.5871864 130.9495924  71.6078433
  26.3197036 130.3795141  71.8416262  24.8311219 130.5617525  72.0484938
  23.1097284 124.6617498  76.0673041  22.7780609 125.5312909  75.8434256
  22.5142897 124.3453782  76.7467072  23.0025947 129.3812584  73.1466391
  22.0942825 129.3127993  72.8525152  22.9513543 129.8584529  73.9748217
  24.8687594 127.5829023  74.9244265  24.2261974 127.8761556  74.2784060
  24.3642522 127.4681943  75.7297462  20.3099040 128.3493799  78.2806148
  20.0659972 129.1035859  77.7440423  20.5858971 128.7279147  79.1153395
  19.8663732 127.5050232  73.8619985  19.0048211 127.8031485  74.1536723
  19.8926167 127.7220631  72.9301018  13.3455292 125.0648097  83.8159817
  12.9522237 124.5114296  84.4907461  14.1621432 125.3758676  84.2066334
  16.2623253 126.4805976  81.4080073  17.0032966 127.0813130  81.3284536
  16.4941176 125.7383614  80.8498116  20.2080416 122.5087079  75.6844355
  19.8644685 123.3988721  75.6083465  20.5759378 122.3188737  74.8213940
  17.7577810 127.3445391  69.2502028  16.9019406 126.9552242  69.0707667
  18.1704761 127.4237352  68.3901814  19.2876956 124.8791735  73.6493588
  18.7841752 124.8421870  72.8361393  19.5807563 125.7884477  73.7090245
  15.5319842 124.9630464  72.6559770  16.3972839 124.7673273  72.2965659
  15.5997351 124.7340816  73.5829127  13.1382161 127.1932672  70.0276137
  13.7125913 126.9707854  69.2949330  13.7253144 127.2621367  70.7804738
  15.4404829 124.0673921  68.7551206  14.7869241 123.7522938  68.1307821
  15.3985303 123.4449662  69.4811029  21.9056454 128.9904387  70.1920323
  21.1679211 128.4781773  70.5230566  22.1583228 128.5504768  69.3803600
  22.0068081 121.7680639  70.7862093  22.3126958 120.9078002  70.4988008
  22.7320686 122.3598259  70.5861086  18.0874710 126.2629870  78.6327370
  17.4402625 126.9619820  78.5391846  18.8575725 126.6966014  79.0003618
  19.8350705 127.2305280  71.1366655  20.3319404 126.4775243  70.8167725
  19.0637686 127.2669597  70.5709864  22.2769699 124.1974874  73.2846013
  21.3632779 124.4279101  73.4528220  22.7062801 124.2813318  74.1360046
  14.3989383 126.0736639  78.9451035  14.9223785 126.3198935  79.7077344
  14.1801716 126.9056674  78.5254172  15.6041928 127.0150334  76.6300705
  15.2638748 126.2158147  77.0321385  14.8980934 127.3152045  76.0577538
  16.2558400 124.0999646  75.0828028  17.0784469 123.6260125  74.9606919
  16.4996463 124.8790130  75.5826715  19.0397757 127.8333054  66.3149262
  19.2561372 128.7157692  66.0138090  18.5591824 127.4419267  65.5854904
  15.6393361 127.7821315  72.9400896  15.6254930 126.8862408  72.6033194
  16.3565789 127.7891979  73.5739182  15.0430257 126.6635695  68.2088467
  15.1646169 125.7352342  68.4079354  14.7532300 126.6774381  67.2966782
  17.9121448 124.3490606  71.3455186  17.9343145 124.4129939  70.3907166
  18.3289507 123.5095114  71.5395693  19.4609659 125.1478682  76.6890178
  19.9791603 125.8839709  76.3636667  19.1064792 125.4542675  77.5236937
  19.7122253 121.5678965  72.2091075  19.9924007 120.9002154  72.8351501
  20.4972860 121.7608060  71.6965739  23.5831112 129.9896599  75.9562650
  24.5348535 130.0894696  75.9774874  23.4134562 129.1974867  76.4660734
  21.6045491 127.0752182  76.1422051  21.0095423 127.3557195  75.4468539
  21.3195188 127.5646083  76.9138792  26.2113678 130.0013762  75.1163233
  25.6952727 129.2172218  74.9293162  27.0953626 129.6732478  75.2809752
  23.8724405 123.7454777  71.0759045  23.6749226 123.4369865  71.9602377
  24.4824110 124.4716416  71.2056975  29.9611036 132.4126588  74.8085438
  29.2344200 132.2782553  74.2001929  29.5458323 132.7203416  75.6142156
  17.7007503 124.5485637  67.2031280  16.8908231 124.2032722  67.5786526
  18.3891920 124.2393181  67.7918892  19.6298051 123.6263684  68.8255577
  20.1829090 124.0459138  69.4845600  19.8668138 122.6999432  68.8678533
  14.8544222 126.8635683  61.1899018  15.7163386 127.1890581  61.4494835
  15.0394566 126.0767179  60.6772084  23.0076859 125.7364209  68.3334241
  22.4275528 126.3949013  67.9512293  22.7412791 124.9141554  67.9221659
  21.4580425 125.1369267  70.5355561  21.9580203 125.2485802  69.7269880
  22.1016033 124.8330320  71.1756370  21.7901737 127.8964300  67.3890589
  20.9027592 128.1813950  67.1710784  22.2055726 127.7358063  66.5417866
  25.1416273 127.9210821  71.1044929  25.9176663 128.4107273  71.3769545
  24.4164407 128.3468875  71.5616798  27.5788831 128.6338440  72.1618869
  28.1733322 128.3934176  71.4512177  27.6515415 127.9145570  72.7892405
  25.5747566 129.2008568  68.4290999  25.3184500 128.8005203  69.2599207
  24.9500434 129.9152361  68.3041138  29.8859904 131.9404641  70.9362290
  29.3259462 132.0097830  71.7093852  29.2803407 131.7645625  70.2161787
  15.8073665 124.1031726  64.4778727  15.7952335 125.0473566  64.6346998
  16.6997087 123.9201871  64.1838188  19.6225785 120.6974503  68.7324664
  18.8558180 120.1432989  68.8781346  20.0336490 120.7696371  69.5938815
   3.9084356  77.2974211  58.3323739   4.6409528  76.7273428  58.5661569
   3.1523712  76.9095812  58.7730245   1.4309776  71.0095785  62.7918348
   1.0993101  71.8791196  62.5679563   0.8355390  70.6932069  63.4712378
   1.3238440  75.7290872  59.8711698   0.4155317  75.6606280  59.5770459
   1.2726035  76.2062817  60.6993523   3.1900086  73.9307310  61.6489572
   2.5474466  74.2239843  61.0029366   2.6855015  73.8160230  62.4542769
   0.8440250  77.6770483  52.3375431   1.7558106  77.9097870  52.1623129
   0.3349897  78.2607527  51.7750510   3.3299064  83.5950739  57.0833376
   2.6450102  83.9749641  56.5330410   3.4142913  84.2046066  57.8165324
   0.5849995  81.2410699  63.6828720   0.7966891  81.8842458  63.0063101
   0.5379744  80.4073015  63.2150650   1.6995823  84.1182654  61.8551077
   2.5213267  83.7162841  61.5733759   1.6958226  84.0150888  62.8067193
   9.7901816  80.4621402  58.2036049   9.0365525  79.8928800  58.0480053
   9.9249358  80.4284067  59.1506683   3.4677465  81.6006332  52.8515270
   2.6906908  81.2617492  52.4070432   4.1468946  81.6058956  52.1770235
   1.7068772  81.0740314  59.5081878   1.0492446  81.7639575  59.5962007
   2.5109171  81.4636746  59.8515864   0.5174231  79.4284686  57.5585820
   1.0306112  80.0614678  58.0607530   1.1675455  78.8285882  57.1929180
   1.2836027  84.4090688  55.6864962   0.8298354  83.5681598  55.7430153
   0.6529994  85.0452086  56.0239743   0.3280574  68.1158926  57.5107399
   0.6339451  67.2556289  57.2233314   1.0533179  68.7076546  57.3106393
   3.8665962  80.6150039  55.3138192   3.7283861  80.8051635  54.3859381
   3.5102181  81.3769422  55.7706243   3.8935342  82.6826566  60.3249464
   4.3271848  82.5901855  61.1732518   4.6066922  82.6584066  59.6869480
   4.7550891  82.7250267  62.8582349   4.9486781  83.6296077  63.1041624
   4.6551509  82.2657686  63.6920934   1.5258207  85.9076132  66.5099711
   1.4670753  85.2235352  65.8430294   1.9277725  86.6495122  66.0580337
   1.5275614  83.8715716  64.7413691   0.6402393  83.5341638  64.8640090
   2.0974165  83.1398747  64.9782456   6.0092954  79.2823933  59.5030253
   5.9982831  80.1648649  59.1324186   5.1410334  78.9295484  59.3084790
   2.6265529  78.1772574  55.9700419   3.0925981  79.0100566  55.8960721
   3.0773029  77.7117556  56.6745677   0.9682857  87.1502062  59.1327324
   1.8929404  86.9444924  58.9951776   0.7998160  86.9018463  60.0416666
   0.7578173  87.6687730  54.4889416   0.9315051  87.1034152  53.7363268
   1.2507064  88.4688625  54.3068906   6.6117564  80.4324153  56.1079716
   7.0548710  79.6831478  55.7098839   5.7344075  80.4234289  55.7253448
   1.7453346  86.9854494  51.5886314   2.4404250  87.6061187  51.8073629
   2.0876496  86.1349845  51.8638692   3.6444769  84.4354200  53.1173645
   4.1696093  84.7741472  52.3922965   3.5567121  83.5001215  52.9336780
   3.3338675  85.0687103  68.4224843   2.5434219  85.0511242  67.8829342
   3.0972029  85.6075397  69.1773879   3.4536550  81.9179570  65.7357571
   3.5034555  81.7529577  66.6773094   3.3450473  81.0506829  65.3455452
   0.7440312  77.9010498  67.0516878   1.6450175  77.7616963  66.7600876
   0.8188287  78.0664952  67.9915056   4.9554747  84.3376511  65.9799593
   4.6639555  84.7006492  66.8163054   4.3426878  83.6243519  65.8012925
   6.1550429  81.9029391  58.5002163   6.9897320  82.3419195  58.6639724
   6.2909558  81.4268044  57.6810409   3.2041935  79.4609126  64.4479651
   3.6796057  79.6536772  63.6398502   2.2807500  79.5168312  64.2023035
   1.9043604  76.3374886  62.6807957   2.8561027  76.4372984  62.7020181
   1.7347054  75.5453154  63.1906041   1.6853491  86.6919266  48.5873938
   1.6067122  86.3579130  49.4809696   2.5063157  87.1841034  48.5865410
   4.3831682  79.5581006  61.7950256   4.3508002  78.6197006  61.9809940
   4.9932305  79.6365042  61.0616081   4.5326170  76.3492049  61.8408539
   4.0165219  75.5650506  61.6538468   5.4166119  76.0210766  62.0055059
   2.1936897  70.0933065  57.8004352   1.9961718  69.7848153  58.6847684
   2.8036603  70.8194703  57.9302282  10.2008232  80.6197012  60.9356293
  10.9311620  80.3582301  61.4963996   9.5915177  79.8825734  60.9758361
   8.2823529  78.7604875  61.5330744   7.5556692  78.6260840  60.9247236
   7.8670816  79.0681704  62.3387462   1.3289351  72.0842497  55.0579548
   0.7488020  72.7427301  54.6757600   1.0625284  71.2619841  54.6466965
   3.4628765  74.2689108  57.8290235   4.2389155  74.7585560  58.1014852
   2.7376899  74.6947162  58.2862105   5.9001324  74.9816727  58.8864176
   6.4945814  74.7412463  58.1757484   5.9727907  74.2623858  59.5137712
   3.8960059  75.5486855  55.1536306   3.6396993  75.1483490  55.9844513
   3.2712927  76.2630649  55.0286445   8.2072396  78.2882928  57.6607597
   7.6471954  78.3576117  58.4339159   7.6015900  78.1123913  56.9407093
   1.1644140  84.4469791  50.2582376   1.9989744  84.0150989  50.0759851
   1.0028483  84.2751805  51.1859270   9.7928415  94.9639442  60.3537553
  10.4306825  94.8446189  59.6500893   9.6749258  95.9120286  60.4125505
   6.6018121  94.9166870  60.2899077   6.2636633  94.8007935  59.4019612
   7.4707889  94.5158035  60.2700084   2.4604937  96.7702346  56.2795968
   1.8969802  96.6792283  55.5112256   2.3457332  95.9502251  56.7598461
   7.0837904  96.0701722  66.2485283   7.0726545  95.6754520  65.3765787
   7.2458544  95.3367794  66.8419054   8.0404496 100.4373314  51.5910433
   7.3892475 101.0227395  51.2044447   8.8348858 100.9679509  51.6505471
   1.9660123  97.5262451  51.9897568   2.7390999  96.9791438  51.8510443
   2.3185522  98.3906701  52.2012029   3.8045165  98.8538834  65.1964467
   3.5135031  99.7584464  65.0811133   4.4402150  98.8955361  65.9108536
   4.7301372  96.2315682  61.7865827   5.3264944  96.0071705  61.0722789
   4.7876344  95.4900428  62.3891274   4.3026400  93.6855117  49.6216018
   4.5551921  93.1636639  48.8599481   3.3650960  93.5221263  49.7242701
   9.3469683  92.6890896  57.4290761  10.1332773  92.2710319  57.0781178
   9.6108388  93.5936988  57.5972409   9.5179761  98.1263746  52.1279418
   8.8825594  98.1998373  52.8400322   9.1877167  98.7157345  51.4498497
  14.7478110  92.6266129  58.3323739  15.4803282  92.0565346  58.5661569
  13.9917466  92.2387729  58.7730245   4.0222689  95.5883223  51.8240392
   3.9058947  94.9128127  52.4921477   4.1324949  95.1015597  51.0072546
   6.3654230  95.0493370  55.5287082   6.0012437  94.5223991  56.2400003
   7.2221346  94.6591840  55.3553567  12.2703531  86.3387703  62.7918348
  11.9386856  87.2083114  62.5679563  11.6749144  86.0223987  63.4712378
   6.0059717  90.0783270  50.5248430   6.1734119  90.9463507  50.8918901
   5.8156886  90.2410552  49.6009719   8.7635050  98.5400249  62.1914261
   8.4635773  99.4425288  62.0830068   8.4186110  98.2732432  63.0435413
   2.2147532  94.9914046  58.2250965   1.2898028  94.8590260  58.4328657
   2.4631945  95.7708265  58.7220907  12.1632194  91.0582789  59.8711698
  11.2549071  90.9898198  59.5770459  12.1119790  91.5354734  60.6993523
   5.9848938  92.5340928  51.5095097   5.8648563  92.9797978  52.3480577
   5.2901526  92.8826245  50.9508635   3.7455830 105.3044569  55.1585228
   3.6679860 106.2552395  55.2373709   3.1417474 104.9590442  55.8160155
   6.2373060  92.4772435  67.8146595   5.4606394  93.0366355  67.8049460
   6.8763623  92.9629218  68.3361465  14.0293841  89.2599228  61.6489572
  13.3868221  89.5531761  61.0029366  13.5248769  89.1452148  62.4542769
  11.6834004  93.0062401  52.3375431  12.5951860  93.2389788  52.1623129
  11.1743651  93.5899445  51.7750510   4.4919432  95.2857888  67.3764562
   5.2334117  95.8242932  67.0999386   3.7856418  95.9124177  67.5336114
   9.9674772  97.4287029  65.9736724  10.3758128  96.9869439  65.2291356
   9.2452033  96.8539656  66.2270917   6.3205842  92.3659635  63.3470281
   7.1667037  92.7899049  63.4904930   6.2604480  91.7093260  64.0408844
  10.2903586  97.9888219  59.7289013   9.6612449  98.1533933  59.0265080
   9.9029249  98.4029829  60.4999977  14.1692818  98.9242657  57.0833376
  13.4843857  99.3041559  56.5330410  14.2536668  99.5337984  57.8165324
   9.4705287  90.0264004  65.0051454   9.2266219  90.7806064  64.4685730
   9.7465218  90.4049351  65.8398701  11.4243750  96.5702616  63.6828720
  11.6360645  97.2134376  63.0063101  11.3773498  95.7364933  63.2150650
   9.0269979  89.1820437  60.5865292   8.1654458  89.4801690  60.8782030
   9.0532414  89.3990836  59.6546325   5.8431548  97.7262627  56.9939098
   6.3069894  98.0050330  56.2043720   5.5788346  96.8246072  56.8112188
   2.7355629  97.2734109  59.9318861   3.3056986  97.7021377  59.2936345
   3.3263741  96.9916694  60.6303047   4.7800434  93.8485780  53.8028663
   5.4824478  94.3006823  54.2702589   4.4481063  93.2069599  54.4308556
   3.2280796  92.4397536  68.1779872   2.5979457  93.1213817  68.4115269
   3.1216884  92.3280618  67.2333010  12.5389578  99.4474572  61.8551077
  13.3607022  99.0454759  61.5733759  12.5351981  99.3442806  62.8067193
   6.3046181  98.9958615  64.0111788   6.3690614  99.4579022  64.8469960
   5.5957105  98.3655980  64.1394098  20.6295571  95.7913320  58.2036049
  19.8759279  95.2220718  58.0480053  20.7643112  95.7575985  59.1506683
   6.0194199 100.6626722  53.8790768   5.8839874 101.5078258  54.3075616
   6.5604012 100.8646000  53.1156702   2.5061539  86.7418302  70.5405123
   2.1128484  86.1884501  71.2152767   3.3227679  87.0528881  70.9311641
   1.2818481 101.2967917  56.5341446   1.4585109 102.2185881  56.3462430
   2.0775315 100.9826336  56.9635826   5.4229500  88.1576181  68.1325380
   6.1639213  88.7583334  68.0529842   5.6547422  87.4153819  67.5743422
   7.6462675 101.2850289  68.0091110   7.2026530 100.4986667  67.6912015
   8.3079889 101.4729439  67.3435001   2.4049797 102.8146091  62.5351789
   2.9557222 102.6863154  61.7628783   1.5661272 103.1140980  62.1846681
   9.7443913 101.5653089  66.0372511   9.7262389 102.3861970  65.5452781
  10.6663834 101.4407164  66.2622653   6.2016968  99.0797218  66.8796020
   6.7345304  98.3185507  66.6495328   5.6731049  98.7870870  67.6220174
   9.3686663  84.1857284  62.4089661   9.0250932  85.0758926  62.3328772
   9.7365625  83.9958942  61.5459246   9.3336945  94.1765895  50.9162097
   8.8183569  94.9470500  51.1550484   9.0614254  93.5031032  51.5395158
   6.9184056  89.0215596  55.9747335   6.0625653  88.6322447  55.7952974
   7.3311008  89.1007557  55.1147121   8.4483203  86.5561939  60.3738895
   7.9447999  86.5192075  59.5606700   8.7413810  87.4654682  60.4335551
   4.6926089  86.6400669  59.3805076   5.5579086  86.4443478  59.0210966
   4.7603598  86.4111021  60.3074433  14.3071219  96.9298250  52.8515270
  13.5300662  96.5909410  52.4070432  14.9862700  96.9350873  52.1770235
   9.1223248  92.0492987  52.7421878   8.8173384  92.3639137  53.5932021
  10.0753691  92.1274407  52.7849211   7.5669680  98.2083211  54.3914832
   7.0391042  97.4735970  54.0788069   7.0657183  98.9857887  54.1454800
  12.5462526  96.4032231  59.5081878  11.8886201  97.0931493  59.5962007
  13.3502926  96.7928663  59.8515864   2.2988408  88.8702877  56.7521443
   2.8732160  88.6478059  56.0194636   2.8859390  88.9391572  57.5050045
  11.3567985  94.7576604  57.5585820  11.8699867  95.3906596  58.0607530
  12.0069209  94.1577799  57.1929180   2.6257995  90.9007338  50.7717329
   1.7895307  91.2382025  51.0926603   2.4862765  90.7656318  49.8344466
   4.6011076  85.7444126  55.4796513   3.9475488  85.4293143  54.8553127
   4.5591550  85.1219866  56.2056336   5.7122281  96.0263421  47.3949805
   4.8049342  95.7952675  47.5940954   6.2093312  95.2301040  47.5823786
   8.6190359 104.7360928  50.3146491   7.9452058 105.0392625  50.9231449
   9.0056181 105.5390009  49.9651948   7.8348816  92.2326060  59.8044160
   6.9171377  92.4541007  59.6465848   8.2508960  92.3072370  58.9455868
   8.6183864  93.6317475  54.9346841   9.3655683  94.1438872  54.6253963
   8.8875453  93.3101528  55.7951234   6.8910514  96.1276016  51.9173795
   5.9821733  95.8435049  52.0146265   6.9205598  96.5475094  51.0577102
  12.1229781  99.7382605  55.6864962  11.6692108  98.8973515  55.7430153
  11.4923748 100.3744004  56.0239743  11.0662701  90.6674591  56.9165630
  10.3285458  90.1551978  57.2475872  11.3189474  90.2274973  56.1048907
  10.5662721 101.5759102  56.6214781  10.8585695 102.1364159  55.9027146
  11.0761341 101.8687663  57.3767940  11.1674328  83.4450843  57.5107399
  11.4733205  82.5848207  57.2233314  11.8926933  84.0368464  57.3106393
   5.4395408  93.7404637  58.0183590   5.4944018  92.7878473  57.9426067
   4.6286610  93.8964076  58.5024889   6.5886602  97.6684760  49.2561873
   6.1506032  96.9520619  48.7967511   7.3297043  97.8960874  48.6946965
   3.3787768  92.3581696  55.7773969   2.5655633  92.6575867  56.1839161
   3.8746762  91.9637385  56.4948451   5.5296346 102.3539453  57.7108234
   5.4872525 102.5800300  56.7816766   6.4459045 102.1202828  57.8594035
   8.9761980  92.8223521  64.6088863   9.3311367  93.0494994  65.4683329
   9.6234111  93.1541898  63.9866118  14.7059717  95.9441957  55.3138192
  14.5677615  96.1343553  54.3859381  14.3495935  96.7061339  55.7706243
   2.8701843  89.9300052  61.3935204   3.5101222  89.7888811  60.6958167
   2.0379373  89.6434565  61.0173806  14.7329096  98.0118484  60.3249464
  15.1665603  97.9193773  61.1732518  15.4460677  97.9875984  59.6869480
   3.6462147  99.2302482  57.5070197   4.4402745  98.7352802  57.3052771
   2.9353839  98.7020345  57.1437902   8.4656991 101.6120578  61.8582564
   8.5194013 102.1811514  62.6260280   7.5971772 101.7822463  61.4936601
   1.3455384  91.3138134  63.3407015   2.0178438  91.1055496  62.6919664
   0.5185171  91.1160220  62.9012248  15.5944646  98.0542184  62.8582349
  15.7880536  98.9587995  63.1041624  15.4945264  97.5949603  63.6920934
   7.2480956  87.9400075  65.3572676   6.6008871  88.6390025  65.2637153
   8.0181972  88.3736219  65.7248924  10.6559754  98.2048927  68.4323230
  10.5045261  97.9759479  67.5153313  10.6464434  99.1619528  68.4454575
   7.4245091  95.7780840  63.4169496   8.3537151  95.9291999  63.2438463
   7.0036121  95.8664861  62.5618143   6.2233423  99.8031504  61.1868034
   6.0844508  99.4350289  62.0593972   5.4348019 100.3179144  61.0151991
   6.8181575 104.9040601  52.5293570   6.9933330 104.4328644  53.3439193
   6.1314363 105.5306367  52.7574831   7.7738638  99.1813107  58.5756871
   7.4388470  99.1413877  59.4714521   7.2742583  98.5157823  58.1027282
   1.7482882  94.5880737  64.1009453   1.6102680  93.8560976  64.7020992
   2.6587805  94.4989637  63.8193640  10.7097829  96.5269141  48.8493931
  10.0927000  95.8015969  48.7526984  10.2414318  97.2878502  48.5061005
   4.3765182  94.3000696  63.5893132   5.0864801  93.6593888  63.5479751
   4.3334491  94.5513591  64.5119313  12.3651961 101.2368050  66.5099711
  12.3064507 100.5527270  65.8430294  12.7671479 101.9787040  66.0580337
   3.0894116  91.2865914  65.4088772   2.5531473  90.8356653  66.0610368
   2.5010825  91.4211823  64.6659236   1.3842660 108.0529963  59.3033430
   1.6239258 108.6848488  59.9812449   0.5411856 107.7018003  59.5898790
   2.4996375  90.7454566  47.9715235   1.6225842  90.6243366  47.6077482
   2.9754128  89.9540644  47.7194124  12.3669368  99.2007634  64.7413691
  11.4796147  98.8633555  64.8640090  12.9367919  98.4690665  64.9782456
   5.8970522 103.8609086  61.7074934   5.8240693 104.6664057  62.2194239
   5.4547915 104.0601052  60.8822956   5.6860301 103.0980856  55.2177756
   4.9027823 103.6402536  55.3115980   6.3853046 103.6154836  55.6171997
   8.9956951  88.9075485  57.8611961   9.4925651  88.1545448  57.5413031
   8.2243933  88.9439802  57.2955171  16.8486709  94.6115851  59.5030253
  16.8376585  95.4940566  59.1324186  15.9804088  94.2587402  59.3084790
   8.3569205 103.7595920  63.8633093   9.0697177 104.3943385  63.7908994
   7.8659234 103.8559786  63.0473095  10.0786732  97.6647173  55.4350385
   9.1443011  97.7848635  55.2655089  10.2563401  96.7619639  55.1710394
   5.5791920  91.0492868  57.5883646   5.2089708  90.4963909  58.2764551
   6.0751013  90.4451002  57.0358646  13.4659283  93.5064492  55.9700419
  13.9319736  94.3392483  55.8960721  13.9166784  93.0409473  56.6745677
   3.4081119 101.5090363  64.6838664   4.1090578 102.1426846  64.8368058
   2.9376234 101.8505095  63.9234303  11.5335515  99.8508313  52.9686571
  11.8095358  99.7364908  53.8780445  10.6640013  99.4525798  52.9298744
  11.4375946  85.8745079  60.0091320  10.5239026  86.1049306  60.1773527
  11.8669048  85.9583523  60.8605352  11.2082405  94.0634971  62.5091214
  10.5553855  94.3110878  61.8543667  11.5862785  93.2499109  62.1753691
   8.1689579 104.0994664  56.6119384   8.3511973 103.2816320  57.0747137
   8.9922565 104.3162356  56.1744274   8.5031744 103.0262849  53.8734433
   9.0319511 102.5155304  53.2604595   8.7659964 102.7105379  54.7379966
   7.2569978  94.8054782  68.9957251   6.5810615  94.7048911  69.6659626
   8.0797612  94.6493996  69.4593248   1.8587492 104.0777966  56.6332209
   1.1897867 104.5624093  56.1496249   1.7200362 104.3247186  57.5475587
   5.9992761 106.1121709  63.2314867   6.5511069 106.2753331  63.9963952
   6.3398954 106.7026147  62.5594892   0.9757254  88.4596859  63.8336752
   1.0398580  89.3211690  63.4214150   0.9124374  87.8470861  63.1009110
  10.8503635 100.9382967  69.0863522  11.3943539 101.5512925  68.5918476
  10.2690480 101.4962545  69.6030535   9.1361148 104.0603685  60.2178549
   9.0112287 103.2593425  59.7089495   9.7940239 104.5549878  59.7292519
  11.1996056 101.8612705  61.8458099  10.2526392 101.7418056  61.7736426
  11.5478829 100.9735203  61.9284361   3.5595630  87.7506844  65.6696341
   4.0830031  87.9969140  66.4322651   3.3407963  88.5826879  65.2499479
   8.2042490 101.6565421  58.0462452   8.0567452 100.7282129  58.2270022
   9.0295983 101.6785512  57.5619527   2.0704734  90.3083488  53.9042944
   2.4100806  90.8369410  53.1821552   2.5176854  90.6463894  54.6801510
  11.8076611 102.4793980  59.1327324  12.7323159 102.2736841  58.9951776
  11.6391915 102.2310381  60.0416666   4.7648175  88.6920539  63.3546012
   4.4244995  87.8928352  63.7566692   4.0587181  88.9922250  62.7822845
   5.4164646  85.7769851  61.8073335   6.2390716  85.3030330  61.6852225
   5.6602710  86.5560335  62.3072021   4.0572881  88.8058110  52.1036237
   4.7781243  89.1839363  51.5999953   3.4338185  89.5246987  52.2071215
   8.2004004  89.5103259  53.0394569   8.4167618  90.3927897  52.7383397
   7.7198071  89.1189472  52.3100211   2.9403225  92.4688972  59.6165314
   2.7947806  92.7829275  60.5089595   2.4628429  93.0873872  59.0636212
   4.7999608  89.4591520  59.6646203   4.7861177  88.5632613  59.3278501
   5.5172036  89.4662184  60.2984489   6.6525739  89.8928860  61.7099330
   6.3943517  90.8145931  61.7083661   6.1210779  89.4959295  62.3999795
  11.5971928 102.9979647  54.4889416  11.7708805 102.4326070  53.7363268
  12.0900819 103.7980542  54.3068906   4.2036504  88.3405900  54.9333773
   4.3252415  87.4122546  55.1324661   3.9138546  88.3544586  54.0212089
   7.0727694  86.0260811  58.0700493   7.0949391  86.0900144  57.1152473
   7.4895753  85.1865319  58.2640999  17.4511319  95.7616070  56.1079716
  17.8942465  95.0123395  55.7098839  16.5737829  95.7526207  55.7253448
  12.5847100 102.3146412  51.5886314  13.2798005 102.9353104  51.8073629
  12.9270250 101.4641763  51.8638692  14.4838523  99.7646117  53.1173645
  15.0089847 100.1033390  52.3922965  14.3960876  98.8293133  52.9336780
   6.1458572 103.6780191  65.2463522   6.4545698 103.4329338  66.1186221
   6.9434054 103.8826829  64.7582392   6.1679184 105.8318101  57.4768898
   5.7284174 105.3394479  58.1701755   6.9187301 105.2891068  57.2360973
   3.6153056 101.3756110  59.5491200   2.9933065 100.7126815  59.2493428
   4.2857923 101.4017242  58.8664848   3.6877584  89.8537898  69.1423706
   3.7365739  90.7300020  68.7601475   4.2300098  89.3115291  68.5695349
  14.1732429 100.3979021  68.4224843  13.3827973 100.3803160  67.8829342
  13.9365784 100.9367315  69.1773879  14.2930304  97.2471487  65.7357571
  14.3428309  97.0821495  66.6773094  14.1844228  96.3798746  65.3455452
   3.1766563  99.9260033  53.0249660   3.3254683 100.6095497  52.3716333
   3.9833006  99.9065123  53.5399116  11.5834067  93.2302415  67.0516878
  12.4843929  93.0908880  66.7600876  11.6582041  93.3956870  67.9915056
   5.9176872  90.6069270  65.8970064   5.0480181  90.9002836  65.6252653
   6.1536352  91.1909715  66.6177328  15.7948501  99.6668429  65.9799593
  15.5033309 100.0298409  66.8163054  15.1820632  98.9535437  65.8012925
  16.9944183  97.2321309  58.5002163  17.8291075  97.6711113  58.6639724
  17.1303312  96.7559962  57.6810409  14.0435689  94.7901043  64.4479651
  14.5189811  94.9828690  63.6398502  13.1201255  94.8460229  64.2023035
   0.9319196  95.9525211  54.0310729   0.6865238  95.0487541  54.2290939
   1.1015111  95.9542361  53.0890207   8.6215906  86.8248887  63.4135485
   9.1397850  87.5609914  63.0881973   8.2671039  87.1312880  64.2482244
   8.8728500  83.2449170  58.9336381   9.1530254  82.5772359  59.5596808
   9.6579107  83.4378265  58.4211045   6.6761969 102.4208163  50.4961408
   6.1035936 103.0398351  50.0431880   7.2494762 102.9707525  51.0301330
  12.7437358  91.6666804  62.6807957  13.6954781  91.7664901  62.7020181
  12.5740809  90.8745072  63.1906041  10.7651738  88.7522387  62.8667357
  10.1701670  89.0327399  62.1713846  10.4801435  89.2416288  63.6384099
   9.8959228 102.7045314  51.6269990  10.8289902 102.6390875  51.8302866
   9.8082441 103.5401580  51.1684523  12.5247245 102.0211184  48.5873938
  12.4460877 101.6871048  49.4809696  13.3456912 102.5132952  48.5865410
  15.2225436  94.8872923  61.7950256  15.1901756  93.9488924  61.9809940
  15.8326060  94.9656960  61.0616081   7.0608767  93.7568976  47.8377460
   8.0067872  93.6275184  47.9065878   6.6823012  93.0183638  48.3146888
  15.3719925  91.6783967  61.8408539  14.8558973  90.8942423  61.6538468
  16.2559873  91.3502683  62.0055059  13.0330652  85.4224982  57.8004352
  12.8355473  85.1140070  58.6847684  13.6430357  86.1486621  57.9302282
  21.0401986  95.9488930  60.9356293  21.7705375  95.6874218  61.4963996
  20.4308932  95.2117652  60.9758361  19.1217283  94.0896793  61.5330744
  18.3950447  93.9552758  60.9247236  18.7064570  94.3973621  62.3387462
   6.9447460  97.8086722  69.2978117   7.8650469  97.9865321  69.4918164
   6.9097043  96.8642768  69.1457816   5.2451684  91.6818953  47.7732345
   4.3383140  91.3852065  47.8495059   5.5227665  91.3848771  46.9066632
   6.8613750  86.2255842  53.9276587   6.0514478  85.8802927  54.3031833
   7.5498167  85.9163386  54.5164198   8.7904298  85.3033889  55.5500883
   9.3435337  85.7229343  56.2090907   9.0274385  84.3769637  55.5923839
   4.8137397  91.2920963  71.3303647   4.7134124  92.2415320  71.2615738
   4.5958940  90.9639202  70.4579717   4.0150469  88.5405888  47.9144325
   4.8769633  88.8660786  48.1740142   4.2000813  87.7537384  47.4017390
  12.1683105  87.4134414  55.0579548  11.5881774  88.0719218  54.6757600
  11.9019038  86.5911759  54.6466965  10.6186672  86.8139472  57.2600868
  11.1186450  86.9256006  56.4515187  11.2622280  86.5100525  57.9001676
   4.6768668  94.7218102  70.1468709   4.1935749  95.5218462  70.3532598
   4.7629607  94.7326046  69.1936153   0.6042005  98.6122636  62.1837143
   1.5585259  98.5806579  62.1167074   0.4054529  98.1513260  62.9987369
   1.1941387  97.1823752  64.7507940   2.0134276  97.6767831  64.7742778
   1.4678195  96.2655720  64.7225508  10.9507983  89.5734505  54.1135896
  10.0633838  89.8584155  53.8956091  11.3661972  89.4128268  53.2663173
  14.3022519  89.5981026  57.8290235  15.0782910  90.0877478  58.1014852
  13.5770654  90.0239080  58.2862105  16.7395078  90.3108645  58.8864176
  17.3339569  90.0704381  58.1757484  16.8121662  89.5915775  59.5137712
  10.0951197  99.3379179  48.2083916  10.7987047  99.5429182  48.8241572
   9.3713846  99.9055941  48.4732999  10.9249007  95.0889041  54.3286186
  10.8684208  95.5457592  53.4893818  11.4777350  94.3279725  54.1509029
  14.7353813  90.8778772  55.1536306  14.4790747  90.4775408  55.9844513
  14.1106681  91.5922566  55.0286445  19.0466151  93.6174846  57.6607597
  18.4865709  93.6868035  58.4339159  18.4409654  93.4415830  56.9407093
   2.1161360 105.0511573  59.4125783   1.9993744 105.9957005  59.3104474
   1.2953806 104.7485134  59.8011582  12.0037894  99.7761709  50.2582376
  12.8383498  99.3442907  50.0759851  11.8422237  99.6043722  51.1859270
  11.6583786  96.2793822  51.6238715  11.6032590  96.1138093  50.6827159
  11.0329842  96.9869855  51.7800905   8.9729694  98.5842734  70.9492278
   9.8420853  98.7583386  70.5878913   8.4936445  99.4037151  70.8268007
   4.9679912  85.7801931  51.2024034   4.9558582  86.7243771  51.3592305
   5.8603334  85.5972076  50.9083495   3.1415874 105.7039835  62.6281712
   4.0443121 105.7363445  62.9448207   2.9153244 104.7740286  62.6428047
   4.8969476 104.4570821  59.2891790   3.9465107 104.4572683  59.1756163
   5.2001962 103.7103556  58.7727825   8.7832031  82.3744707  55.4569970
   8.0164427  81.8203194  55.6026653   9.1942736  82.4466576  56.3184122
  20.6322169 110.2931360  60.3537553  21.2700579 110.1738107  59.6500893
  20.5143012 111.2412204  60.4125505  17.4411876 110.2458788  60.2899077
  17.1030387 110.1299852  59.4019612  18.3101644 109.8449953  60.2700084
  13.2998691 112.0994264  56.2795968  12.7363556 112.0084201  55.5112256
  13.1851086 111.2794169  56.7598461  17.9231659 111.3993639  66.2485283
  17.9120299 111.0046438  65.3765787  18.0852298 110.6659712  66.8419054
  10.8463123 113.5945456  59.1180189  11.6384415 113.2536280  58.7026488
  11.0859773 113.7040431  60.0382342  18.8798250 115.7665232  51.5910433
  18.2286230 116.3519312  51.2044447  19.6742613 116.2971427  51.6505471
  12.8053877 112.8554369  51.9897568  13.5784753 112.3083356  51.8510443
  13.1579276 113.7198618  52.2012029  14.6438920 114.1830751  65.1964467
  14.3528786 115.0876382  65.0811133  15.2795904 114.2247279  65.9108536
  15.5695127 111.5607600  61.7865827  16.1658699 111.3363622  61.0722789
  15.6270098 110.8192345  62.3891274  15.1420155 109.0147035  49.6216018
  15.3945676 108.4928556  48.8599481  14.2044714 108.8513181  49.7242701
  20.1863438 108.0182813  57.4290761  20.9726527 107.6002237  57.0781178
  20.4502142 108.9228906  57.5972409  20.3573515 113.4555664  52.1279418
  19.7219348 113.5290290  52.8400322  20.0270922 114.0449263  51.4498497
  25.5871865 107.9558047  58.3323739  26.3197037 107.3857263  58.5661569
  24.8311221 107.5679647  58.7730245  14.8616444 110.9175141  51.8240392
  14.7452702 110.2420044  52.4921477  14.9718704 110.4307515  51.0072546
  17.2047985 110.3785288  55.5287082  16.8406192 109.8515909  56.2400003
  18.0615101 109.9883757  55.3553567  23.1097285 101.6679621  62.7918348
  22.7780610 102.5375032  62.5679563  22.5142899 101.3515905  63.4712378
  16.8453472 105.4075188  50.5248430  17.0127874 106.2755424  50.8918901
  16.6550641 105.5702470  49.6009719  19.6028805 113.8692167  62.1914261
  19.3029528 114.7717206  62.0830068  19.2579864 113.6024350  63.0435413
  13.0541286 110.3205964  58.2250965  12.1291783 110.1882178  58.4328657
  13.3025699 111.1000183  58.7220907  23.0025949 106.3874707  59.8711698
  22.0942826 106.3190115  59.5770459  22.9513544 106.8646652  60.6993523
  16.8242692 107.8632845  51.5095097  16.7042318 108.3089896  52.3480577
  16.1295281 108.2118163  50.9508635  10.4150097 109.9639237  59.0594754
  10.5442478 110.2173716  59.9734166   9.7347549 110.5566945  58.7399409
  14.5849585 120.6336487  55.1585228  14.5073614 121.5844312  55.2373709
  13.9811228 120.2882360  55.8160155  17.0766814 107.8064353  67.8146595
  16.3000148 108.3658273  67.8049460  17.7157377 108.2921136  68.3361465
  24.8687595 104.5891145  61.6489572  24.2261975 104.8823679  61.0029366
  24.3642524 104.4744066  62.4542769  22.5227759 108.3354319  52.3375431
  23.4345615 108.5681705  52.1623129  22.0137406 108.9191363  51.7750510
  15.3313187 110.6149806  67.3764562  16.0727871 111.1534850  67.0999386
  14.6250172 111.2416095  67.5336114  20.8068526 112.7578946  65.9736724
  21.2151882 112.3161357  65.2291356  20.0845788 112.1831574  66.2270917
  17.1599596 107.6951553  63.3470281  18.0060792 108.1190967  63.4904930
  17.0998234 107.0385177  64.0408844  21.1297341 113.3180137  59.7289013
  20.5006203 113.4825851  59.0265080  20.7423003 113.7321747  60.4999977
  25.0086573 114.2534575  57.0833376  24.3237611 114.6333476  56.5330410
  25.0930422 114.8629902  57.8165324  20.3099042 105.3555922  65.0051454
  20.0659974 106.1097982  64.4685730  20.5858972 105.7341269  65.8398701
  22.2637504 111.8994534  63.6828720  22.4754400 112.5426294  63.0063101
  22.2167253 111.0656850  63.2150650  19.8663733 104.5112355  60.5865292
  19.0048212 104.8093608  60.8782030  19.8926168 104.7282753  59.6546325
  16.6825303 113.0554545  56.9939098  17.1463648 113.3342248  56.2043720
  16.4182101 112.1537990  56.8112188  13.5749384 112.6026027  59.9318861
  14.1450741 113.0313295  59.2936345  14.1657496 112.3208611  60.6303047
  15.6194189 109.1777697  53.8028663  16.3218232 109.6298741  54.2702589
  15.2874817 108.5361516  54.4308556  14.0674550 107.7689454  68.1779872
  13.4373211 108.4505735  68.4115269  13.9610638 107.6572536  67.2333010
   9.3619523 107.4361250  59.1045796   8.5718577 107.6918779  58.6285907
   9.8530770 108.2509588  59.2097837  23.3783332 114.7766489  61.8551077
  24.2000776 114.3746677  61.5733759  23.3745735 114.6734723  62.8067193
  11.3134268 107.8005829  56.0629273  10.5165432 107.9124524  56.5812769
  11.0859860 108.1392482  55.1970164  17.1439936 114.3250533  64.0111788
  17.2084368 114.7870940  64.8469960  16.4350860 113.6947898  64.1394098
   7.6457226 107.6891741  61.5360787   7.8965264 108.5738750  61.8018363
   8.1816774 107.5096342  60.7635879  31.4689325 111.1205238  58.2036049
  30.7153034 110.5512636  58.0480053  31.6036867 111.0867902  59.1506683
  16.8587954 115.9918640  53.8790768  16.7233628 116.8370176  54.3075616
  17.3997766 116.1937918  53.1156702  13.3455293 102.0710220  70.5405123
  12.9522239 101.5176418  71.2152767  14.1621433 102.3820798  70.9311641
  10.3117351 113.5094078  54.4518693  10.8241871 114.3037328  54.6024258
  10.9640064 112.8120369  54.3852295  12.1212236 116.6259834  56.5341446
  12.2978864 117.5477799  56.3462430  12.9169069 116.3118254  56.9635826
  16.2623254 103.4868099  68.1325380  17.0032968 104.0875252  68.0529842
  16.4941177 102.7445737  67.5743422  11.4064592 108.6724466  66.4103609
  11.2918107 107.7709724  66.7110708  10.5509110 108.9188163  66.0588426
  18.4856430 116.6142207  68.0091110  18.0420284 115.8278585  67.6912015
  19.1473643 116.8021357  67.3435001  13.2443551 118.1438008  62.5351789
  13.7950976 118.0155072  61.7628783  12.4055027 118.4432897  62.1846681
  20.5837668 116.8945007  66.0372511  20.5656143 117.7153888  65.5452781
  21.5057588 116.7699082  66.2622653  17.0410722 114.4089136  66.8796020
  17.5739059 113.6477424  66.6495328  16.5124803 114.1162788  67.6220174
  20.2080417  99.5149202  62.4089661  19.8644686 100.4050844  62.3328772
  20.5759380  99.3250860  61.5459246   8.2766268 111.8382732  55.2278264
   9.1141490 112.2479741  55.0111971   8.4544535 110.8982175  55.1978458
  20.1730700 109.5057813  50.9162097  19.6577323 110.2762418  51.1550484
  19.9008008 108.8322949  51.5395158  17.7577811 104.3507514  55.9747335
  16.9019407 103.9614364  55.7952974  18.1704763 104.4299475  55.1147121
  19.2876957 101.8853857  60.3738895  18.7841753 101.8483992  59.5606700
  19.5807564 102.7946600  60.4335551  15.5319843 101.9692587  59.3805076
  16.3972840 101.7735396  59.0210966  15.5997352 101.7402939  60.3074433
  25.1464974 112.2590168  52.8515270  24.3694417 111.9201327  52.4070432
  25.8256455 112.2642791  52.1770235  19.9617003 107.3784905  52.7421878
  19.6567139 107.6931054  53.5932021  20.9147445 107.4566325  52.7849211
  18.4063435 113.5375128  54.3914832  17.8784796 112.8027888  54.0788069
  17.9050938 114.3149805  54.1454800  23.3856281 111.7324149  59.5081878
  22.7279955 112.4223410  59.5962007  24.1896680 112.1220581  59.8515864
  13.1382162 104.1994795  56.7521443  13.7125914 103.9769976  56.0194636
  13.7253145 104.2683489  57.5050045  22.1961740 110.0868522  57.5585820
  22.7093621 110.7198513  58.0607530  22.8462964 109.4869717  57.1929180
  13.4651750 106.2299256  50.7717329  12.6289062 106.5673942  51.0926603
  13.3256519 106.0948236  49.8344466  15.4404830 101.0736044  55.4796513
  14.7869242 100.7585061  54.8553127  15.3985304 100.4511784  56.2056336
  16.5516035 111.3555339  47.3949805  15.6443097 111.1244592  47.5940954
  17.0487067 110.5592958  47.5823786  19.4584114 120.0652846  50.3146491
  18.7845813 120.3684543  50.9231449  19.8449936 120.8681926  49.9651948
  18.6742570 107.5617977  59.8044160  17.7565132 107.7832924  59.6465848
  19.0902714 107.6364288  58.9455868  19.4577618 108.9609393  54.9346841
  20.2049437 109.4730790  54.6253963  19.7269208 108.6393446  55.7951234
  17.7304268 111.4567934  51.9173795  16.8215488 111.1726966  52.0146265
  17.7599352 111.8767012  51.0577102  22.9623536 115.0674523  55.6864962
  22.5085863 114.2265433  55.7430153  22.3317503 115.7035921  56.0239743
  21.9056455 105.9966509  56.9165630  21.1679212 105.4843895  57.2475872
  22.1583229 105.5566891  56.1048907  21.4056475 116.9051020  56.6214781
  21.6979449 117.4656077  55.9027146  21.9155096 117.1979581  57.3767940
  22.0068083  98.7742761  57.5107399  22.3126960  97.9140125  57.2233314
  22.7320688  99.3660381  57.3106393   8.2992439 109.1773448  55.8988997
   8.1016839 108.5842808  55.1740064   7.7439103 108.8725658  56.6164936
  16.2789162 109.0696554  58.0183590  16.3337772 108.1170391  57.9426067
  15.4680365 109.2255993  58.5024889  17.4280356 112.9976677  49.2561873
  16.9899786 112.2812536  48.7967511  18.1690797 113.2252792  48.6946965
  14.2181522 107.6873614  55.7773969  13.4049388 107.9867785  56.1839161
  14.7140517 107.2929303  56.4948451  16.3690100 117.6831371  57.7108234
  16.3266279 117.9092217  56.7816766  17.2852799 117.4494745  57.8594035
  19.8155734 108.1515438  64.6088863  20.1705122 108.3786912  65.4683329
  20.4627865 108.4833815  63.9866118  25.5453471 111.2733874  55.3138192
  25.4071370 111.4635470  54.3859381  25.1889690 112.0353257  55.7706243
  13.7095597 105.2591969  61.3935204  14.3494976 105.1180729  60.6958167
  12.8773128 104.9726483  61.0173806  25.5722851 113.3410401  60.3249464
  26.0059357 113.2485690  61.1732518  26.2854431 113.3167902  59.6869480
  14.4855901 114.5594400  57.5070197  15.2796500 114.0644720  57.3052771
  13.7747593 114.0312263  57.1437902  19.3050746 116.9412495  61.8582564
  19.3587768 117.5103432  62.6260280  18.4365527 117.1114380  61.4936601
  10.7938665 108.7037482  53.5829949   9.8636253 108.6421937  53.7999911
  10.8896137 108.1813434  52.7866590  10.7124214 105.2292294  56.1708191
  10.9731031 106.1437628  56.0617351  11.5341386 104.7616737  56.3204804
  12.1849139 106.6430052  63.3407015  12.8572192 106.4347414  62.6919664
  11.3578925 106.4452138  62.9012248  26.4338400 113.3834102  62.8582349
  26.6274290 114.2879912  63.1041624  26.3339018 112.9241521  63.6920934
  18.0874711 103.2691993  65.3572676  17.4402626 103.9681942  65.2637153
  18.8575726 103.7028136  65.7248924  21.4953509 113.5340845  68.4323230
  21.3439015 113.3051396  67.5153313  21.4858188 114.4911446  68.4454575
  18.2638845 111.1072757  63.4169496  19.1930905 111.2583917  63.2438463
  17.8429875 111.1956778  62.5618143  17.0627177 115.1323422  61.1868034
  16.9238263 114.7642206  62.0593972  16.2741773 115.6471061  61.0151991
  17.6575329 120.2332518  52.5293570  17.8327085 119.7620562  53.3439193
  16.9708117 120.8598285  52.7574831  18.6132392 114.5105025  58.5756871
  18.2782225 114.4705795  59.4714521  18.1136338 113.8449741  58.1027282
  12.5876636 109.9172655  64.1009453  12.4496434 109.1852893  64.7020992
  13.4981560 109.8281555  63.8193640  21.5491584 111.8561059  48.8493931
  20.9320754 111.1307887  48.7526984  21.0808072 112.6170419  48.5061005
  15.2158937 109.6292614  63.5893132  15.9258555 108.9885806  63.5479751
  15.1728245 109.8805509  64.5119313  23.2045716 116.5659967  66.5099711
  23.1458262 115.8819187  65.8430294  23.6065234 117.3078957  66.0580337
  13.9287871 106.6157832  65.4088772  13.3925228 106.1648570  66.0610368
  13.3404579 106.7503741  64.6659236  12.2236414 123.3821881  59.3033430
  12.4633013 124.0140405  59.9812449  11.3805611 123.0309921  59.5898790
  13.3390130 106.0746483  47.9715235  12.4619596 105.9535284  47.6077482
  13.8147883 105.2832562  47.7194124  23.2063123 114.5299551  64.7413691
  22.3189902 114.1925473  64.8640090  23.7761674 113.7982582  64.9782456
   4.8592270 110.8623643  58.0656742   5.5463310 110.5485373  57.4777758
   4.7040399 111.7665008  57.7923994   9.6626992 105.7513840  62.4941766
   9.5785181 105.1439509  61.7592176   8.8409698 106.2422858  62.4951263
  16.7364276 119.1901004  61.7074934  16.6634448 119.9955975  62.2194239
  16.2941669 119.3892969  60.8822956  16.5254056 118.4272774  55.2177756
  15.7421578 118.9694454  55.3115980  17.2246801 118.9446753  55.6171997
  19.8350706 104.2367403  57.8611961  20.3319405 103.4837365  57.5413031
  19.0637687 104.2731720  57.2955171  27.6880463 109.9407769  59.5030253
  27.6770340 110.8232484  59.1324186  26.8197843 109.5879319  59.3084790
  19.1962960 119.0887838  63.8633093  19.9090932 119.7235302  63.7908994
  18.7052988 119.1851704  63.0473095  20.9180487 112.9939090  55.4350385
  19.9836765 113.1140553  55.2655089  21.0957155 112.0911557  55.1710394
  16.4185675 106.3784786  57.5883646  16.0483462 105.8255826  58.2764551
  16.9144767 105.7742920  57.0358646  24.3053038 108.8356410  55.9700419
  24.7713490 109.6684401  55.8960721  24.7560538 108.3701391  56.6745677
  14.2474873 116.8382281  64.6838664  14.9484333 117.4718764  64.8368058
  13.7769988 117.1797013  63.9234303  22.3729269 115.1800231  52.9686571
  22.6489113 115.0656825  53.8780445  21.5033768 114.7817716  52.9298744
  22.2769701 101.2036997  60.0091320  21.3632780 101.4341223  60.1773527
  22.7062802 101.2875441  60.8605352  22.0476159 109.3926889  62.5091214
  21.3947609 109.6402796  61.8543667  22.4256539 108.5791027  62.1753691
  19.0083333 119.4286582  56.6119384  19.1905728 118.6108238  57.0747137
  19.8316319 119.6454274  56.1744274  19.3425499 118.3554767  53.8734433
  19.8713265 117.8447221  53.2604595  19.6053718 118.0397297  54.7379966
  18.0963732 110.1346700  68.9957251  17.4204369 110.0340829  69.6659626
  18.9191366 109.9785913  69.4593248   9.8442591 116.3718636  61.6169766
  10.4296028 115.6262324  61.7497671   9.6467430 116.6822593  62.5006430
  12.6981247 119.4069883  56.6332209  12.0291622 119.8916011  56.1496249
  12.5594116 119.6539104  57.5475587   4.4360246 108.9424236  60.3374210
   4.4744346 108.4087827  61.1311328   3.9300539 108.4159442  59.7185187
  16.8386515 121.4413627  63.2314867  17.3904823 121.6045249  63.9963952
  17.1792709 122.0318065  62.5594892  11.8151008 103.7888777  63.8336752
  11.8792335 104.6503608  63.4214150  11.7518129 103.1762778  63.1009110
  11.2903281 105.8611909  67.4809786  11.9175320 105.4788987  68.0947310
  10.4331200 105.6426111  67.8465479  21.6897389 116.2674885  69.0863522
  22.2337293 116.8804843  68.5918476  21.1084234 116.8254463  69.6030535
   8.0668824 107.6688338  53.4128141   8.3622265 106.7599017  53.3595195
   7.1656859 107.6476078  53.0909143  19.9754902 119.3895603  60.2178549
  19.8506042 118.5885342  59.7089495  20.6333993 119.8841796  59.7292519
  11.5963071 105.7444335  59.3955690  10.8749656 106.3580303  59.2563163
  12.3856326 106.2802100  59.3172336  22.0389811 117.1904623  61.8458099
  21.0920146 117.0709974  61.7736426  22.3872584 116.3027121  61.9284361
  14.3989384 103.0798762  65.6696341  14.9223786 103.3261058  66.4322651
  14.1801717 103.9118796  65.2499479   9.7956665 105.3502436  53.5367466
   9.4669371 104.4699815  53.3542572  10.1496036 105.2950105  54.4243855
  19.0436244 116.9857339  58.0462452  18.8961206 116.0574046  58.2270022
  19.8689738 117.0077430  57.5619527  12.9098488 105.6375406  53.9042944
  13.2494561 106.1661327  53.1821552  13.3570609 105.9755812  54.6801510
  22.6470366 117.8085898  59.1327324  23.5716913 117.6028759  58.9951776
  22.4785669 117.5602299  60.0416666  15.6041929 104.0212457  63.3546012
  15.2638750 103.2220270  63.7566692  14.8980935 104.3214167  62.7822845
  16.2558401 101.1061769  61.8073335  17.0784470 100.6322247  61.6852225
  16.4996465 101.8852253  62.3072021  14.8966635 104.1350028  52.1036237
  15.6174998 104.5131280  51.5999953  14.2731940 104.8538904  52.2071215
  19.0397758 104.8395176  53.0394569  19.2561373 105.7219814  52.7383397
  18.5591826 104.4481390  52.3100211  13.7796980 107.7980890  59.6165314
  13.6341560 108.1121193  60.5089595  13.3022183 108.4165790  59.0636212
  15.6393363 104.7883438  59.6646203  15.6254931 103.8924531  59.3278501
  16.3565791 104.7954101  60.2984489  17.4919493 105.2220778  61.7099330
  17.2337271 106.1437849  61.7083661  16.9604534 104.8251212  62.3999795
  22.4365682 118.3271565  54.4889416  22.6102560 117.7617988  53.7363268
  22.9294573 119.1272460  54.3068906   8.2542642 110.3386234  62.5552975
   7.7096110 111.1146042  62.6873249   9.1321992 110.6857039  62.3972096
  15.0430259 103.6697818  54.9333773  15.1646170 102.7414464  55.1324661
  14.7532301 103.6836504  54.0212089  17.9121449 101.3552728  58.0700493
  17.9343146 101.4192062  57.1152473  18.3289508 100.5157237  58.2640999
  28.2905073 111.0907988  56.1079716  28.7336219 110.3415313  55.7098839
  27.4131584 111.0818124  55.7253448  23.4240855 117.6438329  51.5886314
  24.1191759 118.2645022  51.8073629  23.7664005 116.7933681  51.8638692
   9.0408664 109.4656130  65.4483132   8.2990400 109.6138766  66.0347762
   8.7201408 109.7264396  64.5849881  25.3232278 115.0938035  53.1173645
  25.8483602 115.4325308  52.3922965  25.2354630 114.1585050  52.9336780
  16.9852326 119.0072109  65.2463522  17.2939453 118.7621255  66.1186221
  17.7827808 119.2118747  64.7582392  17.0072938 121.1610018  57.4768898
  16.5677929 120.6686397  58.1701755  17.7581055 120.6182986  57.2360973
   9.4865277 117.3521559  57.4793526  10.3123297 117.0525331  57.0992170
   9.1359329 116.5829182  57.9283315  14.4546811 116.7048027  59.5491200
  13.8326820 116.0418732  59.2493428  15.1251678 116.7309159  58.8664848
   7.6873882 115.2707886  58.4382460   6.8505791 114.8430060  58.2566461
   7.6597528 115.4640329  59.3753251  14.5271338 105.1829815  69.1423706
  14.5759494 106.0591938  68.7601475  15.0693852 104.6407208  68.5695349
  25.0126184 115.7270939  68.4224843  24.2221727 115.7095077  67.8829342
  24.7759538 116.2659232  69.1773879  25.1324059 112.5763405  65.7357571
  25.1822064 112.4113412  66.6773094  25.0237982 111.7090664  65.3455452
  14.0160318 115.2551951  53.0249660  14.1648438 115.9387415  52.3716333
  14.8226761 115.2357041  53.5399116  22.4227821 108.5594333  67.0516878
  23.3237684 108.4200798  66.7600876  22.4975796 108.7248788  67.9915056
  16.7570627 105.9361188  65.8970064  15.8873936 106.2294754  65.6252653
  16.9930107 106.5201633  66.6177328  26.6342256 114.9960346  65.9799593
  26.3427064 115.3590327  66.8163054  26.0214387 114.2827355  65.8012925
  27.8337938 112.5613226  58.5002163  28.6684829 113.0003030  58.6639724
  27.9697067 112.0851879  57.6810409  24.8829444 110.1192961  64.4479651
  25.3583566 110.3120607  63.6398502  23.9595009 110.1752147  64.2023035
  11.7712951 111.2817128  54.0310729  11.5258992 110.3779458  54.2290939
  11.9408865 111.2834279  53.0890207  19.4609660 102.1540805  63.4135485
  19.9791604 102.8901832  63.0881973  19.1064793 102.4604798  64.2482244
  11.0408598 107.0145486  51.5296891  10.3477843 107.0889841  50.8736927
  10.7960350 106.2505830  52.0518408  19.7122255  98.5741087  58.9336381
  19.9924008  97.9064276  59.5596808  20.4972861  98.7670183  58.4211045
  17.5155723 117.7500081  50.4961408  16.9429690 118.3690268  50.0431880
  18.0888517 118.2999443  51.0301330  23.5831113 106.9958721  62.6807957
  24.5348536 107.0956819  62.7020181  23.4134563 106.2036990  63.1906041
  21.6045492 104.0814304  62.8667357  21.0095424 104.3619317  62.1713846
  21.3195189 104.5708205  63.6384099  20.7352983 118.0337231  51.6269990
  21.6683656 117.9682793  51.8302866  20.6476196 118.8693498  51.1684523
  23.3641000 117.3503102  48.5873938  23.2854631 117.0162965  49.4809696
  24.1850666 117.8424869  48.5865410  26.0619191 110.2164841  61.7950256
  26.0295511 109.2780842  61.9809940  26.6719814 110.2948878  61.0616081
  17.9002522 109.0860894  47.8377460  18.8461626 108.9567102  47.9065878
  17.5216767 108.3475556  48.3146888  26.2113679 107.0075884  61.8408539
  25.6952728 106.2234341  61.6538468  27.0953628 106.6794601  62.0055059
  23.8724406 100.7516900  57.8004352  23.6749227 100.4431988  58.6847684
  24.4824112 101.4778539  57.9302282  31.8795741 111.2780848  60.9356293
  32.6099129 111.0166136  61.4963996  31.2702686 110.5409570  60.9758361
  29.9611038 109.4188710  61.5330744  29.2344201 109.2844675  60.9247236
  29.5458325 109.7265539  62.3387462  17.7841214 113.1378640  69.2978117
  18.7044224 113.3157239  69.4918164  17.7490797 112.1934685  69.1457816
  16.0845439 107.0110870  47.7732345  15.1776894 106.7143983  47.8495059
  16.3621420 106.7140688  46.9066632   7.0023379 108.3317234  58.2231392
   6.6826163 107.4782542  57.9305766   6.4556807 108.5465812  58.9789359
  10.7803287 111.0479675  61.9400898  10.9989296 111.9796782  61.9588932
  11.1929060 110.6887649  62.7255702  17.7007504 101.5547760  53.9276587
  16.8908233 101.2094845  54.3031833  18.3891921 101.2455304  54.5164198
  19.6298053 100.6325807  55.5500883  20.1829091 101.0521260  56.2090907
  19.8668139  99.7061555  55.5923839  15.6531152 106.6212880  71.3303647
  15.5527879 107.5707237  71.2615738  15.4352694 106.2931119  70.4579717
  14.8544223 103.8697805  47.9144325  15.7163387 104.1952704  48.1740142
  15.0394567 103.0829301  47.4017390   6.8711639 111.9520145  60.1924513
   6.1775111 111.5374098  59.6794468   7.6184630 111.9940682  59.5957932
  23.0076860 102.7426332  55.0579548  22.4275529 103.4011136  54.6757600
  22.7412792 101.9203677  54.6466965  21.4580426 102.1431390  57.2600868
  21.9580205 102.2547924  56.4515187  22.1016034 101.8392442  57.9001676
  15.5162422 110.0510019  70.1468709  15.0329504 110.8510379  70.3532598
  15.6023361 110.0617964  69.1936153   8.7848382 111.8838399  58.0690528
   8.7619070 111.9826086  57.1172411   9.0949018 112.7303550  58.3907694
  11.4435759 113.9414554  62.1837143  12.3979013 113.9098496  62.1167074
  11.2448283 113.4805178  62.9987369  12.0335142 112.5115670  64.7507940
  12.8528031 113.0059749  64.7742778  12.3071949 111.5947638  64.7225508
  21.7901738 104.9026422  54.1135896  20.9027593 105.1876073  53.8956091
  22.2055727 104.7420186  53.2663173  25.1416274 104.9272943  57.8290235
  25.9176664 105.4169396  58.1014852  24.4164408 105.3530997  58.2862105
  27.5788833 105.6400563  58.8864176  28.1733323 105.3996298  58.1757484
  27.6515416 104.9207693  59.5137712   9.7985988 119.4834173  59.2007341
   9.6640456 118.7234574  58.6345339   9.3818051 120.2075073  58.7336129
  20.9344951 114.6671097  48.2083916  21.6380801 114.8721099  48.8241572
  20.2107600 115.2347859  48.4732999  21.7642762 110.4180958  54.3286186
  21.7077963 110.8749510  53.4893818  22.3171104 109.6571643  54.1509029
  25.5747567 106.2070690  55.1536306  25.3184502 105.8067326  55.9844513
  24.9500436 106.9214484  55.0286445  29.8859905 108.9466763  57.6607597
  29.3259463 109.0159953  58.4339159  29.2803409 108.7707748  56.9407093
  12.9555114 120.3803490  59.4125783  12.8387498 121.3248923  59.3104474
  12.1347560 120.0777052  59.8011582  22.8431649 115.1053626  50.2582376
  23.6777253 114.6734825  50.0759851  22.6815992 114.9335640  51.1859270
  22.4977541 111.6085740  51.6238715  22.4426345 111.4430011  50.6827159
  21.8723596 112.3161772  51.7800905   7.2870056 106.8453804  65.4500137
   7.9328919 106.3352758  65.9387363   7.0787207 107.5822486  66.0243563
  19.8123448 113.9134651  70.9492278  20.6814608 114.0875304  70.5878913
  19.3330200 114.7329068  70.8268007  15.8073666 101.1093849  51.2024034
  15.7952336 102.0535688  51.3592305  16.6997088 100.9263994  50.9083495
  13.9809628 121.0331752  62.6281712  14.8836875 121.0655363  62.9448207
  13.7546998 120.1032203  62.6428047  15.7363230 119.7862739  59.2891790
  14.7858861 119.7864601  59.1756163  16.0395716 119.0395473  58.7727825
  19.6225786  97.7036625  55.4569970  18.8558182  97.1495112  55.6026653
  20.0336491  97.7758494  56.3184122  11.6267547 103.9921421  69.5475152
  12.4899008 103.6358226  69.7578476  11.0532958 103.6535316  70.2350556
  31.4715924 125.6223277  60.3537553  32.1094334 125.5030025  59.6500893
  31.3536767 126.5704121  60.4125505  28.2805630 125.5750705  60.2899077
  27.9424142 125.4591770  59.4019612  29.1495398 125.1741870  60.2700084
  24.1392446 127.4286182  56.2795968  23.5757311 127.3376119  55.5112256
  24.0244841 126.6086086  56.7598461  28.7625413 126.7285557  66.2485283
  28.7514054 126.3338355  65.3765787  28.9246053 125.9951630  66.8419054
  21.6856878 128.9237373  59.1180189  22.4778170 128.5828198  58.7026488
  21.9253528 129.0332348  60.0382342  29.7192004 131.0957150  51.5910433
  29.0679984 131.6811230  51.2044447  30.5136367 131.6263344  51.6505471
  23.6447632 128.1846287  51.9897568  24.4178508 127.6375274  51.8510443
  23.9973031 129.0490536  52.2012029  25.4832674 129.5122669  65.1964467
  25.1922540 130.4168300  65.0811133  26.1189659 129.5539197  65.9108536
  26.4088881 126.8899517  61.7865827  27.0052453 126.6655540  61.0722789
  26.4663853 126.1484263  62.3891274  25.9813909 124.3438953  49.6216018
  26.2339430 123.8220474  48.8599481  25.0438469 124.1805098  49.7242701
  31.0257192 123.3474731  57.4290761  31.8120282 122.9294154  57.0781178
  31.2895897 124.2520823  57.5972409  31.1967270 128.7847581  52.1279418
  30.5613103 128.8582208  52.8400322  30.8664676 129.3741180  51.4498497
  36.4265619 123.2849964  58.3323739  37.1590791 122.7149181  58.5661569
  35.6704975 122.8971565  58.7730245  25.7010198 126.2467059  51.8240392
  25.5846456 125.5711962  52.4921477  25.8112458 125.7599433  51.0072546
  28.0441739 125.7077206  55.5287082  27.6799946 125.1807827  56.2400003
  28.9008855 125.3175675  55.3553567  33.9491040 116.9971538  62.7918348
  33.6174365 117.8666949  62.5679563  33.3536653 116.6807822  63.4712378
  27.6847226 120.7367106  50.5248430  27.8521628 121.6047342  50.8918901
  27.4944395 120.8994387  49.6009719  30.4422559 129.1984084  62.1914261
  30.1423282 130.1009123  62.0830068  30.0973619 128.9316268  63.0435413
  23.8935041 125.6497881  58.2250965  22.9685537 125.5174095  58.4328657
  24.1419454 126.4292101  58.7220907  33.8419703 121.7166625  59.8711698
  32.9336580 121.6482033  59.5770459  33.7907299 122.1938570  60.6993523
  27.6636447 123.1924763  51.5095097  27.5436072 123.6381814  52.3480577
  26.9689035 123.5410081  50.9508635  21.2543852 125.2931155  59.0594754
  21.3836233 125.5465634  59.9734166  20.5741303 125.8858863  58.7399409
  27.9160569 123.1356270  67.8146595  27.1393903 123.6950190  67.8049460
  28.5551132 123.6213053  68.3361465  35.7081349 119.9183063  61.6489572
  35.0655730 120.2115596  61.0029366  35.2036278 119.8035983  62.4542769
  33.3621513 123.6646236  52.3375431  34.2739369 123.8973623  52.1623129
  32.8531160 124.2483280  51.7750510  26.1706941 125.9441724  67.3764562
  26.9121626 126.4826768  67.0999386  25.4643927 126.5708012  67.5336114
  31.6462281 128.0870864  65.9736724  32.0545637 127.6453275  65.2291356
  30.9239542 127.5123492  66.2270917  27.9993351 123.0243471  63.3470281
  28.8454546 123.4482884  63.4904930  27.9391989 122.3677095  64.0408844
  31.9691095 128.6472055  59.7289013  31.3399958 128.8117769  59.0265080
  31.5816758 129.0613664  60.4999977  35.8480327 129.5826493  57.0833376
  35.1631365 129.9625394  56.5330410  35.9324177 130.1921819  57.8165324
  31.1492796 120.6847839  65.0051454  30.9053728 121.4389900  64.4685730
  31.4252727 121.0633187  65.8398701  33.1031259 127.2286452  63.6828720
  33.3148154 127.8718211  63.0063101  33.0561007 126.3948768  63.2150650
  30.7057488 119.8404272  60.5865292  29.8441967 120.1385526  60.8782030
  30.7319923 120.0574671  59.6546325  27.5219057 128.3846463  56.9939098
  27.9857403 128.6634166  56.2043720  27.2575855 127.4829907  56.8112188
  24.4143138 127.9317944  59.9318861  24.9844495 128.3605213  59.2936345
  25.0051250 127.6500529  60.6303047  26.4587943 124.5069615  53.8028663
  27.1611987 124.9590659  54.2702589  26.1268572 123.8653434  54.4308556
  24.9068305 123.0981372  68.1779872  24.2766965 123.7797653  68.4115269
  24.8004393 122.9864453  67.2333010  20.2013277 122.7653168  59.1045796
  19.4112331 123.0210696  58.6285907  20.6924525 123.5801506  59.2097837
  34.2177087 130.1058407  61.8551077  35.0394531 129.7038594  61.5733759
  34.2139490 130.0026641  62.8067193  22.1528023 123.1297747  56.0629273
  21.3559186 123.2416441  56.5812769  21.9253615 123.4684399  55.1970164
  27.9833690 129.6542450  64.0111788  28.0478123 130.1162858  64.8469960
  27.2744614 129.0239815  64.1394098  18.4850980 123.0183658  61.5360787
  18.7359019 123.9030668  61.8018363  19.0210529 122.8388260  60.7635879
  42.3083080 126.4497155  58.2036049  41.5546788 125.8804554  58.0480053
  42.4430621 126.4159820  59.1506683  27.6981708 131.3210558  53.8790768
  27.5627383 132.1662093  54.3075616  28.2391521 131.5229835  53.1156702
  24.1849048 117.4002138  70.5405123  23.7915993 116.8468336  71.2152767
  25.0015188 117.7112716  70.9311641  21.1511105 128.8385996  54.4518693
  21.6635626 129.6329246  54.6024258  21.8033818 128.1412286  54.3852295
  27.1017009 118.8160017  68.1325380  27.8426722 119.4167170  68.0529842
  27.3334931 118.0737654  67.5743422  22.2458347 124.0016384  66.4103609
  22.1311862 123.1001641  66.7110708  21.3902864 124.2480081  66.0588426
  29.3250184 131.9434124  68.0091110  28.8814039 131.1570503  67.6912015
  29.9867398 132.1313275  67.3435001  31.4231422 132.2236924  66.0372511
  31.4049898 133.0445805  65.5452781  32.3451342 132.0990999  66.2622653
  27.8804477 129.7381054  66.8796020  28.4132813 128.9769342  66.6495328
  27.3518558 129.4454705  67.6220174  31.0474172 114.8441120  62.4089661
  30.7038441 115.7342761  62.3328772  31.4153134 114.6542777  61.5459246
  19.1160022 127.1674650  55.2278264  19.9535244 127.5771658  55.0111971
  19.2938290 126.2274092  55.1978458  31.0124454 124.8349731  50.9162097
  30.4971078 125.6054335  51.1550484  30.7401763 124.1614867  51.5395158
  28.5971565 119.6799432  55.9747335  27.7413162 119.2906282  55.7952974
  29.0098517 119.7591392  55.1147121  30.1270712 117.2145775  60.3738895
  29.6235508 117.1775910  59.5606700  30.4201319 118.1238518  60.4335551
  26.3713598 117.2984505  59.3805076  27.2366595 117.1027313  59.0210966
  26.4391107 117.0694856  60.3074433  35.9858728 127.5882085  52.8515270
  35.2088171 127.2493245  52.4070432  36.6650209 127.5934709  52.1770235
  30.8010757 122.7076823  52.7421878  30.4960893 123.0222972  53.5932021
  31.7541200 122.7858243  52.7849211  29.2457189 128.8667046  54.3914832
  28.7178551 128.1319806  54.0788069  28.7444692 129.6441723  54.1454800
  34.2250035 127.0616067  59.5081878  33.5673710 127.7515328  59.5962007
  35.0290435 127.4512499  59.8515864  23.9775917 119.5286712  56.7521443
  24.5519669 119.3061894  56.0194636  24.5646899 119.5975407  57.5050045
  33.0355494 125.4160439  57.5585820  33.5487376 126.0490431  58.0607530
  33.6856718 124.8161635  57.1929180  24.3045504 121.5591173  50.7717329
  23.4682816 121.8965860  51.0926603  24.1650274 121.4240153  49.8344466
  26.2798585 116.4027961  55.4796513  25.6262997 116.0876979  54.8553127
  26.2379059 115.7803702  56.2056336  27.3909789 126.6847256  47.3949805
  26.4836851 126.4536510  47.5940954  27.8880821 125.8884876  47.5823786
  29.5136325 122.8909895  59.8044160  28.5958886 123.1124842  59.6465848
  29.9296469 122.9656205  58.9455868  30.2971373 124.2901311  54.9346841
  31.0443192 124.8022708  54.6253963  30.5662962 123.9685363  55.7951234
  28.5698023 126.7859851  51.9173795  27.6609242 126.5018884  52.0146265
  28.5993107 127.2058930  51.0577102  33.8017290 130.3966441  55.6864962
  33.3479617 129.5557351  55.7430153  33.1711257 131.0327839  56.0239743
  32.7450210 121.3258427  56.9165630  32.0072967 120.8135813  57.2475872
  32.9976983 120.8858808  56.1048907  32.2450230 132.2342937  56.6214781
  32.5373204 132.7947995  55.9027146  32.7548850 132.5271498  57.3767940
  32.8461837 114.1034679  57.5107399  33.1520714 113.2432042  57.2233314
  33.5714442 114.6952299  57.3106393  19.1386193 124.5065365  55.8988997
  18.9410593 123.9134726  55.1740064  18.5832857 124.2017576  56.6164936
  27.1182917 124.3988472  58.0183590  27.1731527 123.4462308  57.9426067
  26.3074119 124.5547911  58.5024889  28.2674111 128.3268595  49.2561873
  27.8293541 127.6104454  48.7967511  29.0084552 128.5544710  48.6946965
  25.0575277 123.0165532  55.7773969  24.2443142 123.3159702  56.1839161
  25.5534271 122.6221220  56.4948451  30.6549489 123.4807356  64.6088863
  31.0098876 123.7078829  65.4683329  31.3021620 123.8125733  63.9866118
  36.3847226 126.6025792  55.3138192  36.2465124 126.7927388  54.3859381
  36.0283444 127.3645175  55.7706243  24.5489352 120.5883887  61.3935204
  25.1888731 120.4472646  60.6958167  23.7166882 120.3018401  61.0173806
  36.4116605 128.6702319  60.3249464  36.8453112 128.5777608  61.1732518
  37.1248186 128.6459819  59.6869480  25.3249656 129.8886318  57.5070197
  26.1190254 129.3936638  57.3052771  24.6141348 129.3604181  57.1437902
  30.1444500 132.2704413  61.8582564  30.1981522 132.8395349  62.6260280
  29.2759281 132.4406298  61.4936601  21.6332419 124.0329399  53.5829949
  20.7030007 123.9713855  53.7999911  21.7289891 123.5105352  52.7866590
  21.5517968 120.5584212  56.1708191  21.8124785 121.4729545  56.0617351
  22.3735140 120.0908655  56.3204804  23.0242893 121.9721969  63.3407015
  23.6965947 121.7639331  62.6919664  22.1972680 121.7744055  62.9012248
  37.2732155 128.7126020  62.8582349  37.4668045 129.6171830  63.1041624
  37.1732773 128.2533439  63.6920934  28.9268465 118.5983910  65.3572676
  28.2796380 119.2973860  65.2637153  29.6969481 119.0320054  65.7248924
  32.3347263 128.8632762  68.4323230  32.1832770 128.6343314  67.5153313
  32.3251943 129.8203364  68.4454575  29.1032600 126.4364675  63.4169496
  30.0324660 126.5875835  63.2438463  28.6823630 126.5248696  62.5618143
  27.9020932 130.4615340  61.1868034  27.7632017 130.0934124  62.0593972
  27.1135528 130.9762979  61.0151991  29.4526147 129.8396942  58.5756871
  29.1175979 129.7997712  59.4714521  28.9530092 129.1741658  58.1027282
  23.4270391 125.2464572  64.1009453  23.2890189 124.5144811  64.7020992
  24.3375314 125.1573472  63.8193640  32.3885338 127.1852977  48.8493931
  31.7714509 126.4599805  48.7526984  31.9201827 127.9462337  48.5061005
  26.0552691 124.9584532  63.5893132  26.7652310 124.3177724  63.5479751
  26.0121999 125.2097426  64.5119313  34.0439470 131.8951885  66.5099711
  33.9852016 131.2111105  65.8430294  34.4458988 132.6370875  66.0580337
  24.7681625 121.9449749  65.4088772  24.2318982 121.4940488  66.0610368
  24.1798334 122.0795658  64.6659236  24.1783884 121.4038401  47.9715235
  23.3013351 121.2827202  47.6077482  24.6541637 120.6124479  47.7194124
  34.0456877 129.8591469  64.7413691  33.1583656 129.5217391  64.8640090
  34.6155428 129.1274500  64.9782456  15.6986024 126.1915561  58.0656742
  16.3857064 125.8777291  57.4777758  15.5434153 127.0956925  57.7923994
  20.5020747 121.0805757  62.4941766  20.4178935 120.4731427  61.7592176
  19.6803453 121.5714776  62.4951263  30.6744460 119.5659321  57.8611961
  31.1713160 118.8129283  57.5413031  29.9031442 119.6023637  57.2955171
  38.5274218 125.2699686  59.5030253  38.5164094 126.1524402  59.1324186
  37.6591597 124.9171237  59.3084790  31.7574241 128.3231008  55.4350385
  30.8230520 128.4432470  55.2655089  31.9350910 127.4203475  55.1710394
  27.2579429 121.7076704  57.5883646  26.8877217 121.1547744  58.2764551
  27.7538522 121.1034837  57.0358646  35.1446792 124.1648327  55.9700419
  35.6107245 124.9976319  55.8960721  35.5954293 123.6993309  56.6745677
  33.2123024 130.5092149  52.9686571  33.4882867 130.3948743  53.8780445
  32.3427522 130.1109633  52.9298744  33.1163455 116.5328914  60.0091320
  32.2026535 116.7633141  60.1773527  33.5456557 116.6167358  60.8605352
  32.8869914 124.7218806  62.5091214  32.2341364 124.9694714  61.8543667
  33.2650294 123.9082944  62.1753691  28.9357487 125.4638617  68.9957251
  28.2598124 125.3632747  69.6659626  29.7585121 125.3077831  69.4593248
  15.2754001 124.2716154  60.3374210  15.3138100 123.7379745  61.1311328
  14.7694293 123.7451360  59.7185187  22.6544763 119.1180694  63.8336752
  22.7186089 119.9795525  63.4214150  22.5911883 118.5054696  63.1009110
  22.1297035 121.1903827  67.4809786  22.7569074 120.8080904  68.0947310
  21.2724954 120.9718029  67.8465479  32.5291144 131.5966802  69.0863522
  33.0731048 132.2096760  68.5918476  31.9477989 132.1546381  69.6030535
  18.9062578 122.9980256  53.4128141  19.2016019 122.0890935  53.3595195
  18.0050614 122.9767996  53.0909143  22.4356825 121.0736253  59.3955690
  21.7143411 121.6872220  59.2563163  23.2250081 121.6094018  59.3172336
  32.8783565 132.5196540  61.8458099  31.9313901 132.4001891  61.7736426
  33.2266338 131.6319038  61.9284361  25.2383139 118.4090679  65.6696341
  25.7617540 118.6552976  66.4322651  25.0195472 119.2410714  65.2499479
  20.6350420 120.6794354  53.5367466  20.3063126 119.7991733  53.3542572
  20.9889790 120.6242023  54.4243855  29.8829999 132.3149257  58.0462452
  29.7354961 131.3865964  58.2270022  30.7083492 132.3369347  57.5619527
  23.7492243 120.9667324  53.9042944  24.0888315 121.4953245  53.1821552
  24.1964363 121.3047730  54.6801510  33.4864120 133.1377815  59.1327324
  34.4110668 132.9320677  58.9951776  33.3179424 132.8894216  60.0416666
  26.4435684 119.3504374  63.3546012  26.1032504 118.5512187  63.7566692
  25.7374690 119.6506085  62.7822845  27.0952155 116.4353687  61.8073335
  27.9178225 115.9614165  61.6852225  27.3390219 117.2144171  62.3072021
  25.7360390 119.4641945  52.1036237  26.4568752 119.8423198  51.5999953
  25.1125694 120.1830822  52.2071215  29.8791513 120.1687094  53.0394569
  30.0955127 121.0511732  52.7383397  29.3985580 119.7773308  52.3100211
  24.6190734 123.1272807  59.6165314  24.4735315 123.4413110  60.5089595
  24.1415938 123.7457708  59.0636212  26.4787117 120.1175355  59.6646203
  26.4648686 119.2216449  59.3278501  27.1959545 120.1246019  60.2984489
  28.3313248 120.5512696  61.7099330  28.0731026 121.4729766  61.7083661
  27.7998288 120.1543130  62.3999795  33.2759437 133.6563483  54.4889416
  33.4496314 133.0909905  53.7363268  33.7688328 134.4564378  54.3068906
  19.0936396 125.6678152  62.5552975  18.5489864 126.4437960  62.6873249
  19.9715746 126.0148956  62.3972096  25.8824013 118.9989736  54.9333773
  26.0039924 118.0706382  55.1324661  25.5926055 119.0128422  54.0212089
  28.7515203 116.6844646  58.0700493  28.7736900 116.7483979  57.1152473
  29.1683262 115.8449155  58.2640999  39.1298828 126.4199906  56.1079716
  39.5729974 125.6707231  55.7098839  38.2525338 126.4110042  55.7253448
  34.2634609 132.9730247  51.5886314  34.9585514 133.5936940  51.8073629
  34.6057759 132.1225598  51.8638692  19.8802418 124.7948048  65.4483132
  19.1384154 124.9430683  66.0347762  19.5595163 125.0556314  64.5849881
  36.1626032 130.4229953  53.1173645  36.6877356 130.7617225  52.3922965
  36.0748385 129.4876968  52.9336780  25.3665093 120.5121733  69.1423706
  25.4153248 121.3883856  68.7601475  25.9087607 119.9699126  68.5695349
  35.8519938 131.0562856  68.4224843  35.0615482 131.0386995  67.8829342
  35.6153293 131.5951150  69.1773879  35.9717813 127.9055323  65.7357571
  36.0215818 127.7405330  66.6773094  35.8631737 127.0382582  65.3455452
  24.8554072 130.5843868  53.0249660  25.0042192 131.2679333  52.3716333
  25.6620515 130.5648958  53.5399116  33.2621576 123.8886251  67.0516878
  34.1631438 123.7492716  66.7600876  33.3369550 124.0540706  67.9915056
  27.5964381 121.2653105  65.8970064  26.7267690 121.5586671  65.6252653
  27.8323861 121.8493550  66.6177328  37.4736010 130.3252264  65.9799593
  37.1820818 130.6882245  66.8163054  36.8608141 129.6119272  65.8012925
  38.6731692 127.8905144  58.5002163  39.5078584 128.3294948  58.6639724
  38.8090821 127.4143797  57.6810409  35.7223198 125.4484879  64.4479651
  36.1977320 125.6412525  63.6398502  34.7988764 125.5044065  64.2023035
  22.6106705 126.6109046  54.0310729  22.3652747 125.7071376  54.2290939
  22.7802620 126.6126196  53.0890207  30.3003415 117.4832722  63.4135485
  30.8185359 118.2193749  63.0881973  29.9458548 117.7896716  64.2482244
  21.8802353 122.3437404  51.5296891  21.1871597 122.4181759  50.8736927
  21.6354104 121.5797747  52.0518408  30.5516009 113.9033005  58.9336381
  30.8317763 113.2356194  59.5596808  31.3366616 114.0962101  58.4211045
  34.4224867 122.3250639  62.6807957  35.3742290 122.4248737  62.7020181
  34.2528318 121.5328907  63.1906041  32.4439247 119.4106222  62.8667357
  31.8489179 119.6911235  62.1713846  32.1588944 119.9000123  63.6384099
  34.2034754 132.6795019  48.5873938  34.1248386 132.3454883  49.4809696
  35.0244421 133.1716787  48.5865410  36.9012945 125.5456759  61.7950256
  36.8689265 124.6072759  61.9809940  37.5113569 125.6240795  61.0616081
  28.7396276 124.4152812  47.8377460  29.6855381 124.2859020  47.9065878
  28.3610521 123.6767473  48.3146888  37.0507434 122.3367802  61.8408539
  36.5346482 121.5526259  61.6538468  37.9347382 122.0086519  62.0055059
  34.7118161 116.0808818  57.8004352  34.5142982 115.7723906  58.6847684
  35.3217866 116.8070456  57.9302282  42.7189495 126.6072765  60.9356293
  43.4492884 126.3458054  61.4963996  42.1096441 125.8701487  60.9758361
  40.8004792 124.7480628  61.5330744  40.0737956 124.6136593  60.9247236
  40.3852079 125.0557457  62.3387462  28.6234969 128.4670558  69.2978117
  29.5437978 128.6449157  69.4918164  28.5884552 127.5226603  69.1457816
  26.9239193 122.3402788  47.7732345  26.0170649 122.0435901  47.8495059
  27.2015174 122.0432606  46.9066632  17.8417134 123.6609151  58.2231392
  17.5219918 122.8074460  57.9305766  17.2950562 123.8757729  58.9789359
  21.6197041 126.3771592  61.9400898  21.8383051 127.3088700  61.9588932
  22.0322815 126.0179567  62.7255702  28.5401259 116.8839678  53.9276587
  27.7301987 116.5386763  54.3031833  29.2285676 116.5747221  54.5164198
  30.4691807 115.9617724  55.5500883  31.0222846 116.3813178  56.2090907
  30.7061894 115.0353473  55.5923839  26.4924906 121.9504798  71.3303647
  26.3921633 122.8999155  71.2615738  26.2746448 121.6223037  70.4579717
  25.6937978 119.1989723  47.9144325  26.5557142 119.5244621  48.1740142
  25.8788322 118.4121219  47.4017390  17.7105394 127.2812063  60.1924513
  17.0168865 126.8666016  59.6794468  18.4578385 127.3232599  59.5957932
  33.8470614 118.0718250  55.0579548  33.2669283 118.7303054  54.6757600
  33.5806547 117.2495594  54.6466965  32.2974181 117.4723307  57.2600868
  32.7973959 117.5839842  56.4515187  32.9409789 117.1684360  57.9001676
  26.3556176 125.3801937  70.1468709  25.8723258 126.1802297  70.3532598
  26.4417116 125.3909882  69.1936153  19.6242136 127.2130317  58.0690528
  19.6012824 127.3118004  57.1172411  19.9342773 128.0595467  58.3907694
  22.2829514 129.2706472  62.1837143  23.2372768 129.2390414  62.1167074
  22.0842038 128.8097095  62.9987369  22.8728896 127.8407588  64.7507940
  23.6921785 128.3351666  64.7742778  23.1465704 126.9239556  64.7225508
  32.6295492 120.2318340  54.1135896  31.7421347 120.5167991  53.8956091
  33.0449481 120.0712103  53.2663173  35.9810028 120.2564861  57.8290235
  36.7570419 120.7461313  58.1014852  35.2558163 120.6822915  58.2862105
  38.4182587 120.9692480  58.8864176  39.0127078 120.7288216  58.1757484
  38.4909171 120.2499611  59.5137712  31.7738706 129.9963015  48.2083916
  32.4774556 130.2013017  48.8241572  31.0501355 130.5639777  48.4732999
  32.6036516 125.7472876  54.3286186  32.5471717 126.2041427  53.4893818
  33.1564859 124.9863561  54.1509029  36.4141322 121.5362608  55.1536306
  36.1578256 121.1359243  55.9844513  35.7894190 122.2506402  55.0286445
  40.7253660 124.2758681  57.6607597  40.1653218 124.3451870  58.4339159
  40.1197163 124.0999666  56.9407093  33.6825403 130.4345544  50.2582376
  34.5171007 130.0026742  50.0759851  33.5209746 130.2627558  51.1859270
  33.3371295 126.9377657  51.6238715  33.2820099 126.7721929  50.6827159
  32.7117351 127.6453690  51.7800905  18.1263810 122.1745722  65.4500137
  18.7722674 121.6644676  65.9387363  17.9180961 122.9114403  66.0243563
  30.6517203 129.2426569  70.9492278  31.5208362 129.4167221  70.5878913
  30.1723954 130.0620986  70.8268007  26.6467421 116.4385766  51.2024034
  26.6346091 117.3827606  51.3592305  27.5390843 116.2555912  50.9083495
  30.4619540 113.0328543  55.4569970  29.6951936 112.4787030  55.6026653
  30.8730245 113.1050412  56.3184122  22.4661301 119.3213339  69.5475152
  23.3292763 118.9650143  69.7578476  21.8926712 118.9827233  70.2350556
  47.2659374 138.6141882  58.3323739  47.9984546 138.0441099  58.5661569
  46.5098730 138.2263482  58.7730245  44.7884794 132.3263456  62.7918348
  44.4568119 133.1958867  62.5679563  44.1930408 132.0099740  63.4712378
  44.6813458 137.0458542  59.8711698  43.7730335 136.9773951  59.5770459
  44.6301053 137.5230487  60.6993523  46.5475104 135.2474981  61.6489572
  45.9049484 135.5407514  61.0029366  46.0430032 135.1327901  62.4542769
  41.9886551 136.0139757  65.0051454  41.7447483 136.7681817  64.4685730
  42.2646481 136.3925104  65.8398701  41.5451242 135.1696190  60.5865292
  40.6835721 135.4677443  60.8782030  41.5713677 135.3866589  59.6546325
  35.0242802 132.7294055  70.5405123  34.6309748 132.1760254  71.2152767
  35.8408942 133.0404634  70.9311641  37.9410763 134.1451934  68.1325380
  38.6820476 134.7459088  68.0529842  38.1728686 133.4029572  67.5743422
  41.8867926 130.1733037  62.4089661  41.5432195 131.0634679  62.3328772
  42.2546889 129.9834695  61.5459246  39.4365320 135.0091349  55.9747335
  38.5806916 134.6198200  55.7952974  39.8492272 135.0883310  55.1147121
  40.9664466 132.5437692  60.3738895  40.4629262 132.5067828  59.5606700
  41.2595073 133.4530435  60.4335551  37.2107352 132.6276422  59.3805076
  38.0760349 132.4319231  59.0210966  37.2784861 132.3986774  60.3074433
  34.8169671 134.8578630  56.7521443  35.3913423 134.6353812  56.0194636
  35.4040654 134.9267325  57.5050045  37.1192339 131.7319879  55.4796513
  36.4656751 131.4168896  54.8553127  37.0772813 131.1095619  56.2056336
  43.5843964 136.6550344  56.9165630  42.8466721 136.1427731  57.2475872
  43.8370738 136.2150726  56.1048907  43.6855592 129.4326597  57.5107399
  43.9914469 128.5723960  57.2233314  44.4108197 130.0244217  57.3106393
  39.7662220 133.9275828  65.3572676  39.1190135 134.6265778  65.2637153
  40.5363235 134.3611972  65.7248924  41.5138215 134.8951238  57.8611961
  42.0106914 134.1421201  57.5413031  40.7425196 134.9315555  57.2955171
  43.9557210 131.8620832  60.0091320  43.0420289 132.0925059  60.1773527
  44.3850311 131.9459276  60.8605352  36.0776893 133.7382597  65.6696341
  36.6011295 133.9844893  66.4322651  35.8589226 134.5702632  65.2499479
  37.2829438 134.6796292  63.3546012  36.9426259 133.8804105  63.7566692
  36.5768444 134.9798003  62.7822845  37.9345910 131.7645604  61.8073335
  38.7571979 131.2906083  61.6852225  38.1783974 132.5436088  62.3072021
  40.7185267 135.4979012  53.0394569  40.9348882 136.3803650  52.7383397
  40.2379335 135.1065225  52.3100211  37.3180872 135.4467273  59.6646203
  37.3042440 134.5508366  59.3278501  38.0353300 135.4537937  60.2984489
  36.7217768 134.3281653  54.9333773  36.8433679 133.3998300  55.1324661
  36.4319810 134.3420339  54.0212089  39.5908958 132.0136564  58.0700493
  39.6130655 132.0775897  57.1152473  40.0077017 131.1741072  58.2640999
  41.1397169 132.8124640  63.4135485  41.6579113 133.5485667  63.0881973
  40.7852302 133.1188633  64.2482244  41.3909764 129.2324923  58.9336381
  41.6711517 128.5648112  59.5596808  42.1760370 129.4254018  58.4211045
  45.2618622 137.6542557  62.6807957  46.2136045 137.7540654  62.7020181
  45.0922072 136.8620825  63.1906041  43.2833001 134.7398140  62.8667357
  42.6882933 135.0203152  62.1713846  42.9982698 135.2292041  63.6384099
  47.8901188 137.6659720  61.8408539  47.3740237 136.8818176  61.6538468
  48.7741137 137.3378436  62.0055059  45.5511915 131.4100735  57.8004352
  45.3536736 131.1015823  58.6847684  46.1611621 132.1362374  57.9302282
  51.6398547 140.0772546  61.5330744  50.9131710 139.9428511  60.9247236
  51.2245834 140.3849374  62.3387462  39.3795013 132.2131595  53.9276587
  38.5695742 131.8678680  54.3031833  40.0679430 131.9039139  54.5164198
  41.3085562 131.2909642  55.5500883  41.8616600 131.7105096  56.2090907
  41.5455648 130.3645390  55.5923839  36.5331732 134.5281641  47.9144325
  37.3950896 134.8536539  48.1740142  36.7182076 133.7413137  47.4017390
  44.6864369 133.4010167  55.0579548  44.1063038 134.0594971  54.6757600
  44.4200301 132.5787512  54.6466965  43.1367935 132.8015225  57.2600868
  43.6367714 132.9131760  56.4515187  43.7803543 132.4976278  57.9001676
  43.4689247 135.5610258  54.1135896  42.5815102 135.8459908  53.8956091
  43.8843236 135.4004021  53.2663173  46.8203783 135.5856779  57.8290235
  47.5964173 136.0753231  58.1014852  46.0951917 136.0114833  58.2862105
  49.2576342 136.2984398  58.8864176  49.8520832 136.0580134  58.1757484
  49.3302925 135.5791528  59.5137712  47.2535076 136.8654525  55.1536306
  46.9972011 136.4651161  55.9844513  46.6287944 137.5798319  55.0286445
  51.5647414 139.6050599  57.6607597  51.0046972 139.6743788  58.4339159
  50.9590918 139.4291583  56.9407093  37.4861175 131.7677684  51.2024034
  37.4739845 132.7119524  51.3592305  38.3784597 131.5847829  50.9083495
  41.3013295 128.3620460  55.4569970  40.5345691 127.8078947  55.6026653
  41.7124000 128.4342329  56.3184122   3.9084357  54.3036334  45.0569046
   4.6409529  53.7335551  45.2906875   3.1523713  53.9157934  45.4975551
   1.4309778  48.0157908  49.5163654   1.0993102  48.8853319  49.2924869
   0.8355391  47.6994192  50.1957685   1.3238441  52.7352994  46.5957005
   0.4155318  52.6668403  46.3015766   1.2726037  53.2124939  47.4238830
   3.1900087  50.9369433  48.3734878   2.5474468  51.2301966  47.7274673
   2.6855016  50.8222353  49.1788075   0.8440251  54.6832606  39.0620738
   1.7558107  54.9159993  38.8868435   0.3349898  55.2669650  38.4995816
   3.3299065  60.6012862  43.8078683   2.6450103  60.9811763  43.2575716
   3.4142914  61.2108189  44.5410631   0.5849997  58.2472821  50.4074026
   0.7966892  58.8904581  49.7308408   0.5379745  57.4135138  49.9395957
   1.6995825  61.1244777  48.5796384   2.5213268  60.7224964  48.2979065
   1.6958228  61.0213011  49.5312500   9.7901818  57.4683525  44.9281355
   9.0365526  56.8990923  44.7725360   9.9249359  57.4346190  45.8751990
   3.4677466  58.6068455  39.5760577   2.6906909  58.2679614  39.1315739
   4.1468947  58.6121078  38.9015542   1.7068773  58.0802436  46.2327185
   1.0492448  58.7701698  46.3207313   2.5109172  58.4698868  46.5761171
   0.5174232  56.4346809  44.2831126   1.0306114  57.0676801  44.7852836
   1.1675456  55.8348004  43.9174486   1.2836028  61.4152810  42.4110269
   0.8298355  60.5743720  42.4675460   0.6529995  62.0514209  42.7485049
   0.3280575  45.1221048  44.2352706   0.6339452  44.2618412  43.9478621
   1.0533180  45.7138669  44.0351700   3.8665963  57.6212162  42.0383499
   3.7283862  57.8113758  41.1104688   3.5102182  58.3831544  42.4951550
   3.8935343  59.6888689  47.0494770   4.3271850  59.5963978  47.8977824
   4.6066924  59.6646189  46.4114786   4.7550892  59.7312389  49.5827656
   4.9486783  60.6358200  49.8286930   4.6551511  59.2719808  50.4166241
   1.5258208  62.9138255  53.2345018   1.4670754  62.2297475  52.5675601
   1.9277726  63.6557245  52.7825644   1.5275615  60.8777838  51.4658998
   0.6402394  60.5403760  51.5885397   2.0974166  60.1460870  51.7027763
   6.0092956  56.2886056  46.2275559   5.9982832  57.1710771  45.8569492
   5.1410335  55.9357607  46.0330096   2.6265530  55.1834697  42.6945725
   3.0925982  56.0162688  42.6206028   3.0773031  54.7179678  43.3990984
   0.9682858  64.1564185  45.8572631   1.8929406  63.9507046  45.7197082
   0.7998162  63.9080586  46.7661973   0.7578174  64.6749852  41.2134723
   0.9315052  64.1096275  40.4608575   1.2507066  65.4750747  41.0314212
   6.6117566  57.4386275  42.8325022   7.0548712  56.6893600  42.4344146
   5.7344076  57.4296412  42.4498754   1.7453347  63.9916617  38.3131621
   2.4404252  64.6123309  38.5318935   2.0876497  63.1411968  38.5883999
   3.6444770  61.4416322  39.8418952   4.1696094  61.7803595  39.1168272
   3.5567123  60.5063338  39.6582086   3.3338676  62.0749226  55.1470150
   2.5434220  62.0573365  54.6074649   3.0972031  62.6137520  55.9019186
   3.4536551  58.9241692  52.4602878   3.5034556  58.7591700  53.4018401
   3.3450474  58.0568951  52.0700759   0.7440314  54.9072620  53.7762185
   1.6450176  54.7679085  53.4846183   0.8188288  55.0727075  54.7160362
   4.9554748  61.3438634  52.7044900   4.6639556  61.7068614  53.5408361
   4.3426879  60.6305642  52.5258232   6.1550430  58.9091514  45.2247470
   6.9897322  59.3481318  45.3885030   6.2909559  58.4330167  44.4055716
   3.2041936  56.4671248  51.1724958   3.6796058  56.6598895  50.3643809
   2.2807502  56.5230434  50.9268341   1.9043605  53.3437008  49.4053263
   2.8561028  53.4435106  49.4265487   1.7347056  52.5515277  49.9151348
   1.6853492  63.6981389  35.3119244   1.6067123  63.3641252  36.2055002
   2.5063159  64.1903157  35.3110717   4.3831683  56.5643128  48.5195563
   4.3508003  55.6259129  48.7055247   4.9932307  56.6427165  47.7861388
   4.5326171  53.3554172  48.5653846   4.0165220  52.5712628  48.3783775
   5.4166120  53.0272888  48.7300366   2.1936898  47.0995187  44.5249659
   1.9961720  46.7910275  45.4092991   2.8036604  47.8256826  44.6547589
  10.2008233  57.6259135  47.6601600  10.9311621  57.3644423  48.2209303
   9.5915178  56.8887857  47.7003668   8.2823530  55.7666998  48.2576051
   7.5556694  55.6322963  47.6492542   7.8670817  56.0743826  49.0632769
   1.3289352  49.0904619  41.7824854   0.7488021  49.7489423  41.4002907
   1.0625285  48.2681964  41.3712272   3.4628766  51.2751231  44.5535542
   4.2389156  51.7647683  44.8260159   2.7376900  51.7009285  45.0107411
   5.9001325  51.9878850  45.6109482   6.4945816  51.7474586  44.9002791
   5.9727909  51.2685980  46.2383019   3.8960060  52.5548977  41.8781612
   3.6396994  52.1545613  42.7089820   3.2712928  53.2692771  41.7531751
   8.2072398  55.2945051  44.3852904   7.6471956  55.3638240  45.1584466
   7.6015901  55.1186035  43.6652400   1.1644141  61.4531913  36.9827683
   1.9989745  61.0213112  36.8005157   1.0028484  61.2813927  37.9104577
   9.7928416  71.9701565  47.0782859  10.4306826  71.8508312  46.3746199
   9.6749259  72.9182409  47.1370811   6.6018122  71.9228993  47.0144384
   6.2636634  71.8070057  46.1264919   7.4707891  71.5220158  46.9945390
   2.4604938  73.7764469  43.0041275   1.8969803  73.6854406  42.2357563
   2.3457333  72.9564374  43.4843768   7.0837905  73.0763844  52.9730590
   7.0726546  72.6816643  52.1011093   7.2458545  72.3429917  53.5664361
   8.0404497  77.4435437  38.3155740   7.3892477  78.0289517  37.9289754
   8.8348860  77.9741632  38.3750777   1.9660124  74.5324574  38.7142874
   2.7391000  73.9853561  38.5755750   2.3185523  75.3968823  38.9257336
   3.8045166  75.8600956  51.9209774   3.5135032  76.7646587  51.8056440
   4.4402151  75.9017484  52.6353843   4.7301373  73.2377805  48.5111133
   5.3264946  73.0133827  47.7968096   4.7876345  72.4962550  49.1136581
   4.3026402  70.6917240  36.3461324   4.5551922  70.1698761  35.5844787
   3.3650961  70.5283385  36.4488008   9.3469685  69.6953018  44.1536067
  10.1332774  69.2772442  43.8026484   9.6108389  70.5999111  44.3217716
   9.5179762  75.1325869  38.8524724   8.8825595  75.2060495  39.5645629
   9.1877168  75.7219468  38.1743803  14.7478112  69.6328252  45.0569046
  15.4803284  69.0627468  45.2906875  13.9917467  69.2449852  45.4975551
   4.0222690  72.5945346  38.5485699   3.9058949  71.9190249  39.2166783
   4.1324950  72.1077720  37.7317852   6.3654231  72.0555493  42.2532388
   6.0012439  71.5286114  42.9645310   7.2221347  71.6653962  42.0798874
  12.2703532  63.3449826  49.5163654  11.9386857  64.2145237  49.2924869
  11.6749145  63.0286110  50.1957685   6.0059718  67.0845393  37.2493737
   6.1734121  67.9525629  37.6164208   5.8156887  67.2472674  36.3255026
   8.7635052  75.5462372  48.9159567   8.4635775  76.4487411  48.8075374
   8.4186111  75.2794555  49.7680720   2.2147533  71.9976169  44.9496272
   1.2898030  71.8652383  45.1573963   2.4631946  72.7770388  45.4466214
  12.1632195  68.0644912  46.5957005  11.2549073  67.9960320  46.3015766
  12.1119791  68.5416857  47.4238830   5.9848939  69.5403050  38.2340404
   5.8648564  69.9860101  39.0725884   5.2901528  69.8888368  37.6753942
   3.7455831  82.3106692  41.8830535   3.6679861  83.2614517  41.9619015
   3.1417475  81.9652565  42.5405461   6.2373061  69.4834557  54.5391902
   5.4606395  70.0428478  54.5294766   6.8763624  69.9691340  55.0606772
  14.0293842  66.2661350  48.3734878  13.3868222  66.5593883  47.7274673
  13.5248770  66.1514271  49.1788075  11.6834005  70.0124523  39.0620738
  12.5951862  70.2451910  38.8868435  11.1743652  70.5961568  38.4995816
   4.4919433  72.2920011  54.1009869   5.2334118  72.8305055  53.8244692
   3.7856419  72.9186300  54.2581421   9.9674773  74.4349151  52.6982030
  10.3758129  73.9931562  51.9536663   9.2452035  73.8601779  52.9516223
   6.3205843  69.3721758  50.0715587   7.1667038  69.7961172  50.2150236
   6.2604481  68.7155382  50.7654150  10.2903588  74.9950342  46.4534319
   9.6612450  75.1596056  45.7510387   9.9029250  75.4091951  47.2245283
  14.1692820  75.9304780  43.8078683  13.4843858  76.3103681  43.2575716
  14.2536669  76.5400106  44.5410631   9.4705288  67.0326126  51.7296761
   9.2266220  67.7868187  51.1931037   9.7465219  67.4111474  52.5644008
  11.4243751  73.5764739  50.4074026  11.6360646  74.2196499  49.7308408
  11.3773499  72.7427055  49.9395957   9.0269980  66.1882559  47.3110599
   8.1654459  66.4863813  47.6027336   9.0532415  66.4052958  46.3791631
   5.8431550  74.7324750  43.7184404   6.3069895  75.0112453  42.9289027
   5.5788348  73.8308195  43.5357495   2.7355631  74.2796232  46.6564168
   3.3056988  74.7083500  46.0181652   3.3263743  73.9978816  47.3548353
   4.7800436  70.8547902  40.5273969   5.4824479  71.3068946  40.9947896
   4.4481064  70.2131721  41.1553863   3.2280797  69.4459659  54.9025179
   2.5979458  70.1275940  55.1360576   3.1216885  69.3342741  53.9578317
  12.5389579  76.4536694  48.5796384  13.3607023  76.0516881  48.2979065
  12.5351982  76.3504928  49.5312500   6.3046183  76.0020738  50.7357094
   6.3690615  76.4641145  51.5715266   5.5957107  75.3718102  50.8639404
  20.6295572  72.7975443  44.9281355  19.8759281  72.2282841  44.7725360
  20.7643113  72.7638107  45.8751990   6.0194200  77.6688845  40.6036075
   5.8839875  78.5140381  41.0320922   6.5604013  77.8708123  39.8402008
   2.5061540  63.7480425  57.2650430   2.1128485  63.1946623  57.9398074
   3.3227680  64.0591003  57.6556947   1.2818482  78.3030039  43.2586753
   1.4585111  79.2248004  43.0707737   2.0775316  77.9888459  43.6881133
   5.4229501  65.1638304  54.8570686   6.1639214  65.7645457  54.7775149
   5.6547424  64.4215942  54.2988729   7.6462677  78.2912412  54.7336417
   7.2026531  77.5048790  54.4157321   8.3079890  78.4791562  54.0680308
   2.4049798  79.8208213  49.2597095   2.9557223  79.6925276  48.4874089
   1.5661274  80.1203102  48.9091988   9.7443915  78.5715211  52.7617818
   9.7262390  79.3924092  52.2698087  10.6663835  78.4469287  52.9867959
   6.2016969  76.0859341  53.6041326   6.7345306  75.3247629  53.3740634
   5.6731050  75.7932993  54.3465481   9.3686664  61.1919407  49.1334968
   9.0250933  62.0821049  49.0574079   9.7365626  61.0021065  48.2704553
   9.3336947  71.1828018  37.6407403   8.8183570  71.9532623  37.8795791
   9.0614255  70.5093154  38.2640465   6.9184058  66.0277719  42.6992642
   6.0625654  65.6384569  42.5198280   7.3311009  66.1069680  41.8392427
   8.4483204  63.5624062  47.0984201   7.9448000  63.5254197  46.2852007
   8.7413811  64.4716805  47.1580858   4.6926090  63.6462792  46.1050383
   5.5579087  63.4505600  45.7456273   4.7603599  63.4173144  47.0319740
  14.3071221  73.9360373  39.5760577  13.5300663  73.5971532  39.1315739
  14.9862702  73.9412996  38.9015542   9.1223250  69.0555110  39.4667184
   8.8173385  69.3701259  40.3177328  10.0753692  69.1336530  39.5094517
   7.5669682  75.2145333  41.1160138   7.0391043  74.4798093  40.8033376
   7.0657184  75.9920010  40.8700107  12.5462528  73.4094354  46.2327185
  11.8886202  74.0993615  46.3207313  13.3502927  73.7990786  46.5761171
   2.2988409  65.8765000  43.4766750   2.8732161  65.6540181  42.7439943
   2.8859392  65.9453694  44.2295351  11.3567986  71.7638727  44.2831126
  11.8699868  72.3968718  44.7852836  12.0069210  71.1639922  43.9174486
   2.6257996  67.9069461  37.4962635   1.7895309  68.2444147  37.8171910
   2.4862766  67.7718441  36.5589772   4.6011077  62.7506249  42.2041819
   3.9475489  62.4355266  41.5798434   4.5591551  62.1281989  42.9301642
   5.7122282  73.0325544  34.1195111   4.8049344  72.8014797  34.3186260
   6.2093314  72.2363163  34.3069093   8.6190361  81.7423051  37.0391798
   7.9452059  82.0454748  37.6476755   9.0056183  82.5452131  36.6897255
   7.8348817  69.2388182  46.5289467   6.9171379  69.4603129  46.3711155
   8.2508961  69.3134493  45.6701174   8.6183865  70.6379598  41.6592147
   9.3655684  71.1500995  41.3499269   8.8875455  70.3163651  42.5196541
   6.8910515  73.1338139  38.6419102   5.9821734  72.8497171  38.7391571
   6.9205599  73.5537217  37.7822408  12.1229783  76.7444728  42.4110269
  11.6692110  75.9035638  42.4675460  11.4923749  77.3806126  42.7485049
  11.0662702  67.6736714  43.6410937  10.3285459  67.1614100  43.9721179
  11.3189476  67.2337096  42.8294213  10.5662722  78.5821225  43.3460087
  10.8585696  79.1426282  42.6272453  11.0761342  78.8749786  44.1013246
  11.1674329  60.4512966  44.2352706  11.4733206  59.5910329  43.9478621
  11.8926934  61.0430586  44.0351700   5.4395409  70.7466759  44.7428897
   5.4944019  69.7940596  44.6671373   4.6286611  70.9026198  45.2270195
   6.5886603  74.6746882  35.9807180   6.1506033  73.9582741  35.5212817
   7.3297044  74.9022997  35.4192271   3.3787769  69.3643819  42.5019276
   2.5655635  69.6637989  42.9084468   3.8746763  68.9699508  43.2193758
   5.5296347  79.3601576  44.4353540   5.4872526  79.5862422  43.5062072
   6.4459046  79.1264950  44.5839342   8.9761981  69.8285643  51.3334170
   9.3311369  70.0557116  52.1928635   9.6234112  70.1604020  50.7111425
  14.7059718  72.9504079  42.0383499  14.5677616  73.1405675  41.1104688
  14.3495937  73.7123462  42.4951550   2.8701844  66.9362174  48.1180511
   3.5101223  66.7950933  47.4203474   2.0379374  66.6496688  47.7419113
  14.7329097  75.0180606  47.0494770  15.1665604  74.9255895  47.8977824
  15.4460678  74.9938107  46.4114786   3.6462148  76.2364605  44.2315503
   4.4402746  75.7414925  44.0298078   2.9353840  75.7082468  43.8683209
   8.4656992  78.6182700  48.5827871   8.5194015  79.1873637  49.3505587
   7.5971774  78.7884585  48.2181908   1.3455386  68.3200257  50.0652322
   2.0178439  68.1117619  49.4164971   0.5185172  68.1222343  49.6257554
  15.5944647  75.0604307  49.5827656  15.7880537  75.9650117  49.8286930
  15.4945265  74.6011726  50.4166241   7.2480958  64.9462197  52.0817983
   6.6008873  65.6452147  51.9882459   8.0181973  65.3798341  52.4494231
  10.6559756  75.2111050  55.1568536  10.5045262  74.9821601  54.2398620
  10.6464435  76.1681651  55.1699881   7.4245092  72.7842962  50.1414803
   8.3537152  72.9354122  49.9683770   7.0036122  72.8726983  49.2863449
   6.2233424  76.8093627  47.9113340   6.0844510  76.4412411  48.7839278
   5.4348020  77.3241266  47.7397298   6.8181576  81.9102723  39.2538877
   6.9933331  81.4390766  40.0684499   6.1314364  82.5368489  39.4820137
   7.7738639  76.1875229  45.3002178   7.4388472  76.1475999  46.1959828
   7.2742585  75.5219945  44.8272588   1.7482883  71.5942860  50.8254759
   1.6102681  70.8623098  51.4266298   2.6587806  71.5051760  50.5438947
  10.7097831  73.5331264  35.5739238  10.0927001  72.8078092  35.4772290
  10.2414319  74.2940624  35.2306312   4.3765184  71.3062819  50.3138439
   5.0864802  70.6656011  50.2725057   4.3334492  71.5575714  51.2364620
  12.3651962  78.2430172  53.2345018  12.3064508  77.5589392  52.5675601
  12.7671481  78.9849162  52.7825644   3.0894118  68.2928037  52.1334078
   2.5531475  67.8418775  52.7855675   2.5010826  68.4273946  51.3904543
   1.3842661  85.0592086  46.0278737   1.6239259  85.6910610  46.7057755
   0.5411858  84.7080126  46.3144096   2.4996377  67.7516688  34.6960542
   1.6225843  67.6305489  34.3322789   2.9754130  66.9602766  34.4439431
  12.3669370  76.2069756  51.4658998  11.4796148  75.8695678  51.5885397
  12.9367921  75.4752787  51.7027763   5.8970523  80.8671208  48.4320241
   5.8240694  81.6726180  48.9439545   5.4547916  81.0663174  47.6068262
   5.6860303  80.1042979  41.9423062   4.9027824  80.6464659  42.0361287
   6.3853048  80.6216958  42.3417304   8.9956953  65.9137608  44.5857268
   9.4925652  65.1607570  44.2658338   8.2243934  65.9501925  44.0200477
  16.8486710  71.6177973  46.2275559  16.8376586  72.5002689  45.8569492
  15.9804090  71.2649524  46.0330096   8.3569206  80.7658043  50.5878400
   9.0697179  81.4005507  50.5154301   7.8659235  80.8621909  49.7718401
  10.0786733  74.6709295  42.1595691   9.1443012  74.7910758  41.9900396
  10.2563402  73.7681762  41.8955701   5.5791921  68.0554991  44.3128952
   5.2089709  67.5026031  45.0009858   6.0751014  67.4513124  43.7603952
  13.4659285  70.5126614  42.6945725  13.9319737  71.3454606  42.6206028
  13.9166785  70.0471596  43.3990984   3.4081120  78.5152486  51.4083970
   4.1090579  79.1488969  51.5613365   2.9376235  78.8567218  50.6479610
  11.5335516  76.8570436  39.6931877  11.8095360  76.7427030  40.6025752
  10.6640015  76.4587921  39.6544051  11.4375947  62.8807201  46.7336627
  10.5239027  63.1111428  46.9018834  11.8669049  62.9645646  47.5850659
  11.2082406  71.0697093  49.2336521  10.5553856  71.3173001  48.5788974
  11.5862786  70.2561232  48.8998998   8.1689580  81.1056787  43.3364691
   8.3511974  80.2878443  43.7992443   8.9922566  81.3224479  42.8989581
   8.5031745  80.0324972  40.5979740   9.0319512  79.5217426  39.9849902
   8.7659965  79.7167502  41.4625273   7.2569979  71.8116904  55.7202558
   6.5810616  71.7111034  56.3904933   8.0797613  71.6556118  56.1838555
   1.8587493  81.0840088  43.3577515   1.1897869  81.5686216  42.8741556
   1.7200363  81.3309309  44.2720894   5.9992762  83.1183832  49.9560174
   6.5511070  83.2815453  50.7209259   6.3398955  83.7088270  49.2840199
   0.9757255  65.4658982  50.5582059   1.0398582  66.3273813  50.1459456
   0.9124375  64.8532983  49.8254417  10.8503636  77.9445089  55.8108828
  11.3943540  78.5575048  55.3163783  10.2690481  78.5024668  56.3275841
   9.1361149  81.0665807  46.9423856   9.0112289  80.2655547  46.4334801
   9.7940240  81.5612001  46.4537826  11.1996058  78.8674828  48.5703406
  10.2526393  78.7480179  48.4981733  11.5478831  77.9797326  48.6529668
   3.5595631  64.7568966  52.3941648   4.0830033  65.0031263  53.1567957
   3.3407964  65.5889001  51.9744785   8.2042491  78.6627544  44.7707758
   8.0567453  77.7344251  44.9515328   9.0295984  78.6847634  44.2864834
   2.0704735  67.3145611  40.6288250   2.4100808  67.8431532  39.9066859
   2.5176856  67.6526017  41.4046817  11.8076613  79.4856102  45.8572631
  12.7323160  79.2798964  45.7197082  11.6391916  79.2372504  46.7661973
   4.7648176  65.6982662  50.0791319   4.4244996  64.8990475  50.4811998
   4.0587182  65.9984372  49.5068152   5.4164648  62.7831974  48.5318642
   6.2390717  62.3092452  48.4097532   5.6602711  63.5622458  49.0317328
   4.0572882  65.8120232  38.8281543   4.7781245  66.1901485  38.3245260
   3.4338186  66.5309109  38.9316521   8.2004005  66.5165381  39.7639876
   8.4167620  67.3990019  39.4628704   7.7198072  66.1251595  39.0345518
   2.9403227  69.4751095  46.3410620   2.7947807  69.7891398  47.2334902
   2.4628430  70.0935995  45.7881519   4.7999609  66.4653643  46.3891510
   4.7861178  65.5694736  46.0523808   5.5172038  66.4724306  47.0229796
   6.6525740  66.8990983  48.4344637   6.3943518  67.8208053  48.4328968
   6.1210780  66.5021417  49.1245101  11.5971929  80.0041770  41.2134723
  11.7708806  79.4388192  40.4608575  12.0900820  80.8042665  41.0314212
   4.2036505  65.3468023  41.6579080   4.3252417  64.4184669  41.8569967
   3.9138548  65.3606709  40.7457395   7.0727696  63.0322933  44.7945800
   7.0949393  63.0962266  43.8397779   7.4895755  62.1927442  44.9886306
  17.4511320  72.7678193  42.8325022  17.8942466  72.0185518  42.4344146
  16.5737830  72.7588329  42.4498754  12.5847101  79.3208534  38.3131621
  13.2798006  79.9415227  38.5318935  12.9270252  78.4703886  38.5883999
  14.4838524  76.7708240  39.8418952  15.0089849  77.1095513  39.1168272
  14.3960877  75.8355255  39.6582086   6.1458573  80.6842314  51.9708828
   6.4545700  80.4391460  52.8431528   6.9434055  80.8888952  51.4827698
   6.1679185  82.8380223  44.2014205   5.7284176  82.3456602  44.8947061
   6.9187302  82.2953191  43.9606280   3.6153057  78.3818232  46.2736506
   2.9933067  77.7188937  45.9738734   4.2857924  78.4079364  45.5910154
   3.6877585  66.8600020  55.8669012   3.7365740  67.7362143  55.4846782
   4.2300099  66.3177413  55.2940656  14.1732431  77.4041144  55.1470150
  13.3827974  77.3865282  54.6074649  13.9365785  77.9429437  55.9019186
  14.2930306  74.2533610  52.4602878  14.3428311  74.0883617  53.4018401
  14.1844229  73.3860869  52.0700759   3.1766564  76.9322156  39.7494967
   3.3254685  77.6157620  39.0961640   3.9833008  76.9127246  40.2644423
  11.5834068  70.2364538  53.7762185  12.4843931  70.0971003  53.4846183
  11.6582043  70.4018993  54.7160362   5.9176873  67.6131393  52.6215371
   5.0480183  67.9064959  52.3497960   6.1536354  68.1971838  53.3422635
  15.7948502  76.6730551  52.7044900  15.5033311  77.0360532  53.5408361
  15.1820634  75.9597560  52.5258232  16.9944185  74.2383431  45.2247470
  17.8291076  74.6773235  45.3885030  17.1303314  73.7622084  44.4055716
  14.0435691  71.7963166  51.1724958  14.5189812  71.9890812  50.3643809
  13.1201256  71.8522352  50.9268341   0.9319197  72.9587333  40.7556036
   0.6865239  72.0549663  40.9536246   1.1015112  72.9604484  39.8135514
   8.6215907  63.8311010  50.1380791   9.1397851  64.5672037  49.8127280
   8.2671040  64.1375003  50.9727551   8.8728501  60.2511292  45.6581688
   9.1530255  59.5834481  46.2842115   9.6579108  60.4440388  45.1456352
   6.6761970  79.4270286  37.2206714   6.1035937  80.0460473  36.7677186
   7.2494763  79.9769648  37.7546636  12.7437360  68.6728926  49.4053263
  13.6954783  68.7727024  49.4265487  12.5740810  67.8807195  49.9151348
  10.7651739  65.7584509  49.5912664  10.1701671  66.0389522  48.8959153
  10.4801436  66.2478410  50.3629405   9.8959230  79.7107436  38.3515297
  10.8289903  79.6452998  38.5548172   9.8082442  80.5463703  37.8929829
  12.5247246  79.0273307  35.3119244  12.4460878  78.6933170  36.2055002
  13.3456913  79.5195074  35.3110717  15.2225437  71.8935046  48.5195563
  15.1901758  70.9551047  48.7055247  15.8326061  71.9719083  47.7861388
   7.0608768  70.7631099  34.5622767   8.0067873  70.6337307  34.6311185
   6.6823013  70.0245761  35.0392195  15.3719926  68.6846089  48.5653846
  14.8558975  67.9004546  48.3783775  16.2559874  68.3564806  48.7300366
  13.0330653  62.4287105  44.5249659  12.8355474  62.1202193  45.4092991
  13.6430358  63.1548744  44.6547589  21.0401987  72.9551053  47.6601600
  21.7705376  72.6936341  48.2209303  20.4308933  72.2179775  47.7003668
  19.1217284  71.0958915  48.2576051  18.3950448  70.9614880  47.6492542
  18.7064571  71.4035744  49.0632769   6.9447461  74.8148845  56.0223424
   7.8650470  74.9927444  56.2163470   6.9097044  73.8704890  55.8703123
   5.2451685  68.6881075  34.4977652   4.3383141  68.3914188  34.5740366
   5.5227666  68.3910893  33.6311938   6.8613751  63.2317965  40.6521893
   6.0514480  62.8865050  41.0277139   7.5498168  62.9225509  41.2409505
   8.7904299  62.3096012  42.2746190   9.3435338  62.7291465  42.9336213
   9.0274386  61.3831760  42.3169146   4.8137399  68.2983085  58.0548954
   4.7134126  69.2477442  57.9861045   4.5958941  67.9701324  57.1825024
   4.0150470  65.5468010  34.6389631   4.8769634  65.8722909  34.8985449
   4.2000814  64.7599506  34.1262697  12.1683107  64.4196537  41.7824854
  11.5881776  65.0781341  41.4002907  11.9019039  63.5973881  41.3712272
  10.6186673  63.8201595  43.9846175  11.1186451  63.9318129  43.1760493
  11.2622281  63.5162647  44.6246983   4.6768669  71.7280224  56.8714016
   4.1935750  72.5280584  57.0777905   4.7629608  71.7388169  55.9181460
   0.6042006  75.6184759  48.9082449   1.5585260  75.5868701  48.8412381
   0.4054530  75.1575383  49.7232675   1.1941388  74.1885875  51.4753247
   2.0134277  74.6829954  51.4988084   1.4678196  73.2717843  51.4470815
  10.9507985  66.5796627  40.8381203  10.0633840  66.8646278  40.6201397
  11.3661974  66.4190391  39.9908479  14.3022521  66.6043148  44.5535542
  15.0782911  67.0939601  44.8260159  13.5770655  67.0301202  45.0107411
  16.7395079  67.3170767  45.6109482  17.3339570  67.0766503  44.9002791
  16.8121663  66.5977898  46.2383019  10.0951198  76.3441302  34.9329223
  10.7987048  76.5491304  35.5486878   9.3713847  76.9118064  35.1978306
  10.9249008  72.0951163  41.0531493  10.8684210  72.5519715  40.2139125
  11.4777351  71.3341848  40.8754335  14.7353814  67.8840895  41.8781612
  14.4790748  67.4837531  42.7089820  14.1106682  68.5984689  41.7531751
  19.0466152  70.6236968  44.3852904  18.4865710  70.6930158  45.1584466
  18.4409655  70.4477953  43.6652400   2.1161361  82.0573695  46.1371090
   1.9993745  83.0019128  46.0349780   1.2953807  81.7547257  46.5256889
  12.0037895  76.7823831  36.9827683  12.8383499  76.3505030  36.8005157
  11.8422238  76.6105845  37.9104577  11.6583788  73.2855944  38.3484022
  11.6032591  73.1200216  37.4072466  11.0329843  73.9931977  38.5046212
   8.9729695  75.5904856  57.6737585   9.8420854  75.7645509  57.3124220
   8.4936446  76.4099273  57.5513314   4.9679913  62.7864053  37.9269340
   4.9558583  63.7305893  38.0837611   5.8603335  62.6034199  37.6328802
   3.1415875  82.7101957  49.3527018   4.0443122  82.7425568  49.6693513
   2.9153245  81.7802408  49.3673354   4.8969477  81.4632944  46.0137097
   3.9465108  81.4634805  45.9001469   5.2001963  80.7165678  45.4973132
   8.7832033  59.3806830  42.1815277   8.0164428  58.8265317  42.3271959
   9.1942738  59.4528699  43.0429429  20.6322171  87.2993482  47.0782859
  21.2700581  87.1800230  46.3746199  20.5143013  88.2474326  47.1370811
  17.4411877  87.2520910  47.0144384  17.1030388  87.1361975  46.1264919
  18.3101645  86.8512075  46.9945390  13.2998693  89.1056387  43.0041275
  12.7363558  89.0146324  42.2357563  13.1851088  88.2856291  43.4843768
  17.9231660  88.4055762  52.9730590  17.9120301  88.0108560  52.1011093
  18.0852299  87.6721835  53.5664361  10.8463124  90.6007578  45.8425495
  11.6384416  90.2598403  45.4271795  11.0859775  90.7102553  46.7627649
  18.8798251  92.7727354  38.3155740  18.2286231  93.3581435  37.9289754
  19.6742614  93.3033549  38.3750777  12.8053878  89.8616492  38.7142874
  13.5784754  89.3145479  38.5755750  13.1579277  90.7260741  38.9257336
  14.6438921  91.1892874  51.9209774  14.3528787  92.0938505  51.8056440
  15.2795905  91.2309401  52.6353843  15.5695128  88.5669722  48.5111133
  16.1658700  88.3425745  47.7968096  15.6270099  87.8254468  49.1136581
  15.1420156  86.0209158  36.3461324  15.3945677  85.4990679  35.5844787
  14.2044715  85.8575303  36.4488008  20.1863439  85.0244936  44.1536067
  20.9726528  84.6064359  43.8026484  20.4502143  85.9291028  44.3217716
  20.3573516  90.4617786  38.8524724  19.7219349  90.5352413  39.5645629
  20.0270923  91.0511385  38.1743803  25.5871866  84.9620169  45.0569046
  26.3197038  84.3919386  45.2906875  24.8311222  84.5741770  45.4975551
  14.8616445  87.9237264  38.5485699  14.7452703  87.2482167  39.2166783
  14.9718705  87.4369638  37.7317852  17.2047986  87.3847411  42.2532388
  16.8406193  86.8578032  42.9645310  18.0615102  86.9945880  42.0798874
  23.1097287  78.6741743  49.5163654  22.7780611  79.5437154  49.2924869
  22.5142900  78.3578027  50.1957685  16.8453473  82.4137310  37.2493737
  17.0127875  83.2817547  37.6164208  16.6550642  82.5764592  36.3255026
  19.6028806  90.8754289  48.9159567  19.3029529  91.7779328  48.8075374
  19.2579866  90.6086473  49.7680720  13.0541288  87.3268086  44.9496272
  12.1291784  87.1944300  45.1573963  13.3025701  88.1062305  45.4466214
  23.0025950  83.3936830  46.5957005  22.0942827  83.3252238  46.3015766
  22.9513546  83.8708774  47.4238830  16.8242694  84.8694968  38.2340404
  16.7042319  85.3152019  39.0725884  16.1295282  85.2180286  37.6753942
  10.4150099  86.9701360  45.7840061  10.5442480  87.2235839  46.6979472
   9.7347550  87.5629068  45.4644716  14.5849586  97.6398610  41.8830535
  14.5073616  98.5906435  41.9619015  13.9811229  97.2944482  42.5405461
  17.0766816  84.8126475  54.5391902  16.3000150  85.3720395  54.5294766
  17.7157379  85.2983258  55.0606772  24.8687596  81.5953268  48.3734878
  24.2261976  81.8885801  47.7274673  24.3642525  81.4806188  49.1788075
  22.5227760  85.3416441  39.0620738  23.4345616  85.5743828  38.8868435
  22.0137407  85.9253485  38.4995816  15.3313188  87.6211929  54.1009869
  16.0727872  88.1596972  53.8244692  14.6250173  88.2478217  54.2581421
  20.8068528  89.7641069  52.6982030  21.2151884  89.3223479  51.9536663
  20.0845789  89.1893696  52.9516223  17.1599598  84.7013676  50.0715587
  18.0060793  85.1253089  50.2150236  17.0998235  84.0447300  50.7654150
  21.1297342  90.3242260  46.4534319  20.5006205  90.4887974  45.7510387
  20.7423004  90.7383869  47.2245283  25.0086574  91.2596697  43.8078683
  24.3237612  91.6395599  43.2575716  25.0930423  91.8692024  44.5410631
  20.3099043  82.3618044  51.7296761  20.0659975  83.1160105  51.1931037
  20.5858973  82.7403392  52.5644008  22.2637506  88.9056656  50.4074026
  22.4754401  89.5488416  49.7308408  22.2167254  88.0718973  49.9395957
  19.8663735  81.5174477  47.3110599  19.0048214  81.8155731  47.6027336
  19.8926169  81.7344876  46.3791631  16.6825304  90.0616668  43.7184404
  17.1463650  90.3404371  42.9289027  16.4182102  89.1600112  43.5357495
  13.5749385  89.6088149  46.6564168  14.1450742  90.0375418  46.0181652
  14.1657497  89.3270734  47.3548353  15.6194190  86.1839820  40.5273969
  16.3218233  86.6360864  40.9947896  15.2874819  85.5423639  41.1553863
  14.0674552  84.7751577  54.9025179  13.4373212  85.4567858  55.1360576
  13.9610640  84.6634658  53.9578317   9.3619524  84.4423373  45.8291103
   8.5718578  84.6980901  45.3531214   9.8530771  85.2571711  45.9343144
  23.3783334  91.7828612  48.5796384  24.2000777  91.3808799  48.2979065
  23.3745737  91.6796846  49.5312500  11.3134269  84.8067952  42.7874580
  10.5165433  84.9186646  43.3058075  11.0859862  85.1454604  41.9215470
  17.1439937  91.3312655  50.7357094  17.2084370  91.7933062  51.5715266
  16.4350861  90.7010020  50.8639404   7.6457227  84.6953863  48.2606094
   7.8965266  85.5800873  48.5263670   8.1816775  84.5158465  47.4881186
  31.4689327  88.1267360  44.9281355  30.7153035  87.5574758  44.7725360
  31.6036868  88.0930025  45.8751990  16.8587955  92.9980763  40.6036075
  16.7233630  93.8432298  41.0320922  17.3997767  93.2000040  39.8402008
  13.3455294  79.0772343  57.2650430  12.9522240  78.5238541  57.9398074
  14.1621435  79.3882921  57.6556947  10.3117352  90.5156201  41.1764000
  10.8241873  91.3099451  41.3269564  10.9640065  89.8182491  41.1097601
  12.1212237  93.6321957  43.2586753  12.2978865  94.5539922  43.0707737
  12.9169070  93.3180376  43.6881133  16.2623255  80.4930222  54.8570686
  17.0032969  81.0937375  54.7775149  16.4941178  79.7507859  54.2988729
  11.4064593  85.6786589  53.1348916  11.2918109  84.7771846  53.4356015
  10.5509111  85.9250286  52.7833733  18.4856431  93.6204329  54.7336417
  18.0420285  92.8340708  54.4157321  19.1473645  93.8083480  54.0680308
  13.2443552  95.1500131  49.2597095  13.7950977  95.0217194  48.4874089
  12.4055028  95.4495020  48.9091988  20.5837669  93.9007129  52.7617818
  20.5656145  94.7216010  52.2698087  21.5057589  93.7761204  52.9867959
  17.0410723  91.4151259  53.6041326  17.5739060  90.6539547  53.3740634
  16.5124804  91.1224910  54.3465481  20.2080418  76.5211325  49.1334968
  19.8644688  77.4112966  49.0574079  20.5759381  76.3312982  48.2704553
   8.2766269  88.8444855  41.9523570   9.1141491  89.2541863  41.7357278
   8.4544537  87.9044297  41.9223764  20.1730701  86.5119936  37.6407403
  19.6577324  87.2824540  37.8795791  19.9008010  85.8385072  38.2640465
  17.7577812  81.3569636  42.6992642  16.9019408  80.9676487  42.5198280
  18.1704764  81.4361597  41.8392427  19.2876959  78.8915980  47.0984201
  18.7841754  78.8546115  46.2852007  19.5807566  79.8008722  47.1580858
  15.5319845  78.9754709  46.1050383  16.3972841  78.7797518  45.7456273
  15.5997354  78.7465061  47.0319740  25.1464975  89.2652290  39.5760577
  24.3694418  88.9263450  39.1315739  25.8256456  89.2704913  38.9015542
  19.9617004  84.3847028  39.4667184  19.6567140  84.6993177  40.3177328
  20.9147446  84.4628448  39.5094517  18.4063436  90.5437251  41.1160138
  17.8784798  89.8090011  40.8033376  17.9050939  91.3211927  40.8700107
  23.3856282  88.7386272  46.2327185  22.7279957  89.4285533  46.3207313
  24.1896681  89.1282704  46.5761171  13.1382164  81.2056917  43.4766750
  13.7125916  80.9832099  42.7439943  13.7253146  81.2745612  44.2295351
  22.1961741  87.0930644  44.2831126  22.7093623  87.7260636  44.7852836
  22.8462965  86.4931840  43.9174486  13.4651751  83.2361378  37.4962635
  12.6289063  83.5736065  37.8171910  13.3256520  83.1010358  36.5589772
  15.4404831  78.0798166  42.2041819  14.7869244  77.7647183  41.5798434
  15.3985306  77.4573907  42.9301642  16.5516036  88.3617461  34.1195111
  15.6443098  88.1306715  34.3186260  17.0487068  87.5655081  34.3069093
  19.4584115  97.0714969  37.0391798  18.7845814  97.3746665  37.6476755
  19.8449937  97.8744049  36.6897255  18.6742572  84.5680100  46.5289467
  17.7565133  84.7895047  46.3711155  19.0902715  84.6426410  45.6701174
  19.4577620  85.9671515  41.6592147  20.2049438  86.4792913  41.3499269
  19.7269209  85.6455568  42.5196541  17.7304270  88.4630056  38.6419102
  16.8215489  88.1789089  38.7391571  17.7599354  88.8829135  37.7822408
  22.9623537  92.0736646  42.4110269  22.5085864  91.2327556  42.4675460
  22.3317504  92.7098044  42.7485049  21.9056457  83.0028632  43.6410937
  21.1679213  82.4906018  43.9721179  22.1583230  82.5629013  42.8294213
  21.4056476  93.9113142  43.3460087  21.6979451  94.4718200  42.6272453
  21.9155097  94.2041703  44.1013246  22.0068084  75.7804884  44.2352706
  22.3126961  74.9202247  43.9478621  22.7320689  76.3722504  44.0351700
   8.2992440  86.1835570  42.6234304   8.1016840  85.5904931  41.8985370
   7.7439104  85.8787781  43.3410243  16.2789164  86.0758677  44.7428897
  16.3337774  85.1232513  44.6671373  15.4680366  86.2318116  45.2270195
  17.4280357  90.0038800  35.9807180  16.9899787  89.2874659  35.5212817
  18.1690798  90.2314915  35.4192271  14.2181524  84.6935737  42.5019276
  13.4049389  84.9929907  42.9084468  14.7140518  84.2991425  43.2193758
  16.3690102  94.6893493  44.4353540  16.3266280  94.9154340  43.5062072
  17.2852800  94.4556868  44.5839342  19.8155735  85.1577561  51.3334170
  20.1705123  85.3849034  52.1928635  20.4627867  85.4895938  50.7111425
  25.5453472  88.2795997  42.0383499  25.4071371  88.4697593  41.1104688
  25.1889691  89.0415380  42.4951550  13.7095598  82.2654092  48.1180511
  14.3494978  82.1242851  47.4203474  12.8773129  81.9788605  47.7419113
  25.5722852  90.3472524  47.0494770  26.0059359  90.2547813  47.8977824
  26.2854433  90.3230024  46.4114786  14.4855902  91.5656522  44.2315503
  15.2796501  91.0706843  44.0298078  13.7747595  91.0374386  43.8683209
  19.3050747  93.9474618  48.5827871  19.3587769  94.5165554  49.3505587
  18.4365528  94.1176503  48.2181908  10.7938666  85.7099604  40.3075256
   9.8636254  85.6484060  40.5245218  10.8896138  85.1875557  39.5111897
  10.7124215  82.2354417  42.8953497  10.9731032  83.1499750  42.7862658
  11.5341387  81.7678860  43.0450110  12.1849140  83.6492174  50.0652322
  12.8572194  83.4409536  49.4164971  11.3578927  83.4514260  49.6257554
  26.4338401  90.3896225  49.5827656  26.6274292  91.2942035  49.8286930
  26.3339020  89.9303644  50.4166241  18.0874712  80.2754115  52.0817983
  17.4402627  80.9744065  51.9882459  18.8575728  80.7090259  52.4494231
  21.4953510  90.5402967  55.1568536  21.3439017  90.3113519  54.2398620
  21.4858190  91.4973569  55.1699881  18.2638847  88.1134880  50.1414803
  19.1930907  88.2646040  49.9683770  17.8429877  88.2018901  49.2863449
  17.0627178  92.1385544  47.9113340  16.9238264  91.7704329  48.7839278
  16.2741775  92.6533184  47.7397298  17.6575330  97.2394641  39.2538877
  17.8327086  96.7682684  40.0684499  16.9708118  97.8660407  39.4820137
  18.6132393  91.5167147  45.3002178  18.2782226  91.4767917  46.1959828
  18.1136339  90.8511863  44.8272588  12.5876637  86.9234777  50.8254759
  12.4496435  86.1915016  51.4266298  13.4981561  86.8343677  50.5438947
  21.5491585  88.8623182  35.5739238  20.9320756  88.1370010  35.4772290
  21.0808074  89.6232542  35.2306312  15.2158938  86.6354737  50.3138439
  15.9258557  85.9947929  50.2725057  15.1728246  86.8867631  51.2364620
  23.2045717  93.5722090  53.2345018  23.1458263  92.8881310  52.5675601
  23.6065235  94.3141080  52.7825644  13.9287872  83.6219954  52.1334078
  13.3925229  83.1710693  52.7855675  13.3404581  83.7565863  51.3904543
  12.2236416 100.3884004  46.0278737  12.4633014 101.0202528  46.7057755
  11.3805612 100.0372044  46.3144096  13.3390131  83.0808606  34.6960542
  12.4619597  82.9597407  34.3322789  13.8147884  82.2894684  34.4439431
  23.2063124  91.5361674  51.4658998  22.3189903  91.1987596  51.5885397
  23.7761675  90.8044705  51.7027763   4.8592271  87.8685766  44.7902049
   5.5463311  87.5547496  44.2023064   4.7040400  88.7727130  44.5169301
   9.6626993  82.7575962  49.2187073   9.5785182  82.1501632  48.4837483
   8.8409700  83.2484980  49.2196569  16.7364277  96.1963126  48.4320241
  16.6634449  97.0018098  48.9439545  16.2941671  96.3955092  47.6068262
  16.5254057  95.4334896  41.9423062  15.7421579  95.9756576  42.0361287
  17.2246802  95.9508876  42.3417304  19.8350707  81.2429526  44.5857268
  20.3319407  80.4899488  44.2658338  19.0637689  81.2793842  44.0200477
  27.6880465  86.9469891  46.2275559  27.6770341  87.8294607  45.8569492
  26.8197844  86.5941442  46.0330096  19.1962961  96.0949960  50.5878400
  19.9090933  96.7297425  50.5154301  18.7052990  96.1913826  49.7718401
  20.9180488  90.0001213  42.1595691  19.9836767  90.1202675  41.9900396
  21.0957156  89.0973680  41.8955701  16.4185676  83.3846909  44.3128952
  16.0483463  82.8317949  45.0009858  16.9144768  82.7805042  43.7603952
  24.3053039  85.8418532  42.6945725  24.7713491  86.6746524  42.6206028
  24.7560540  85.3763514  43.3990984  14.2474874  93.8444404  51.4083970
  14.9484334  94.4780887  51.5613365  13.7769989  94.1859135  50.6479610
  22.3729270  92.1862353  39.6931877  22.6489114  92.0718948  40.6025752
  21.5033769  91.7879838  39.6544051  22.2769702  78.2099119  46.7336627
  21.3632782  78.4403346  46.9018834  22.7062803  78.2937563  47.5850659
  22.0476160  86.3989011  49.2336521  21.3947611  86.6464919  48.5788974
  22.4256540  85.5853149  48.8998998  19.0083334  96.4348704  43.3364691
  19.1905729  95.6170360  43.7992443  19.8316320  96.6516397  42.8989581
  19.3425500  95.3616889  40.5979740  19.8713266  94.8509344  39.9849902
  19.6053719  95.0459420  41.4625273  18.0963733  87.1408822  55.7202558
  17.4204370  87.0402951  56.3904933  18.9191367  86.9848036  56.1838555
   9.8442593  93.3780759  48.3415073  10.4296029  92.6324447  48.4742977
   9.6467431  93.6884715  49.2251737  12.6981248  96.4132006  43.3577515
  12.0291623  96.8978134  42.8741556  12.5594117  96.6601227  44.2720894
   4.4360247  85.9486359  47.0619516   4.4744347  85.4149950  47.8556634
   3.9300540  85.4221564  46.4430493  16.8386516  98.4475750  49.9560174
  17.3904824  98.6107371  50.7209259  17.1792710  99.0380187  49.2840199
  11.8151010  80.7950899  50.5582059  11.8792336  81.6565730  50.1459456
  11.7518130  80.1824901  49.8254417  11.2903282  82.8674032  54.2055093
  11.9175321  82.4851109  54.8192617  10.4331201  82.6488234  54.5710785
  21.6897391  93.2737007  55.8108828  22.2337295  93.8866965  55.3163783
  21.1084236  93.8316586  56.3275841   8.0668825  84.6750461  40.1373448
   8.3622266  83.7661139  40.0840501   7.1656861  84.6538201  39.8154450
  19.9754904  96.3957725  46.9423856  19.8506043  95.5947465  46.4334801
  20.6333995  96.8903919  46.4537826  11.5963072  82.7506458  46.1200996
  10.8749658  83.3642425  45.9808470  12.3856328  83.2864222  46.0417642
  22.0389812  94.1966745  48.5703406  21.0920148  94.0772096  48.4981733
  22.3872585  93.3089243  48.6529668  14.3989385  80.0860884  52.3941648
  14.9223787  80.3323181  53.1567957  14.1801719  80.9180919  51.9744785
   9.7956666  82.3564559  40.2612773   9.4669373  81.4761938  40.0787879
  10.1496037  82.3012227  41.1489162  19.0436245  93.9919461  44.7707758
  18.8961208  93.0636169  44.9515328  19.8689739  94.0139552  44.2864834
  12.9098490  82.6437529  40.6288250  13.2494562  83.1723450  39.9066859
  13.3570610  82.9817935  41.4046817  22.6470367  94.8148020  45.8572631
  23.5716915  94.6090882  45.7197082  22.4785671  94.5664421  46.7661973
  15.6041930  81.0274579  50.0791319  15.2638751  80.2282392  50.4811998
  14.8980937  81.3276290  49.5068152  16.2558402  78.1123892  48.5318642
  17.0784472  77.6384370  48.4097532  16.4996466  78.8914375  49.0317328
  14.8966637  81.1412150  38.8281543  15.6174999  81.5193403  38.3245260
  14.2731941  81.8601027  38.9316521  19.0397760  81.8457299  39.7639876
  19.2561374  82.7281937  39.4628704  18.5591827  81.4543512  39.0345518
  13.7796981  84.8043012  46.3410620  13.6341562  85.1183315  47.2334902
  13.3022185  85.4227913  45.7881519  15.6393364  81.7945560  46.3891510
  15.6254933  80.8986654  46.0523808  16.3565792  81.8016224  47.0229796
  17.4919495  82.2282901  48.4344637  17.2337272  83.1499971  48.4328968
  16.9604535  81.8313335  49.1245101  22.4365683  95.3333688  41.2134723
  22.6102561  94.7680110  40.4608575  22.9294575  96.1334583  41.0314212
   8.2542643  87.3448357  49.2798281   7.7096111  88.1208165  49.4118556
   9.1321993  87.6919161  49.1217403  15.0430260  80.6759941  41.6579080
  15.1646171  79.7476587  41.8569967  14.7532302  80.6898627  40.7457395
  17.9121450  78.3614851  44.7945800  17.9343147  78.4254184  43.8397779
  18.3289509  77.5219360  44.9886306  28.2905075  88.0970111  42.8325022
  28.7336221  87.3477436  42.4344146  27.4131585  88.0880247  42.4498754
  23.4240856  94.6500452  38.3131621  24.1191760  95.2707145  38.5318935
  23.7664006  93.7995803  38.5883999   9.0408665  86.4718253  52.1728438
   8.2990401  86.6200888  52.7593069   8.7201409  86.7326519  51.3095188
  25.3232279  92.1000158  39.8418952  25.8483603  92.4387430  39.1168272
  25.2354632  91.1647173  39.6582086  16.9852328  96.0134231  51.9708828
  17.2939454  95.7683378  52.8431528  17.7827810  96.2180870  51.4827698
  17.0072940  98.1672141  44.2014205  16.5677930  97.6748520  44.8947061
  17.7581057  97.6245109  43.9606280   9.4865279  94.3583682  44.2038833
  10.3123299  94.0587454  43.8237476   9.1359331  93.5891304  44.6528621
  14.4546812  93.7110150  46.2736506  13.8326821  93.0480855  45.9738734
  15.1251679  93.7371282  45.5910154   7.6873884  92.2770008  45.1627766
   6.8505792  91.8492183  44.9811768   7.6597529  92.4702451  46.0998558
  14.5271339  82.1891938  55.8669012  14.5759495  83.0654061  55.4846782
  15.0693854  81.6469331  55.2940656  25.0126185  92.7333061  55.1470150
  24.2221729  92.7157200  54.6074649  24.7759540  93.2721355  55.9019186
  25.1324060  89.5825528  52.4602878  25.1822065  89.4175535  53.4018401
  25.0237983  88.7152787  52.0700759  14.0160319  92.2614073  39.7494967
  14.1648439  92.9449538  39.0961640  14.8226762  92.2419163  40.2644423
  22.4227822  85.5656456  53.7762185  23.3237685  85.4262920  53.4846183
  22.4975797  85.7310910  54.7160362  16.7570628  82.9423310  52.6215371
  15.8873937  83.2356876  52.3497960  16.9930108  83.5263755  53.3422635
  26.6342257  92.0022469  52.7044900  26.3427065  92.3652450  53.5408361
  26.0214388  91.2889477  52.5258232  27.8337939  89.5675349  45.2247470
  28.6684831  90.0065153  45.3885030  27.9697068  89.0914002  44.4055716
  24.8829445  87.1255084  51.1724958  25.3583567  87.3182730  50.3643809
  23.9595011  87.1814270  50.9268341  11.7712952  88.2879251  40.7556036
  11.5258994  87.3841581  40.9536246  11.9408866  88.2896401  39.8135514
  19.4609662  79.1602927  50.1380791  19.9791606  79.8963954  49.8127280
  19.1064794  79.4666921  50.9727551  11.0408599  84.0207608  38.2542197
  10.3477844  84.0951963  37.5982233  10.7960351  83.2567952  38.7763714
  19.7122256  75.5803210  45.6581688  19.9924010  74.9126399  46.2842115
  20.4972863  75.7732305  45.1456352  17.5155724  94.7562204  37.2206714
  16.9429691  95.3752391  36.7677186  18.0888518  95.3061565  37.7546636
  23.5831114  84.0020844  49.4053263  24.5348537  84.1018941  49.4265487
  23.4134565  83.2099112  49.9151348  21.6045494  81.0876427  49.5912664
  21.0095426  81.3681440  48.8959153  21.3195190  81.5770328  50.3629405
  20.7352984  95.0399354  38.3515297  21.6683657  94.9744916  38.5548172
  20.6476197  95.8755621  37.8929829  23.3641001  94.3565224  35.3119244
  23.2854632  94.0225088  36.2055002  24.1850668  94.8486992  35.3110717
  26.0619192  87.2226963  48.5195563  26.0295512  86.2842964  48.7055247
  26.6719816  87.3011000  47.7861388  17.9002523  86.0923016  34.5622767
  18.8461628  85.9629225  34.6311185  17.5216768  85.3537678  35.0392195
  26.2113680  84.0138007  48.5653846  25.6952729  83.2296464  48.3783775
  27.0953629  83.6856724  48.7300366  23.8724407  77.7579022  44.5249659
  23.6749228  77.4494111  45.4092991  24.4824113  78.4840661  44.6547589
  31.8795742  88.2842970  47.6601600  32.6099130  88.0228258  48.2209303
  31.2702687  87.5471692  47.7003668  29.9611039  86.4250833  48.2576051
  29.2344203  86.2906798  47.6492542  29.5458326  86.7327662  49.0632769
  17.7841215  90.1440763  56.0223424  18.7044225  90.3219362  56.2163470
  17.7490798  89.1996808  55.8703123  16.0845440  84.0172993  34.4977652
  15.1776895  83.7206106  34.5740366  16.3621421  83.7202811  33.6311938
   7.0023380  85.3379356  44.9476699   6.6826165  84.4844664  44.6551073
   6.4556809  85.5527934  45.7034666  10.7803288  88.0541797  48.6646205
  10.9989298  88.9858905  48.6834239  11.1929062  87.6949772  49.4501009
  17.7007506  78.5609883  40.6521893  16.8908234  78.2156968  41.0277139
  18.3891923  78.2517426  41.2409505  19.6298054  77.6387929  42.2746190
  20.1829093  78.0583383  42.9336213  19.8668140  76.7123677  42.3169146
  15.6531153  83.6275003  58.0548954  15.5527880  84.5769360  57.9861045
  15.4352695  83.2993242  57.1825024  14.8544225  80.8759928  34.6389631
  15.7163389  81.2014826  34.8985449  15.0394569  80.0891424  34.1262697
   6.8711640  88.9582268  46.9169820   6.1775112  88.5436221  46.4039774
   7.6184631  89.0002804  46.3203239  23.0076861  79.7488455  41.7824854
  22.4275530  80.4073259  41.4002907  22.7412794  78.9265799  41.3712272
  21.4580427  79.1493512  43.9846175  21.9580206  79.2610047  43.1760493
  22.1016035  78.8454565  44.6246983  15.5162423  87.0572142  56.8714016
  15.0329505  87.8572502  57.0777905  15.6023362  87.0680087  55.9181460
   8.7848383  88.8900522  44.7935835   8.7619071  88.9888209  43.8417718
   9.0949019  89.7365672  45.1153001  11.4435761  90.9476677  48.9082449
  12.3979014  90.9160619  48.8412381  11.2448284  90.4867300  49.7232675
  12.0335143  89.5177793  51.4753247  12.8528032  90.0121871  51.4988084
  12.3071951  88.6009761  51.4470815  21.7901739  81.9088545  40.8381203
  20.9027594  82.1938196  40.6201397  22.2055728  81.7482308  39.9908479
  25.1416275  81.9335066  44.5535542  25.9176665  82.4231518  44.8260159
  24.4164409  82.3593120  45.0107411  27.5788834  82.6462685  45.6109482
  28.1733325  82.4058421  44.9002791  27.6515418  81.9269816  46.2383019
   9.7985990  96.4896296  45.9252647   9.6640457  95.7296697  45.3590645
   9.3818052  97.2137196  45.4581436  20.9344953  91.6733220  34.9329223
  21.6380803  91.8783222  35.5486878  20.2107601  92.2409981  35.1978306
  21.7642763  87.4243081  41.0531493  21.7077964  87.8811632  40.2139125
  22.3171105  86.6633765  40.8754335  25.5747569  83.2132813  41.8781612
  25.3184503  82.8129448  42.7089820  24.9500437  83.9276607  41.7531751
  29.8859907  85.9528886  44.3852904  29.3259465  86.0222075  45.1584466
  29.2803410  85.7769871  43.6652400  12.9555115  97.3865613  46.1371090
  12.8387500  98.3311046  46.0349780  12.1347562  97.0839175  46.5256889
  22.8431650  92.1115749  36.9827683  23.6777254  91.6796947  36.8005157
  22.6815993  91.9397762  37.9104577  22.4977542  88.6147862  38.3484022
  22.4426346  88.4492134  37.4072466  21.8723597  89.3223895  38.5046212
   7.2870057  83.8515926  52.1745444   7.9328921  83.3414880  52.6632669
   7.0787208  84.5884608  52.7488869  19.8123449  90.9196774  57.6737585
  20.6814609  91.0937426  57.3124220  19.3330201  91.7391191  57.5513314
  15.8073668  78.1155971  37.9269340  15.7952337  79.0597811  38.0837611
  16.6997089  77.9326117  37.6328802  13.9809630  98.0393875  49.3527018
  14.8836876  98.0717485  49.6693513  13.7547000  97.1094326  49.3673354
  15.7363232  96.7924862  46.0137097  14.7858863  96.7926723  45.9001469
  16.0395718  96.0457596  45.4973132  19.6225787  74.7098748  42.1815277
  18.8558183  74.1557234  42.3271959  20.0336492  74.7820617  43.0429429
  11.6267548  80.9983544  56.2720458  12.4899010  80.6420348  56.4823783
  11.0532959  80.6597438  56.9595863  31.4715925 102.6285400  47.0782859
  32.1094335 102.5092147  46.3746199  31.3536768 103.5766244  47.1370811
  28.2805631 102.5812828  47.0144384  27.9424143 102.4653893  46.1264919
  29.1495400 102.1803993  46.9945390  24.1392447 104.4348304  43.0041275
  23.5757312 104.3438241  42.2357563  24.0244842 103.6148209  43.4843768
  28.7625414 103.7347680  52.9730590  28.7514055 103.3400478  52.1011093
  28.9246054 103.0013752  53.5664361  21.6856879 105.9299496  45.8425495
  22.4778171 105.5890321  45.4271795  21.9253529 106.0394471  46.7627649
  29.7192006 108.1019272  38.3155740  29.0679986 108.6873353  37.9289754
  30.5136369 108.6325467  38.3750777  23.6447633 105.1908409  38.7142874
  24.4178509 104.6437396  38.5755750  23.9973032 106.0552659  38.9257336
  25.4832675 106.5184792  51.9209774  25.1922541 107.4230422  51.8056440
  26.1189660 106.5601319  52.6353843  26.4088882 103.8961640  48.5111133
  27.0052455 103.6717662  47.7968096  26.4663854 103.1546386  49.1136581
  25.9813911 101.3501075  36.3461324  26.2339431 100.8282597  35.5844787
  25.0438470 101.1867221  36.4488008  31.0257194 100.3536854  44.1536067
  31.8120283  99.9356277  43.8026484  31.2895898 101.2582946  44.3217716
  31.1967271 105.7909704  38.8524724  30.5613104 105.8644331  39.5645629
  30.8664677 106.3803303  38.1743803  36.4265621 100.2912087  45.0569046
  37.1590793  99.7211304  45.2906875  35.6704976  99.9033687  45.4975551
  25.7010199 103.2529181  38.5485699  25.5846458 102.5774085  39.2166783
  25.8112459 102.7661555  37.7317852  28.0441740 102.7139328  42.2532388
  27.6799948 102.1869949  42.9645310  28.9008856 102.3237798  42.0798874
  33.9491041  94.0033661  49.5163654  33.6174366  94.8729072  49.2924869
  33.3536654  93.6869945  50.1957685  27.6847227  97.7429228  37.2493737
  27.8521630  98.6109465  37.6164208  27.4944396  97.9056510  36.3255026
  30.4422561 106.2046207  48.9159567  30.1423284 107.1071246  48.8075374
  30.0973620 105.9378390  49.7680720  23.8935042 102.6560004  44.9496272
  22.9685538 102.5236218  45.1573963  24.1419455 103.4354223  45.4466214
  33.8419704  98.7228747  46.5957005  32.9336582  98.6544156  46.3015766
  33.7907300  99.2000692  47.4238830  27.6636448 100.1986886  38.2340404
  27.5436073 100.6443936  39.0725884  26.9689037 100.5472203  37.6753942
  21.2543853 102.2993277  45.7840061  21.3836234 102.5527756  46.6979472
  20.5741304 102.8920985  45.4644716  25.4243340 112.9690527  41.8830535
  25.3467370 113.9198352  41.9619015  24.8204984 112.6236400  42.5405461
  27.9160570 100.1418393  54.5391902  27.1393904 100.7012313  54.5294766
  28.5551133 100.6275176  55.0606772  35.7081351  96.9245186  48.3734878
  35.0655731  97.2177719  47.7274673  35.2036279  96.8098106  49.1788075
  33.3621514 100.6708359  39.0620738  34.2739371 100.9035746  38.8868435
  32.8531161 101.2545403  38.4995816  26.1706942 102.9503846  54.1009869
  26.9121627 103.4888890  53.8244692  25.4643928 103.5770135  54.2581421
  31.6462282 105.0932987  52.6982030  32.0545638 104.6515397  51.9536663
  30.9239544 104.5185614  52.9516223  27.9993352 100.0305593  50.0715587
  28.8454547 100.4545007  50.2150236  27.9391990  99.3739218  50.7654150
  31.9691097 105.6534177  46.4534319  31.3399959 105.8179891  45.7510387
  31.5816759 106.0675787  47.2245283  35.8480329 106.5888615  43.8078683
  35.1631367 106.9687516  43.2575716  35.9324178 107.1983942  44.5410631
  31.1492797  97.6909962  51.7296761  30.9053729  98.4452022  51.1931037
  31.4252728  98.0695309  52.5644008  33.1031260 104.2348574  50.4074026
  33.3148155 104.8780334  49.7308408  33.0561008 103.4010891  49.9395957
  30.7057489  96.8466395  47.3110599  29.8441968  97.1447648  47.6027336
  30.7319924  97.0636794  46.3791631  27.5219059 105.3908585  43.7184404
  27.9857404 105.6696288  42.9289027  27.2575857 104.4892030  43.5357495
  24.4143140 104.9380067  46.6564168  24.9844497 105.3667335  46.0181652
  25.0051251 104.6562652  47.3548353  26.4587945 101.5131738  40.5273969
  27.1611988 101.9652781  40.9947896  26.1268573 100.8715557  41.1553863
  24.9068306 100.1043494  54.9025179  24.2766967 100.7859775  55.1360576
  24.8004394  99.9926576  53.9578317  20.2013279  99.7715290  45.8291103
  19.4112333 100.0272819  45.3531214  20.6924526 100.5863628  45.9343144
  34.2177088 107.1120530  48.5796384  35.0394532 106.7100717  48.2979065
  34.2139491 107.0088764  49.5312500  22.1528024 100.1359870  42.7874580
  21.3559187 100.2478564  43.3058075  21.9253616 100.4746522  41.9215470
  27.9833692 106.6604573  50.7357094  28.0478124 107.1224980  51.5715266
  27.2744615 106.0301938  50.8639404  18.4850982 100.0245781  48.2606094
  18.7359020 100.9092791  48.5263670  19.0210530  99.8450382  47.4881186
  42.3083081 103.4559278  44.9281355  41.5546790 102.8866676  44.7725360
  42.4430622 103.4221943  45.8751990  27.6981709 108.3272680  40.6036075
  27.5627384 109.1724216  41.0320922  28.2391522 108.5291958  39.8402008
  24.1849049  94.4064260  57.2650430  23.7915994  93.8530459  57.9398074
  25.0015189  94.7174839  57.6556947  21.1511107 105.8448118  41.1764000
  21.6635627 106.6391369  41.3269564  21.8033819 105.1474409  41.1097601
  22.9605991 108.9613875  43.2586753  23.1372620 109.8831839  43.0707737
  23.7562825 108.6472294  43.6881133  27.1017010  95.8222139  54.8570686
  27.8426723  96.4229292  54.7775149  27.3334933  95.0799777  54.2988729
  22.2458348 101.0078507  53.1348916  22.1311863 100.1063764  53.4356015
  21.3902866 101.2542203  52.7833733  29.3250186 108.9496247  54.7336417
  28.8814040 108.1632625  54.4157321  29.9867399 109.1375397  54.0680308
  24.0837307 110.4792048  49.2597095  24.6344732 110.3509112  48.4874089
  23.2448783 110.7786937  48.9091988  31.4231424 109.2299047  52.7617818
  31.4049899 110.0507928  52.2698087  32.3451344 109.1053122  52.9867959
  27.8804478 106.7443176  53.6041326  28.4132815 105.9831464  53.3740634
  27.3518559 106.4516828  54.3465481  31.0474173  91.8503242  49.1334968
  30.7038442  92.7404884  49.0574079  31.4153135  91.6604900  48.2704553
  19.1160023 104.1736773  41.9523570  19.9535245 104.5833781  41.7357278
  19.2938291 103.2336215  41.9223764  31.0124456 101.8411853  37.6407403
  30.4971079 102.6116458  37.8795791  30.7401764 101.1676989  38.2640465
  28.5971567  96.6861554  42.6992642  27.7413163  96.2968405  42.5198280
  29.0098518  96.7653515  41.8392427  30.1270713  94.2207897  47.0984201
  29.6235509  94.1838033  46.2852007  30.4201320  95.1300640  47.1580858
  26.3713599  94.3046627  46.1050383  27.2366596  94.1089436  45.7456273
  26.4391108  94.0756979  47.0319740  35.9858730 104.5944208  39.5760577
  35.2088172 104.2555367  39.1315739  36.6650211 104.5996831  38.9015542
  30.8010759  99.7138945  39.4667184  30.4960894 100.0285095  40.3177328
  31.7541201  99.7920365  39.5094517  29.2457191 105.8729169  41.1160138
  28.7178552 105.1381928  40.8033376  28.7444693 106.6503845  40.8700107
  34.2250037 104.0678189  46.2327185  33.5673711 104.7577451  46.3207313
  35.0290436 104.4574621  46.5761171  23.9775918  96.5348835  43.4766750
  24.5519670  96.3124017  42.7439943  24.5646901  96.6037530  44.2295351
  33.0355495 102.4222562  44.2831126  33.5487377 103.0552554  44.7852836
  33.6856719 101.8223757  43.9174486  24.3045505  98.5653296  37.4962635
  23.4682818  98.9027983  37.8171910  24.1650275  98.4302276  36.5589772
  26.2798586  93.4090084  42.2041819  25.6262998  93.0939101  41.5798434
  26.2379060  92.7865824  42.9301642  27.3909791 103.6909379  34.1195111
  26.4836852 103.4598632  34.3186260  27.8880823 102.8946998  34.3069093
  30.2977870 112.4006886  37.0391798  29.6239568 112.7038583  37.6476755
  30.6843692 113.2035967  36.6897255  29.5136326  99.8972017  46.5289467
  28.5958888 100.1186964  46.3711155  29.9296470  99.9718328  45.6701174
  30.2971374 101.2963433  41.6592147  31.0443193 101.8084830  41.3499269
  30.5662964 100.9747486  42.5196541  28.5698024 103.7921974  38.6419102
  27.6609243 103.5081007  38.7391571  28.5993108 104.2121052  37.7822408
  33.8017292 107.4028563  42.4110269  33.3479619 106.5619473  42.4675460
  33.1711258 108.0389962  42.7485049  32.7450211  98.3320549  43.6410937
  32.0072968  97.8197936  43.9721179  32.9976985  97.8920931  42.8294213
  32.2450231 109.2405060  43.3460087  32.5373205 109.8010117  42.6272453
  32.7548851 109.5333621  44.1013246  32.8461838  91.1096801  44.2352706
  33.1520715  90.2494165  43.9478621  33.5714443  91.7014422  44.0351700
  19.1386195 101.5127488  42.6234304  18.9410594 100.9196849  41.8985370
  18.5832859 101.2079698  43.3410243  27.1182918 101.4050594  44.7428897
  27.1731528 100.4524431  44.6671373  26.3074120 101.5610034  45.2270195
  28.2674112 105.3330718  35.9807180  27.8293542 104.6166576  35.5212817
  29.0084553 105.5606832  35.4192271  25.0575278 100.0227654  42.5019276
  24.2443144 100.3221825  42.9084468  25.5534272  99.6283343  43.2193758
  27.2083856 110.0185411  44.4353540  27.1660035 110.2446257  43.5062072
  28.1246555 109.7848786  44.5839342  30.6549490 100.4869479  51.3334170
  31.0098878 100.7140952  52.1928635  31.3021621 100.8187855  50.7111425
  36.3847227 103.6087915  42.0383499  36.2465125 103.7989511  41.1104688
  36.0283446 104.3707297  42.4951550  24.5489353  97.5946010  48.1180511
  25.1888732  97.4534769  47.4203474  23.7166883  97.3080523  47.7419113
  36.4116606 105.6764442  47.0494770  36.8453113 105.5839731  47.8977824
  37.1248187 105.6521942  46.4114786  25.3249657 106.8948440  44.2315503
  26.1190255 106.3998760  44.0298078  24.6141349 106.3666303  43.8683209
  30.1444501 109.2766536  48.5827871  30.1981524 109.8457472  49.3505587
  29.2759283 109.4468421  48.2181908  21.6332420 101.0391522  40.3075256
  20.7030008 100.9775977  40.5245218  21.7289892 100.5167475  39.5111897
  21.5517969  97.5646335  42.8953497  21.8124787  98.4791668  42.7862658
  22.3735142  97.0970777  43.0450110  23.0242895  98.9784092  50.0652322
  23.6965948  98.7701454  49.4164971  22.1972681  98.7806178  49.6257554
  37.2732156 105.7188142  49.5827656  37.4668046 106.6233953  49.8286930
  37.1732774 105.2595561  50.4166241  28.9268467  95.6046033  52.0817983
  28.2796382  96.3035982  51.9882459  29.6969482  96.0382177  52.4494231
  32.3347265 105.8694885  55.1568536  32.1832771 105.6405437  54.2398620
  32.3251944 106.8265486  55.1699881  29.1032601 103.4426798  50.1414803
  30.0324661 103.5937957  49.9683770  28.6823631 103.5310819  49.2863449
  27.9020933 107.4677462  47.9113340  27.7632018 107.0996247  48.7839278
  27.1135529 107.9825102  47.7397298  28.4969085 112.5686559  39.2538877
  28.6720840 112.0974602  40.0684499  27.8101873 113.1952325  39.4820137
  29.4526148 106.8459065  45.3002178  29.1175981 106.8059835  46.1959828
  28.9530094 106.1803781  44.8272588  23.4270392 102.2526695  50.8254759
  23.2890190 101.5206934  51.4266298  24.3375315 102.1635595  50.5438947
  32.3885340 104.1915099  35.5739238  31.7714510 103.4661927  35.4772290
  31.9201828 104.9524459  35.2306312  26.0552693 101.9646654  50.3138439
  26.7652311 101.3239846  50.2725057  26.0122001 102.2159549  51.2364620
  34.0439471 108.9014008  53.2345018  33.9852017 108.2173228  52.5675601
  34.4458990 109.6432998  52.7825644  24.7681627  98.9511872  52.1334078
  24.2318984  98.5002611  52.7855675  24.1798335  99.0857781  51.3904543
  23.0630170 115.7175921  46.0278737  23.3026768 116.3494446  46.7057755
  22.2199367 115.3663961  46.3144096  24.1783886  98.4100524  34.6960542
  23.3013352  98.2889324  34.3322789  24.6541639  97.6186602  34.4439431
  34.0456879 106.8653591  51.4658998  33.1583657 106.5279513  51.5885397
  34.6155430 106.1336623  51.7027763  15.6986026 103.1977683  44.7902049
  16.3857065 102.8839413  44.2023064  15.5434154 104.1019048  44.5169301
  20.5020748  98.0867880  49.2187073  20.4178937  97.4793549  48.4837483
  19.6803454  98.5776898  49.2196569  27.5758032 111.5255044  48.4320241
  27.5028203 112.3310015  48.9439545  27.1335425 111.7247010  47.6068262
  27.3647812 110.7626814  41.9423062  26.5815333 111.3048494  42.0361287
  28.0640557 111.2800794  42.3417304  30.6744462  96.5721443  44.5857268
  31.1713161  95.8191406  44.2658338  29.9031443  96.6085760  44.0200477
  38.5274219 102.2761809  46.2275559  38.5164095 103.1586524  45.8569492
  37.6591598 101.9233360  46.0330096  30.0356715 111.4241878  50.5878400
  30.7484688 112.0589343  50.5154301  29.5446744 111.5205744  49.7718401
  31.7574242 105.3293131  42.1595691  30.8230521 105.4494593  41.9900396
  31.9350911 104.4265597  41.8955701  27.2579430  98.7138826  44.3128952
  26.8877218  98.1609867  45.0009858  27.7538523  98.1096960  43.7603952
  35.1446794 101.1710450  42.6945725  35.6107246 102.0038441  42.6206028
  35.5954294 100.7055431  43.3990984  25.0868629 109.1736321  51.4083970
  25.7878088 109.8072804  51.5613365  24.6163744 109.5151053  50.6479610
  33.2123025 107.5154271  39.6931877  33.4882869 107.4010866  40.6025752
  32.3427524 107.1171756  39.6544051  33.1163456  93.5391037  46.7336627
  32.2026536  93.7695264  46.9018834  33.5456558  93.6229481  47.5850659
  32.8869915 101.7280929  49.2336521  32.2341365 101.9756836  48.5788974
  33.2650295 100.9145067  48.8998998  29.8477089 111.7640622  43.3364691
  30.0299483 110.9462278  43.7992443  30.6710075 111.9808314  42.8989581
  30.1819254 110.6908807  40.5979740  30.7107021 110.1801262  39.9849902
  30.4447474 110.3751337  41.4625273  28.9357488 102.4700740  55.7202558
  28.2598125 102.3694869  56.3904933  29.7585122 102.3139954  56.1838555
  20.6836347 108.7072676  48.3415073  21.2689784 107.9616364  48.4742977
  20.4861185 109.0176633  49.2251737  23.5375002 111.7423924  43.3577515
  22.8685378 112.2270051  42.8741556  23.3987872 111.9893144  44.2720894
  15.2754002 101.2778277  47.0619516  15.3138101 100.7441867  47.8556634
  14.7694295 100.7513482  46.4430493  27.6780271 113.7767667  49.9560174
  28.2298579 113.9399289  50.7209259  28.0186464 114.3672105  49.2840199
  22.6544764  96.1242817  50.5582059  22.7186091  96.9857648  50.1459456
  22.5911884  95.5116819  49.8254417  22.1297037  98.1965950  54.2055093
  22.7569075  97.8143027  54.8192617  21.2724955  97.9780152  54.5710785
  32.5291145 108.6028925  55.8108828  33.0731049 109.2158883  55.3163783
  31.9477990 109.1608503  56.3275841  18.9062579 100.0042379  40.1373448
  19.2016020  99.0953057  40.0840501  18.0050615  99.9830118  39.8154450
  30.8148658 111.7249643  46.9423856  30.6899798 110.9239383  46.4334801
  31.4727749 112.2195836  46.4537826  22.4356826  98.0798375  46.1200996
  21.7143412  98.6934343  45.9808470  23.2250082  98.6156140  46.0417642
  32.8783567 109.5258663  48.5703406  31.9313902 109.4064014  48.4981733
  33.2266340 108.6381161  48.6529668  25.2383140  95.4152802  52.3941648
  25.7617542  95.6615098  53.1567957  25.0195473  96.2472837  51.9744785
  20.6350421  97.6856476  40.2612773  20.3063127  96.8053855  40.0787879
  20.9889792  97.6304145  41.1489162  29.8830000 109.3211379  44.7707758
  29.7354962 108.3928087  44.9515328  30.7083493 109.3431470  44.2864834
  23.7492244  97.9729446  40.6288250  24.0888317  98.5015367  39.9066859
  24.1964365  98.3109852  41.4046817  33.4864122 110.1439938  45.8572631
  34.4110669 109.9382799  45.7197082  33.3179425 109.8956339  46.7661973
  26.4435685  96.3566497  50.0791319  26.1032505  95.5574310  50.4811998
  25.7374691  96.6568208  49.5068152  27.0952157  93.4415809  48.5318642
  27.9178226  92.9676288  48.4097532  27.3390220  94.2206293  49.0317328
  25.7360391  96.4704068  38.8281543  26.4568754  96.8485321  38.3245260
  25.1125695  97.1892945  38.9316521  29.8791514  97.1749217  39.7639876
  30.0955129  98.0573855  39.4628704  29.3985581  96.7835430  39.0345518
  24.6190736 100.1334930  46.3410620  24.4735316 100.4475233  47.2334902
  24.1415939 100.7519830  45.7881519  26.4787118  97.1237478  46.3891510
  26.4648687  96.2278571  46.0523808  27.1959546  97.1308142  47.0229796
  28.3313249  97.5574818  48.4344637  28.0731027  98.4791889  48.4328968
  27.7998289  97.1605253  49.1245101  33.2759438 110.6625605  41.2134723
  33.4496315 110.0972028  40.4608575  33.7688329 111.4626500  41.0314212
  19.0936398 102.6740274  49.2798281  18.5489866 103.4500082  49.4118556
  19.9715748 103.0211079  49.1217403  25.8824014  96.0051858  41.6579080
  26.0039926  95.0768504  41.8569967  25.5926057  96.0190544  40.7457395
  28.7515205  93.6906769  44.7945800  28.7736902  93.7546102  43.8397779
  29.1683264  92.8511277  44.9886306  39.1298829 103.4262028  42.8325022
  39.5729975 102.6769353  42.4344146  38.2525339 103.4172165  42.4498754
  34.2634610 109.9792370  38.3131621  34.9585515 110.5999062  38.5318935
  34.6057760 109.1287721  38.5883999  19.8802420 101.8010171  52.1728438
  19.1384156 101.9492806  52.7593069  19.5595164 102.0618436  51.3095188
  36.1626033 107.4292075  39.8418952  36.6877358 107.7679348  39.1168272
  36.0748386 106.4939091  39.6582086  27.8246082 111.3426149  51.9708828
  28.1333209 111.0975296  52.8431528  28.6221564 111.5472787  51.4827698
  27.8466694 113.4964059  44.2014205  27.4071685 113.0040437  44.8947061
  28.5974811 112.9537026  43.9606280  20.3259033 109.6875599  44.2038833
  21.1517053 109.3879371  43.8237476  19.9753085 108.9183222  44.6528621
  25.2940566 109.0402068  46.2736506  24.6720576 108.3772773  45.9738734
  25.9645433 109.0663199  45.5910154  18.5267638 107.6061926  45.1627766
  17.6899547 107.1784100  44.9811768  18.4991284 107.7994369  46.0998558
  25.3665094  97.5183856  55.8669012  25.4153249  98.3945978  55.4846782
  25.9087608  96.9761249  55.2940656  35.8519940 108.0624979  55.1470150
  35.0615483 108.0449118  54.6074649  35.6153294 108.6013273  55.9019186
  35.9717815 104.9117445  52.4602878  36.0215820 104.7467453  53.4018401
  35.8631738 104.0444704  52.0700759  24.8554073 107.5905991  39.7494967
  25.0042194 108.2741455  39.0961640  25.6620517 107.5711081  40.2644423
  33.2621577 100.8948373  53.7762185  34.1631440 100.7554838  53.4846183
  33.3369551 101.0602828  54.7160362  27.5964382  98.2715228  52.6215371
  26.7267692  98.5648794  52.3497960  27.8323863  98.8555673  53.3422635
  37.4736011 107.3314387  52.7044900  37.1820820 107.6944367  53.5408361
  36.8608143 106.6181395  52.5258232  38.6731694 104.8967267  45.2247470
  39.5078585 105.3357071  45.3885030  38.8090823 104.4205920  44.4055716
  35.7223200 102.4547001  51.1724958  36.1977321 102.6474648  50.3643809
  34.7988765 102.5106187  50.9268341  22.6106706 103.6171169  40.7556036
  22.3652748 102.7133499  40.9536246  22.7802621 103.6188319  39.8135514
  30.3003416  94.4894845  50.1380791  30.8185360  95.2255872  49.8127280
  29.9458549  94.7958838  50.9727551  21.8802354  99.3499526  38.2542197
  21.1871599  99.4243881  37.5982233  21.6354106  98.5859870  38.7763714
  30.5516010  90.9095127  45.6581688  30.8317764  90.2418317  46.2842115
  31.3366617  91.1024223  45.1456352  28.3549479 110.0854121  37.2206714
  27.7823446 110.7044309  36.7677186  28.9282272 110.6353483  37.7546636
  34.4224869  99.3312761  49.4053263  35.3742292  99.4310859  49.4265487
  34.2528319  98.5391030  49.9151348  32.4439248  96.4168345  49.5912664
  31.8489180  96.6973357  48.8959153  32.1588945  96.9062246  50.3629405
  31.5746739 110.3691272  38.3515297  32.5077412 110.3036833  38.5548172
  31.4869951 111.2047538  37.8929829  34.2034755 109.6857142  35.3119244
  34.1248387 109.3517005  36.2055002  35.0244422 110.1778910  35.3110717
  36.9012946 102.5518881  48.5195563  36.8689267 101.6134882  48.7055247
  37.5113570 102.6302918  47.7861388  28.7396277 101.4214934  34.5622767
  29.6855382 101.2921142  34.6311185  28.3610522 100.6829596  35.0392195
  37.0507435  99.3429925  48.5653846  36.5346484  98.5588381  48.3783775
  37.9347383  99.0148641  48.7300366  34.7118162  93.0870940  44.5249659
  34.5142983  92.7786028  45.4092991  35.3217867  93.8132579  44.6547589
  42.7189496 103.6134888  47.6601600  43.4492885 103.3520176  48.2209303
  42.1096442 102.8763610  47.7003668  40.8004793 101.7542751  48.2576051
  40.0737957 101.6198716  47.6492542  40.3852080 102.0619579  49.0632769
  28.6234970 105.4732680  56.0223424  29.5437979 105.6511279  56.2163470
  28.5884553 104.5288726  55.8703123  26.9239194  99.3464911  34.4977652
  26.0170650  99.0498023  34.5740366  27.2015175  99.0494729  33.6311938
  17.8417135 100.6671274  44.9476699  17.5219919  99.8136582  44.6551073
  17.2950563 100.8819852  45.7034666  21.6197042 103.3833715  48.6646205
  21.8383052 104.3150823  48.6834239  22.0322816 103.0241689  49.4501009
  28.5401260  93.8901800  40.6521893  27.7301988  93.5448885  41.0277139
  29.2285677  93.5809344  41.2409505  30.4691808  92.9679847  42.2746190
  31.0222847  93.3875300  42.9336213  30.7061895  92.0415595  42.3169146
  26.4924908  98.9566921  58.0548954  26.3921635  99.9061278  57.9861045
  26.2746450  98.6285160  57.1825024  25.6937979  96.2051846  34.6389631
  26.5557143  96.5306744  34.8985449  25.8788323  95.4183342  34.1262697
  17.7105395 104.2874185  46.9169820  17.0168866 103.8728138  46.4039774
  18.4578386 104.3294722  46.3203239  33.8470616  95.0780372  41.7824854
  33.2669285  95.7365176  41.4002907  33.5806548  94.2557717  41.3712272
  32.2974182  94.4785430  43.9846175  32.7973960  94.5901964  43.1760493
  32.9409790  94.1746483  44.6246983  26.3556178 102.3864060  56.8714016
  25.8723259 103.1864420  57.0777905  26.4417117 102.3972004  55.9181460
  19.6242137 104.2192439  44.7935835  19.6012825 104.3180126  43.8417718
  19.9342774 105.0657590  45.1153001  22.2829515 106.2768594  48.9082449
  23.2372769 106.2452537  48.8412381  22.0842039 105.8159218  49.7232675
  22.8728897 104.8469710  51.4753247  23.6921786 105.3413789  51.4988084
  23.1465705 103.9301678  51.4470815  32.6295494  97.2380463  40.8381203
  31.7421349  97.5230113  40.6201397  33.0449483  97.0774226  39.9908479
  35.9810030  97.2626984  44.5535542  36.7570420  97.7523436  44.8260159
  35.2558164  97.6885038  45.0107411  38.4182588  97.9754603  45.6109482
  39.0127079  97.7350339  44.9002791  38.4909172  97.2561733  46.2383019
  20.6379744 111.8188214  45.9252647  20.5034212 111.0588615  45.3590645
  20.2211806 112.5429114  45.4581436  31.7738707 107.0025137  34.9329223
  32.4774557 107.2075140  35.5486878  31.0501356 107.5701899  35.1978306
  32.6036517 102.7534999  41.0531493  32.5471719 103.2103550  40.2139125
  33.1564860 101.9925683  40.8754335  36.4141323  98.5424730  41.8781612
  36.1578257  98.1421366  42.7089820  35.7894191  99.2568524  41.7531751
  40.7253661 101.2820804  44.3852904  40.1653219 101.3513993  45.1584466
  40.1197164 101.1061788  43.6652400  23.7948870 112.7157531  46.1371090
  23.6781254 113.6602963  46.0349780  22.9741316 112.4131092  46.5256889
  33.6825404 107.4407666  36.9827683  34.5171008 107.0088865  36.8005157
  33.5209747 107.2689680  37.9104577  33.3371297 103.9439780  38.3484022
  33.2820100 103.7784051  37.4072466  32.7117352 104.6515813  38.5046212
  18.1263812  99.1807844  52.1745444  18.7722675  98.6706798  52.6632669
  17.9180963  99.9176526  52.7488869  30.6517204 106.2488692  57.6737585
  31.5208363 106.4229344  57.3124220  30.1723955 107.0683108  57.5513314
  26.6467422  93.4447889  37.9269340  26.6346092  94.3889729  38.0837611
  27.5390844  93.2618034  37.6328802  24.8203384 113.3685793  49.3527018
  25.7230631 113.4009403  49.6693513  24.5940754 112.4386244  49.3673354
  26.5756986 112.1216779  46.0137097  25.6252617 112.1218641  45.9001469
  26.8789472 111.3749514  45.4973132  30.4619542  90.0390665  42.1815277
  29.6951937  89.4849152  42.3271959  30.8730247  90.1112534  43.0429429
  22.4661303  96.3275461  56.2720458  23.3292764  95.9712266  56.4823783
  21.8926713  95.9889356  56.9595863  42.3109680 117.9577318  47.0782859
  42.9488089 117.8384065  46.3746199  42.1930522 118.9058162  47.1370811
  39.1199386 117.9104746  47.0144384  38.7817897 117.7945810  46.1264919
  39.9889154 117.5095911  46.9945390  34.9786202 119.7640222  43.0041275
  34.4151067 119.6730159  42.2357563  34.8638597 118.9440127  43.4843768
  39.6019169 119.0639597  52.9730590  39.5907810 118.6692396  52.1011093
  39.7639808 118.3305670  53.5664361  32.5250633 121.2591414  45.8425495
  33.3171925 120.9182238  45.4271795  32.7647284 121.3686389  46.7627649
  40.5585760 123.4311190  38.3155740  39.9073740 124.0165270  37.9289754
  41.3530123 123.9617385  38.3750777  34.4841387 120.5200327  38.7142874
  35.2572263 119.9729314  38.5755750  34.8366786 121.3844576  38.9257336
  36.3226430 121.8476709  51.9209774  36.0316296 122.7522340  51.8056440
  36.9583414 121.8893237  52.6353843  37.2482637 119.2253558  48.5111133
  37.8446209 119.0009580  47.7968096  37.3057608 118.4838303  49.1136581
  36.8207665 116.6792993  36.3461324  37.0733186 116.1574514  35.5844787
  35.8832224 116.5159139  36.4488008  41.8650948 115.6828771  44.1536067
  42.6514037 115.2648195  43.8026484  42.1289652 116.5874864  44.3217716
  42.0361025 121.1201622  38.8524724  41.4006858 121.1936248  39.5645629
  41.7058432 121.7095221  38.1743803  47.2659375 115.6204005  45.0569046
  47.9984547 115.0503221  45.2906875  46.5098731 115.2325605  45.4975551
  36.5403954 118.5821099  38.5485699  36.4240212 117.9066002  39.2166783
  36.6506214 118.0953473  37.7317852  38.8835495 118.0431246  42.2532388
  38.5193702 117.5161867  42.9645310  39.7402611 117.6529715  42.0798874
  44.7884795 109.3325579  49.5163654  44.4568120 110.2020990  49.2924869
  44.1930409 109.0161863  50.1957685  38.5240982 113.0721146  37.2493737
  38.6915384 113.9401382  37.6164208  38.3338151 113.2348428  36.3255026
  41.2816315 121.5338125  48.9159567  40.9817038 122.4363164  48.8075374
  40.9367375 121.2670308  49.7680720  34.7328797 117.9851922  44.9496272
  33.8079293 117.8528136  45.1573963  34.9813210 118.7646141  45.4466214
  44.6813459 114.0520665  46.5957005  43.7730336 113.9836073  46.3015766
  44.6301055 114.5292610  47.4238830  38.5030203 115.5278803  38.2340404
  38.3829828 115.9735854  39.0725884  37.8082791 115.8764121  37.6753942
  32.0937608 117.6285195  45.7840061  32.2229989 117.8819674  46.6979472
  31.4135059 118.2212903  45.4644716  36.2637095 128.2982445  41.8830535
  36.1861125 129.2490270  41.9619015  35.6598738 127.9528318  42.5405461
  38.7554325 115.4710310  54.5391902  37.9787659 116.0304231  54.5294766
  39.3944888 115.9567093  55.0606772  46.5475105 112.2537103  48.3734878
  45.9049485 112.5469636  47.7274673  46.0430034 112.1390024  49.1788075
  44.2015269 116.0000277  39.0620738  45.1133125 116.2327663  38.8868435
  43.6924916 116.5837321  38.4995816  37.0100697 118.2795764  54.1009869
  37.7515381 118.8180808  53.8244692  36.3037682 118.9062053  54.2581421
  42.4856037 120.4224904  52.6982030  42.8939393 119.9807315  51.9536663
  41.7633298 119.8477532  52.9516223  38.8387107 115.3597511  50.0715587
  39.6848302 115.7836925  50.2150236  38.7785744 114.7031135  50.7654150
  42.8084851 120.9826095  46.4534319  42.1793714 121.1471809  45.7510387
  42.4210513 121.3967705  47.2245283  46.6874083 121.9180533  43.8078683
  46.0025121 122.2979434  43.2575716  46.7717932 122.5275859  44.5410631
  41.9886552 113.0201879  51.7296761  41.7447484 113.7743940  51.1931037
  42.2646482 113.3987227  52.5644008  43.9425015 119.5640492  50.4074026
  44.1541910 120.2072252  49.7308408  43.8954763 118.7302808  49.9395957
  41.5451244 112.1758312  47.3110599  40.6835723 112.4739566  47.6027336
  41.5713678 112.3928711  46.3791631  38.3612813 120.7200503  43.7184404
  38.8251159 120.9988206  42.9289027  38.0969611 119.8183948  43.5357495
  35.2536894 120.2671985  46.6564168  35.8238251 120.6959253  46.0181652
  35.8445006 119.9854569  47.3548353  37.2981699 116.8423655  40.5273969
  38.0005742 117.2944699  40.9947896  36.9662328 116.2007474  41.1553863
  35.7462061 115.4335412  54.9025179  35.1160721 116.1151693  55.1360576
  35.6398149 115.3218494  53.9578317  31.0407033 115.1007208  45.8291103
  30.2506087 115.3564737  45.3531214  31.5318280 115.9155546  45.9343144
  45.0570843 122.4412447  48.5796384  45.8788286 122.0392635  48.2979065
  45.0533246 122.3380681  49.5312500  32.9921778 115.4651787  42.7874580
  32.1952942 115.5770482  43.3058075  32.7647371 115.8038440  41.9215470
  38.8227446 121.9896491  50.7357094  38.8871879 122.4516898  51.5715266
  38.1138370 121.3593855  50.8639404  29.3244736 115.3537699  48.2606094
  29.5752774 116.2384708  48.5263670  29.8604284 115.1742300  47.4881186
  53.1476836 118.7851196  44.9281355  52.3940544 118.2158594  44.7725360
  53.2824377 118.7513860  45.8751990  38.5375464 123.6564598  40.6036075
  38.4021139 124.5016134  41.0320922  39.0785276 123.8583876  39.8402008
  35.0242803 109.7356178  57.2650430  34.6309749 109.1822376  57.9398074
  35.8408944 110.0466756  57.6556947  31.9904861 121.1740036  41.1764000
  32.5029382 121.9683286  41.3269564  32.6427574 120.4766327  41.1097601
  33.7999746 124.2905792  43.2586753  33.9766374 125.2123757  43.0707737
  34.5956579 123.9764212  43.6881133  37.9410764 111.1514057  54.8570686
  38.6820478 111.7521210  54.7775149  38.1728687 110.4091695  54.2988729
  33.0852102 116.3370424  53.1348916  32.9705618 115.4355681  53.4356015
  32.2296620 116.5834121  52.7833733  40.1643940 124.2788165  54.7336417
  39.7207794 123.4924543  54.4157321  40.8261154 124.4667315  54.0680308
  34.9231061 125.8083966  49.2597095  35.4738486 125.6801029  48.4874089
  34.0842537 126.1078855  48.9091988  42.2625178 124.5590964  52.7617818
  42.2443654 125.3799846  52.2698087  43.1845098 124.4345040  52.9867959
  38.7198232 122.0735094  53.6041326  39.2526569 121.3123382  53.3740634
  38.1912313 121.7808746  54.3465481  41.8867927 107.1795160  49.1334968
  41.5432197 108.0696802  49.0574079  42.2546890 106.9896818  48.2704553
  29.9553778 119.5028690  41.9523570  30.7929000 119.9125699  41.7357278
  30.1332046 118.5628133  41.9223764  41.8518210 117.1703771  37.6407403
  41.3364833 117.9408376  37.8795791  41.5795518 116.4968907  38.2640465
  39.4365321 112.0153472  42.6992642  38.5806917 111.6260322  42.5198280
  39.8492273 112.0945433  41.8392427  40.9664468 109.5499815  47.0984201
  40.4629263 109.5129950  46.2852007  41.2595075 110.4592558  47.1580858
  37.2107354 109.6338545  46.1050383  38.0760350 109.4381353  45.7456273
  37.2784862 109.4048897  47.0319740  46.8252484 119.9236126  39.5760577
  46.0481927 119.5847285  39.1315739  47.5043965 119.9288749  38.9015542
  41.6404513 115.0430863  39.4667184  41.3354649 115.3577012  40.3177328
  42.5934955 115.1212283  39.5094517  40.0850945 121.2021086  41.1160138
  39.5572307 120.4673846  40.8033376  39.5838448 121.9795763  40.8700107
  45.0643791 119.3970107  46.2327185  44.4067466 120.0869368  46.3207313
  45.8684190 119.7866539  46.5761171  34.8169673 111.8640753  43.4766750
  35.3913425 111.6415934  42.7439943  35.4040655 111.9329447  44.2295351
  43.8749250 117.7514480  44.2831126  44.3881132 118.3844471  44.7852836
  44.5250474 117.1515675  43.9174486  35.1439260 113.8945214  37.4962635
  34.3076572 114.2319900  37.8171910  35.0044029 113.7594194  36.5589772
  37.1192340 108.7382002  42.2041819  36.4656753 108.4231019  41.5798434
  37.0772815 108.1157742  42.9301642  38.2303545 119.0201297  34.1195111
  37.3230607 118.7890550  34.3186260  38.7274577 118.2238916  34.3069093
  41.1371624 127.7298804  37.0391798  40.4633323 128.0330501  37.6476755
  41.5237446 128.5327884  36.6897255  40.3530081 115.2263935  46.5289467
  39.4352642 115.4478882  46.3711155  40.7690224 115.3010246  45.6701174
  41.1365128 116.6255351  41.6592147  41.8836947 117.1376748  41.3499269
  41.4056718 116.3039404  42.5196541  39.4091779 119.1213892  38.6419102
  38.5002998 118.8372924  38.7391571  39.4386862 119.5412970  37.7822408
  44.6411046 122.7320481  42.4110269  44.1873373 121.8911391  42.4675460
  44.0105013 123.3681879  42.7485049  43.5843966 113.6612467  43.6410937
  42.8466722 113.1489853  43.9721179  43.8370739 113.2212849  42.8294213
  43.0843985 124.5696978  43.3460087  43.3766960 125.1302035  42.6272453
  43.5942606 124.8625539  44.1013246  43.6855593 106.4388719  44.2352706
  43.9914470 105.5786083  43.9478621  44.4108198 107.0306339  44.0351700
  29.9779949 116.8419406  42.6234304  29.7804349 116.2488766  41.8985370
  29.4226613 116.5371616  43.3410243  37.9576673 116.7342512  44.7428897
  38.0125282 115.7816349  44.6671373  37.1467875 116.8901951  45.2270195
  39.1067866 120.6622635  35.9807180  38.6687296 119.9458494  35.5212817
  39.8478307 120.8898750  35.4192271  35.8969033 115.3519572  42.5019276
  35.0836898 115.6513742  42.9084468  36.3928027 114.9575261  43.2193758
  38.0477611 125.3477329  44.4353540  38.0053789 125.5738175  43.5062072
  38.9640309 125.1140703  44.5839342  41.4943244 115.8161396  51.3334170
  41.8492632 116.0432870  52.1928635  42.1415376 116.1479773  50.7111425
  47.2240981 118.9379832  42.0383499  47.0858880 119.1281428  41.1104688
  46.8677200 119.6999215  42.4951550  35.3883107 112.9237927  48.1180511
  36.0282487 112.7826687  47.4203474  34.5560638 112.6372441  47.7419113
  47.2510361 121.0056359  47.0494770  47.6846868 120.9131648  47.8977824
  47.9641942 120.9813860  46.4114786  36.1643411 122.2240358  44.2315503
  36.9584010 121.7290678  44.0298078  35.4535104 121.6958221  43.8683209
  40.9838256 124.6058453  48.5827871  41.0375278 125.1749390  49.3505587
  40.1153037 124.7760338  48.2181908  32.4726175 116.3683440  40.3075256
  31.5423763 116.3067895  40.5245218  32.5683647 115.8459392  39.5111897
  32.3911724 112.8938252  42.8953497  32.6518541 113.8083586  42.7862658
  33.2128896 112.4262695  43.0450110  33.8636649 114.3076010  50.0652322
  34.5359703 114.0993372  49.4164971  33.0366436 114.1098096  49.6257554
  48.1125910 121.0480060  49.5827656  48.3061801 121.9525870  49.8286930
  48.0126529 120.5887479  50.4166241  39.7662221 110.9337951  52.0817983
  39.1190136 111.6327900  51.9882459  40.5363237 111.3674094  52.4494231
  43.1741019 121.1986803  55.1568536  43.0226526 120.9697354  54.2398620
  43.1645699 122.1557404  55.1699881  39.9426356 118.7718715  50.1414803
  40.8718416 118.9229875  49.9683770  39.5217386 118.8602736  49.2863449
  38.7414687 122.7969380  47.9113340  38.6025773 122.4288164  48.7839278
  37.9529284 123.3117019  47.7397298  39.3362839 127.8978476  39.2538877
  39.5114595 127.4266519  40.0684499  38.6495627 128.5244243  39.4820137
  40.2919902 122.1750983  45.3002178  39.9569735 122.1351753  46.1959828
  39.7923848 121.5095698  44.8272588  34.2664146 117.5818613  50.8254759
  34.1283944 116.8498851  51.4266298  35.1769070 117.4927513  50.5438947
  43.2279094 119.5207017  35.5739238  42.6108265 118.7953845  35.4772290
  42.7595583 120.2816377  35.2306312  36.8946447 117.2938572  50.3138439
  37.6046066 116.6531764  50.2725057  36.8515755 117.5451467  51.2364620
  44.8833226 124.2305925  53.2345018  44.8245772 123.5465145  52.5675601
  45.2852744 124.9724915  52.7825644  35.6075381 114.2803790  52.1334078
  35.0712738 113.8294528  52.7855675  35.0192089 114.4149699  51.3904543
  33.9023925 131.0467839  46.0278737  34.1420523 131.6786363  46.7057755
  33.0593121 130.6955879  46.3144096  35.0177640 113.7392441  34.6960542
  34.1407106 113.6181242  34.3322789  35.4935393 112.9478519  34.4439431
  44.8850633 122.1945509  51.4658998  43.9977412 121.8571431  51.5885397
  45.4549184 121.4628540  51.7027763  26.5379780 118.5269601  44.7902049
  27.2250820 118.2131331  44.2023064  26.3827909 119.4310966  44.5169301
  31.3414502 113.4159797  49.2187073  31.2572691 112.8085467  48.4837483
  30.5197209 113.9068816  49.2196569  38.4151786 126.8546962  48.4320241
  38.3421958 127.6601933  48.9439545  37.9729180 127.0538927  47.6068262
  38.2041566 126.0918732  41.9423062  37.4209088 126.6340412  42.0361287
  38.9034311 126.6092711  42.3417304  41.5138216 111.9013361  44.5857268
  42.0106916 111.1483323  44.2658338  40.7425198 111.9377678  44.0200477
  49.3667974 117.6053727  46.2275559  49.3557850 118.4878442  45.8569492
  48.4985353 117.2525277  46.0330096  40.8750470 126.7533796  50.5878400
  41.5878442 127.3881260  50.5154301  40.3840499 126.8497662  49.7718401
  42.5967997 120.6585048  42.1595691  41.6624276 120.7786511  41.9900396
  42.7744665 119.7557515  41.8955701  38.0973185 114.0430744  44.3128952
  37.7270972 113.4901784  45.0009858  38.5932277 113.4388877  43.7603952
  45.9840548 116.5002368  42.6945725  46.4501000 117.3330359  42.6206028
  46.4348049 116.0347349  43.3990984  35.9262383 124.5028239  51.4083970
  36.6271843 125.1364722  51.5613365  35.4557498 124.8442971  50.6479610
  44.0516779 122.8446189  39.6931877  44.3276623 122.7302783  40.6025752
  43.1821278 122.4463674  39.6544051  43.9557211 108.8682954  46.7336627
  43.0420291 109.0987181  46.9018834  44.3850312 108.9521399  47.5850659
  43.7263669 117.0572846  49.2336521  43.0735120 117.3048754  48.5788974
  44.1044049 116.2436985  48.8998998  40.6870843 127.0932540  43.3364691
  40.8693238 126.2754196  43.7992443  41.5103829 127.3100232  42.8989581
  41.0213009 126.0200725  40.5979740  41.5500775 125.5093179  39.9849902
  41.2841228 125.7043255  41.4625273  39.7751242 117.7992658  55.7202558
  39.0991879 117.6986787  56.3904933  40.5978876 117.6431871  56.1838555
  31.5230102 124.0364594  48.3415073  32.1083538 123.2908282  48.4742977
  31.3254940 124.3468551  49.2251737  34.3768757 127.0715841  43.3577515
  33.7079132 127.5561969  42.8741556  34.2381626 127.3185062  44.2720894
  26.1147756 116.6070194  47.0619516  26.1531856 116.0733785  47.8556634
  25.6088049 116.0805400  46.4430493  38.5174025 129.1059585  49.9560174
  39.0692333 129.2691206  50.7209259  38.8580219 129.6964023  49.2840199
  33.4938519 111.4534735  50.5582059  33.5579845 112.3149566  50.1459456
  33.4305639 110.8408736  49.8254417  32.9690791 113.5257867  54.2055093
  33.5962830 113.1434945  54.8192617  32.1118710 113.3072069  54.5710785
  43.3684900 123.9320842  55.8108828  43.9124804 124.5450801  55.3163783
  42.7871745 124.4900421  56.3275841  29.7456334 115.3334296  40.1373448
  30.0409775 114.4244975  40.0840501  28.8444370 115.3122036  39.8154450
  41.6542413 127.0541560  46.9423856  41.5293552 126.2531300  46.4334801
  42.3121504 127.5487754  46.4537826  33.2750581 113.4090293  46.1200996
  32.5537167 114.0226261  45.9808470  34.0643837 113.9448058  46.0417642
  43.7177321 124.8550581  48.5703406  42.7707657 124.7355932  48.4981733
  44.0660094 123.9673079  48.6529668  36.0776894 110.7444719  52.3941648
  36.6011296 110.9907016  53.1567957  35.8589228 111.5764754  51.9744785
  31.4744175 113.0148394  40.2612773  31.1456882 112.1345773  40.0787879
  31.8283546 112.9596063  41.1489162  40.7223754 124.6503297  44.7707758
  40.5748717 123.7220004  44.9515328  41.5477248 124.6723388  44.2864834
  34.5885999 113.3021364  40.6288250  34.9282071 113.8307285  39.9066859
  35.0358119 113.6401770  41.4046817  44.3257876 125.4731856  45.8572631
  45.2504424 125.2674717  45.7197082  44.1573180 125.2248257  46.7661973
  37.2829439 111.6858415  50.0791319  36.9426260 110.8866228  50.4811998
  36.5768446 111.9860125  49.5068152  37.9345911 108.7707727  48.5318642
  38.7571981 108.2968205  48.4097532  38.1783975 109.5498211  49.0317328
  36.5754146 111.7995985  38.8281543  37.2962508 112.1777238  38.3245260
  35.9519450 112.5184862  38.9316521  40.7185269 112.5041134  39.7639876
  40.9348883 113.3865772  39.4628704  40.2379336 112.1127348  39.0345518
  35.4584490 115.4626848  46.3410620  35.3129071 115.7767151  47.2334902
  34.9809694 116.0811748  45.7881519  37.3180873 112.4529396  46.3891510
  37.3042442 111.5570489  46.0523808  38.0353301 112.4600059  47.0229796
  39.1707004 112.8866736  48.4344637  38.9124781 113.8083807  48.4328968
  38.6392044 112.4897170  49.1245101  44.1153192 125.9917523  41.2134723
  44.2890070 125.4263945  40.4608575  44.6082084 126.7918418  41.0314212
  29.9330152 118.0032192  49.2798281  29.3883620 118.7792000  49.4118556
  30.8109502 118.3502997  49.1217403  36.7217769 111.3343776  41.6579080
  36.8433680 110.4060422  41.8569967  36.4319811 111.3482462  40.7457395
  39.5908959 109.0198686  44.7945800  39.6130656 109.0838019  43.8397779
  40.0077018 108.1803195  44.9886306  49.9692584 118.7553946  42.8325022
  50.4123730 118.0061271  42.4344146  49.0919094 118.7464082  42.4498754
  45.1028365 125.3084287  38.3131621  45.7979269 125.9290980  38.5318935
  45.4451515 124.4579639  38.5883999  30.7196174 117.1302088  52.1728438
  29.9777910 117.2784724  52.7593069  30.3988918 117.3910354  51.3095188
  47.0019788 122.7583993  39.8418952  47.5271112 123.0971266  39.1168272
  46.9142141 121.8231008  39.6582086  38.6639837 126.6718067  51.9708828
  38.9726963 126.4267213  52.8431528  39.4615319 126.8764705  51.4827698
  38.6860449 128.8255976  44.2014205  38.2465439 128.3332355  44.8947061
  39.4368566 128.2828944  43.9606280  31.1652788 125.0167517  44.2038833
  31.9910808 124.7171289  43.8237476  30.8146840 124.2475139  44.6528621
  36.1334321 124.3693985  46.2736506  35.5114330 123.7064690  45.9738734
  36.8039188 124.3955117  45.5910154  29.3661393 122.9353844  45.1627766
  28.5293301 122.5076018  44.9811768  29.3385038 123.1286287  46.0998558
  36.2058848 112.8475773  55.8669012  36.2547004 113.7237896  55.4846782
  36.7481363 112.3053166  55.2940656  46.6913694 123.3916897  55.1470150
  45.9009238 123.3741035  54.6074649  46.4547049 123.9305190  55.9019186
  46.8111569 120.2409363  52.4602878  46.8609574 120.0759370  53.4018401
  46.7025492 119.3736622  52.0700759  35.6947828 122.9197909  39.7494967
  35.8435948 123.6033373  39.0961640  36.5014271 122.9002999  40.2644423
  44.1015331 116.2240291  53.7762185  45.0025194 116.0846756  53.4846183
  44.1763306 116.3894746  54.7160362  38.4358137 113.6007146  52.6215371
  37.5661446 113.8940712  52.3497960  38.6717617 114.1847591  53.3422635
  48.3129766 122.6606304  52.7044900  48.0214574 123.0236285  53.5408361
  47.7001897 121.9473313  52.5258232  49.5125448 120.2259184  45.2247470
  50.3472340 120.6648988  45.3885030  49.6484577 119.7497837  44.4055716
  46.5616954 117.7838919  51.1724958  47.0371076 117.9766565  50.3643809
  45.6382520 117.8398105  50.9268341  33.4500461 118.9463086  40.7556036
  33.2046503 118.0425416  40.9536246  33.6196375 118.9480237  39.8135514
  41.1397171 109.8186763  50.1380791  41.6579114 110.5547790  49.8127280
  40.7852303 110.1250756  50.9727551  32.7196108 114.6791444  38.2542197
  32.0265353 114.7535799  37.5982233  32.4747860 113.9151787  38.7763714
  41.3909765 106.2387045  45.6581688  41.6711519 105.5710234  46.2842115
  42.1760372 106.4316141  45.1456352  39.1943233 125.4146039  37.2206714
  38.6217200 126.0336226  36.7677186  39.7676027 125.9645401  37.7546636
  45.2618623 114.6604679  49.4053263  46.2136046 114.7602777  49.4265487
  45.0922074 113.8682948  49.9151348  43.2833003 111.7460262  49.5912664
  42.6882935 112.0265275  48.8959153  42.9982699 112.2354163  50.3629405
  42.4140493 125.6983189  38.3515297  43.3471166 125.6328751  38.5548172
  42.3263706 126.5339456  37.8929829  45.0428510 125.0149060  35.3119244
  44.9642141 124.6808923  36.2055002  45.8638177 125.5070827  35.3110717
  47.7406701 117.8810799  48.5195563  47.7083021 116.9426800  48.7055247
  48.3507325 117.9594836  47.7861388  39.5790032 116.7506852  34.5622767
  40.5249137 116.6213060  34.6311185  39.2004277 116.0121514  35.0392195
  47.8901189 114.6721842  48.5653846  47.3740238 113.8880299  48.3783775
  48.7741138 114.3440559  48.7300366  45.5511916 108.4162858  44.5249659
  45.3536737 108.1077946  45.4092991  46.1611622 109.1424497  44.6547589
  53.5583251 118.9426806  47.6601600  54.2886639 118.6812094  48.2209303
  52.9490196 118.2055528  47.7003668  51.6398548 117.0834668  48.2576051
  50.9131711 116.9490633  47.6492542  51.2245835 117.3911497  49.0632769
  39.4628724 120.8024598  56.0223424  40.3831734 120.9803197  56.2163470
  39.4278307 119.8580643  55.8703123  37.7632949 114.6756828  34.4977652
  36.8564404 114.3789941  34.5740366  38.0408930 114.3786646  33.6311938
  28.6810889 115.9963192  44.9476699  28.3613674 115.1428500  44.6551073
  28.1344318 116.2111770  45.7034666  32.4590797 118.7125633  48.6646205
  32.6776807 119.6442740  48.6834239  32.8716571 118.3533607  49.4501009
  39.3795015 109.2193718  40.6521893  38.5695743 108.8740803  41.0277139
  40.0679432 108.9101262  41.2409505  41.3085563 108.2971765  42.2746190
  41.8616602 108.7167218  42.9336213  41.5455649 107.3707513  42.3169146
  37.3318662 114.2858838  58.0548954  37.2315389 115.2353195  57.9861045
  37.1140204 113.9577077  57.1825024  36.5331734 111.5343763  34.6389631
  37.3950898 111.8598662  34.8985449  36.7182078 110.7475259  34.1262697
  28.5499149 119.6166103  46.9169820  27.8562621 119.2020056  46.4039774
  29.2972140 119.6586640  46.3203239  44.6864370 110.4072290  41.7824854
  44.1063039 111.0657094  41.4002907  44.4200303 109.5849634  41.3712272
  43.1367936 109.8077348  43.9846175  43.6367715 109.9193882  43.1760493
  43.7803544 109.5038400  44.6246983  37.1949932 117.7155977  56.8714016
  36.7117014 118.5156337  57.0777905  37.2810871 117.7263922  55.9181460
  30.4635892 119.5484357  44.7935835  30.4406580 119.6472044  43.8417718
  30.7736528 120.3949508  45.1153001  33.1223270 121.6060512  48.9082449
  34.0766523 121.5744454  48.8412381  32.9235793 121.1451136  49.7232675
  33.7122652 120.1761628  51.4753247  34.5315541 120.6705707  51.4988084
  33.9859460 119.2593596  51.4470815  43.4689248 112.5672380  40.8381203
  42.5815103 112.8522031  40.6201397  43.8843237 112.4066144  39.9908479
  46.8203784 112.5918901  44.5535542  47.5964174 113.0815354  44.8260159
  46.0951918 113.0176955  45.0107411  49.2576343 113.3046520  45.6109482
  49.8520834 113.0642256  44.9002791  49.3302927 112.5853651  46.2383019
  31.4773499 127.1480131  45.9252647  31.3427966 126.3880532  45.3590645
  31.0605561 127.8721031  45.4581436  42.6132462 122.3317055  34.9329223
  43.3168312 122.5367057  35.5486878  41.8895110 122.8993817  35.1978306
  43.4430272 118.0826916  41.0531493  43.3865473 118.5395468  40.2139125
  43.9958614 117.3217601  40.8754335  47.2535078 113.8716648  41.8781612
  46.9972012 113.4713284  42.7089820  46.6287946 114.5860442  41.7531751
  51.5647416 116.6112721  44.3852904  51.0046974 116.6805911  45.1584466
  50.9590919 116.4353706  43.6652400  34.6342624 128.0449448  46.1371090
  34.5175009 128.9894881  46.0349780  33.8135071 127.7423010  46.5256889
  44.5219159 122.7699584  36.9827683  45.3564763 122.3380783  36.8005157
  44.3603502 122.5981598  37.9104577  44.1765051 119.2731697  38.3484022
  44.1213855 119.1075969  37.4072466  43.5511106 119.9807730  38.5046212
  28.9657566 114.5099762  52.1745444  29.6116430 113.9998716  52.6632669
  28.7574717 115.2468443  52.7488869  41.4910958 121.5780609  57.6737585
  42.3602118 121.7521262  57.3124220  41.0117710 122.3975026  57.5513314
  37.4861177 108.7739806  37.9269340  37.4739846 109.7181646  38.0837611
  38.3784598 108.5909952  37.6328802  35.6597139 128.6977710  49.3527018
  36.5624385 128.7301321  49.6693513  35.4334509 127.7678161  49.3673354
  37.4150741 127.4508697  46.0137097  36.4646372 127.4510558  45.9001469
  37.7183227 126.7041431  45.4973132  41.3013296 105.3682583  42.1815277
  40.5345692 104.8141070  42.3271959  41.7124001 105.4404452  43.0429429
  33.3055057 111.6567379  56.2720458  34.1686519 111.3004184  56.4823783
  32.7320468 111.3181274  56.9595863  53.1503434 133.2869235  47.0782859
  53.7881844 133.1675983  46.3746199  53.0324277 134.2350079  47.1370811
  49.9593140 133.2396663  47.0144384  49.6211652 133.1237728  46.1264919
  50.8282909 132.8387828  46.9945390  45.8179956 135.0932140  43.0041275
  45.2544821 135.0022077  42.2357563  45.7032351 134.2732044  43.4843768
  50.4412923 134.3931515  52.9730590  50.4301564 133.9984313  52.1011093
  50.6033563 133.6597588  53.5664361  43.3644388 136.5883331  45.8425495
  44.1565680 136.2474156  45.4271795  43.6041038 136.6978306  46.7627649
  51.3979515 138.7603107  38.3155740  50.7467494 139.3457188  37.9289754
  52.1923878 139.2909302  38.3750777  45.3235142 135.8492245  38.7142874
  46.0966018 135.3021232  38.5755750  45.6760541 136.7136494  38.9257336
  47.1620184 137.1768627  51.9209774  46.8710050 138.0814258  51.8056440
  47.7977169 137.2185154  52.6353843  48.0876391 134.5545475  48.5111133
  48.6839964 134.3301498  47.7968096  48.1451363 133.8130221  49.1136581
  47.6601420 132.0084911  36.3461324  47.9126940 131.4866432  35.5844787
  46.7225979 131.8451056  36.4488008  52.7044703 131.0120689  44.1536067
  53.4907792 130.5940112  43.8026484  52.9683407 131.9166781  44.3217716
  52.8754780 136.4493539  38.8524724  52.2400613 136.5228166  39.5645629
  52.5452186 137.0387138  38.1743803  58.1053130 130.9495922  45.0569046
  58.8378302 130.3795139  45.2906875  57.3492485 130.5617523  45.4975551
  47.3797708 133.9113017  38.5485699  47.2633967 133.2357920  39.2166783
  47.4899968 133.4245391  37.7317852  49.7229249 133.3723164  42.2532388
  49.3587457 132.8453785  42.9645310  50.5796365 132.9821633  42.0798874
  55.6278550 124.6617496  49.5163654  55.2961875 125.5312907  49.2924869
  55.0324163 124.3453780  50.1957685  49.3634736 128.4013063  37.2493737
  49.5309139 129.2693300  37.6164208  49.1731905 128.5640345  36.3255026
  52.1210070 136.8630042  48.9159567  51.8210793 137.7655081  48.8075374
  51.7761129 136.5962226  49.7680720  45.5722551 133.3143839  44.9496272
  44.6473047 133.1820053  45.1573963  45.8206964 134.0938058  45.4466214
  55.5207213 129.3812583  46.5957005  54.6124091 129.3127991  46.3015766
  55.4694809 129.8584528  47.4238830  49.3423957 130.8570721  38.2340404
  49.2223582 131.3027772  39.0725884  48.6476546 131.2056039  37.6753942
  42.9331362 132.9577113  45.7840061  43.0623743 133.2111592  46.6979472
  42.2528813 133.5504821  45.4644716  49.5948079 130.8002228  54.5391902
  48.8181413 131.3596148  54.5294766  50.2338642 131.2859011  55.0606772
  57.3868860 127.5829021  48.3734878  56.7443240 127.8761554  47.7274673
  56.8823788 127.4681941  49.1788075  55.0409023 131.3292194  39.0620738
  55.9526879 131.5619581  38.8868435  54.5318670 131.9129238  38.4995816
  47.8494451 133.6087682  54.1009869  48.5909136 134.1472726  53.8244692
  47.1431437 134.2353970  54.2581421  53.3249791 135.7516822  52.6982030
  53.7333147 135.3099233  51.9536663  52.6027053 135.1769450  52.9516223
  49.6780861 130.6889429  50.0715587  50.5242056 131.1128842  50.2150236
  49.6179499 130.0323053  50.7654150  53.6478606 136.3118013  46.4534319
  53.0187468 136.4763727  45.7510387  53.2604268 136.7259622  47.2245283
  57.5267838 137.2472450  43.8078683  56.8418876 137.6271352  43.2575716
  57.6111687 137.8567777  44.5410631  52.8280306 128.3493797  51.7296761
  52.5841238 129.1035858  51.1931037  53.1040237 128.7279145  52.5644008
  54.7818769 134.8932409  50.4074026  54.9935664 135.5364169  49.7308408
  54.7348517 134.0594726  49.9395957  52.3844998 127.5050230  47.3110599
  51.5229477 127.8031484  47.6027336  52.4107433 127.7220629  46.3791631
  49.2006568 136.0492421  43.7184404  49.6644913 136.3280124  42.9289027
  48.9363366 135.1475865  43.5357495  46.0930649 135.5963902  46.6564168
  46.6632006 136.0251171  46.0181652  46.6838760 135.3146487  47.3548353
  48.1375454 132.1715573  40.5273969  48.8399497 132.6236617  40.9947896
  47.8056082 131.5299392  41.1553863  46.5855815 130.7627330  54.9025179
  45.9554476 131.4443611  55.1360576  46.4791903 130.6510411  53.9578317
  41.8800788 130.4299126  45.8291103  41.0899842 130.6856654  45.3531214
  42.3712035 131.2447464  45.9343144  55.8964597 137.7704365  48.5796384
  56.7182041 137.3684552  48.2979065  55.8927000 137.6672599  49.5312500
  43.8315533 130.7943705  42.7874580  43.0346696 130.9062399  43.3058075
  43.6041125 131.1330357  41.9215470  49.6621201 137.3188408  50.7357094
  49.7265633 137.7808815  51.5715266  48.9532124 136.6885773  50.8639404
  40.1638491 130.6829616  48.2606094  40.4146529 131.5676626  48.5263670
  40.6998039 130.5034218  47.4881186  63.9870590 134.1143113  44.9281355
  63.2334299 133.5450511  44.7725360  64.1218131 134.0805778  45.8751990
  49.3769218 138.9856516  40.6036075  49.2414893 139.8308051  41.0320922
  49.9179031 139.1875793  39.8402008  45.8636558 125.0648096  57.2650430
  45.4703503 124.5114294  57.9398074  46.6802698 125.3758674  57.6556947
  42.8298616 136.5031954  41.1764000  43.3423136 137.2975204  41.3269564
  43.4821328 135.8058244  41.1097601  48.7804519 126.4805975  54.8570686
  49.5214232 127.0813128  54.7775149  49.0122442 125.7383612  54.2988729
  43.9245857 131.6662342  53.1348916  43.8099372 130.7647599  53.4356015
  43.0690375 131.9126039  52.7833733  51.0037695 139.6080082  54.7336417
  50.5601549 138.8216461  54.4157321  51.6654908 139.7959233  54.0680308
  53.1018933 139.8882882  52.7617818  53.0837408 140.7091763  52.2698087
  54.0238853 139.7636957  52.9867959  49.5591987 137.4027012  53.6041326
  50.0920324 136.6415300  53.3740634  49.0306068 137.1100663  54.3465481
  52.7261682 122.5087078  49.1334968  52.3825951 123.3988719  49.0574079
  53.0940644 122.3188735  48.2704553  40.7947532 134.8320608  41.9523570
  41.6322754 135.2417616  41.7357278  40.9725800 133.8920050  41.9223764
  52.6911965 132.4995689  37.6407403  52.1758588 133.2700293  37.8795791
  52.4189273 131.8260825  38.2640465  50.2759076 127.3445389  42.6992642
  49.4200672 126.9552240  42.5198280  50.6886027 127.4237350  41.8392427
  51.8058222 124.8791733  47.0984201  51.3023018 124.8421868  46.2852007
  52.0988829 125.7884475  47.1580858  48.0501108 124.9630462  46.1050383
  48.9154105 124.7673271  45.7456273  48.1178617 124.7340814  47.0319740
  57.6646239 135.2528043  39.5760577  56.8875681 134.9139203  39.1315739
  58.3437720 135.2580667  38.9015542  52.4798268 130.3722781  39.4667184
  52.1748403 130.6868930  40.3177328  53.4328710 130.4504201  39.5094517
  50.9244700 136.5313004  41.1160138  50.3966061 135.7965764  40.8033376
  50.4232202 137.3087680  40.8700107  55.9037546 134.7262025  46.2327185
  55.2461220 135.4161286  46.3207313  56.7077945 135.1158457  46.5761171
  45.6563427 127.1932670  43.4766750  46.2307179 126.9707852  42.7439943
  46.2434410 127.2621365  44.2295351  54.7143004 133.0806397  44.2831126
  55.2274886 133.7136389  44.7852836  55.3644228 132.4807593  43.9174486
  45.9833014 129.2237131  37.4962635  45.1470327 129.5611818  37.8171910
  45.8437784 129.0886111  36.5589772  47.9586095 124.0673919  42.2041819
  47.3050507 123.7522936  41.5798434  47.9166569 123.4449660  42.9301642
  49.0697300 134.3493214  34.1195111  48.1624361 134.1182468  34.3186260
  49.5668332 133.5530834  34.3069093  51.1923835 130.5555853  46.5289467
  50.2746397 130.7770800  46.3711155  51.6083979 130.6302163  45.6701174
  51.9758883 131.9547269  41.6592147  52.7230702 132.4668666  41.3499269
  52.2450473 131.6331321  42.5196541  50.2485533 134.4505809  38.6419102
  49.3396752 134.1664842  38.7391571  50.2780617 134.8704888  37.7822408
  55.4804801 138.0612399  42.4110269  55.0267128 137.2203309  42.4675460
  54.8498767 138.6973797  42.7485049  54.4237720 128.9904385  43.6410937
  53.6860477 128.4781771  43.9721179  54.6764494 128.5504766  42.8294213
  53.9237740 139.8988895  43.3460087  54.2160714 140.4593953  42.6272453
  54.4336360 140.1917456  44.1013246  54.5249347 121.7680637  44.2352706
  54.8308224 120.9078000  43.9478621  55.2501952 122.3598257  44.0351700
  40.8173704 132.1711323  42.6234304  40.6198103 131.5780684  41.8985370
  40.2620368 131.8663534  43.3410243  48.7970427 132.0634430  44.7428897
  48.8519037 131.1108266  44.6671373  47.9861629 132.2193869  45.2270195
  49.9461621 135.9914553  35.9807180  49.5081051 135.2750412  35.5212817
  50.6872062 136.2190668  35.4192271  46.7362787 130.6811490  42.5019276
  45.9230653 130.9805660  42.9084468  47.2321781 130.2867178  43.2193758
  52.3336999 131.1453314  51.3334170  52.6886387 131.3724787  52.1928635
  52.9809130 131.4771691  50.7111425  58.0634736 134.2671750  42.0383499
  57.9252634 134.4573346  41.1104688  57.7070955 135.0291133  42.4951550
  46.2276862 128.2529845  48.1180511  46.8676241 128.1118604  47.4203474
  45.3954392 127.9664358  47.7419113  58.0904115 136.3348277  47.0494770
  58.5240622 136.2423566  47.8977824  58.8035696 136.3105777  46.4114786
  47.0037166 137.5532276  44.2315503  47.7977764 137.0582596  44.0298078
  46.2928858 137.0250139  43.8683209  51.8232010 139.9350371  48.5827871
  51.8769033 140.5041307  49.3505587  50.9546792 140.1052256  48.2181908
  43.3119929 131.6975357  40.3075256  42.3817517 131.6359813  40.5245218
  43.4077401 131.1751310  39.5111897  43.2305478 128.2230170  42.8953497
  43.4912296 129.1375503  42.7862658  44.0522651 127.7554613  43.0450110
  44.7030404 129.6367927  50.0652322  45.3753457 129.4285289  49.4164971
  43.8760190 129.4390013  49.6257554  58.9519665 136.3771978  49.5827656
  59.1455555 137.2817788  49.8286930  58.8520283 135.9179397  50.4166241
  50.6055976 126.2629868  52.0817983  49.9583891 126.9619818  51.9882459
  51.3756991 126.6966012  52.4494231  54.0134774 136.5278720  55.1568536
  53.8620280 136.2989272  54.2398620  54.0039453 137.4849322  55.1699881
  50.7820110 134.1010633  50.1414803  51.7112170 134.2521793  49.9683770
  50.3611140 134.1894654  49.2863449  49.5808442 138.1261298  47.9113340
  49.4419527 137.7580082  48.7839278  48.7923038 138.6408937  47.7397298
  51.1313657 137.5042900  45.3002178  50.7963490 137.4643670  46.1959828
  50.6317603 136.8387616  44.8272588  45.1057901 132.9110530  50.8254759
  44.9677699 132.1790769  51.4266298  46.0162824 132.8219430  50.5438947
  54.0672849 134.8498935  35.5739238  53.4502019 134.1245763  35.4772290
  53.5989337 135.6108295  35.2306312  47.7340202 132.6230490  50.3138439
  48.4439820 131.9823682  50.2725057  47.6909510 132.8743384  51.2364620
  55.7226980 139.5597843  53.2345018  55.6639526 138.8757063  52.5675601
  56.1246499 140.3016833  52.7825644  46.4469136 129.6095707  52.1334078
  45.9106493 129.1586446  52.7855675  45.8585844 129.7441616  51.3904543
  45.8571394 129.0684359  34.6960542  44.9800861 128.9473160  34.3322789
  46.3329148 128.2770437  34.4439431  55.7244388 137.5237427  51.4658998
  54.8371166 137.1863349  51.5885397  56.2942939 136.7920458  51.7027763
  37.3773535 133.8561519  44.7902049  38.0644574 133.5423249  44.2023064
  37.2221663 134.7602883  44.5169301  42.1808257 128.7451715  49.2187073
  42.0966446 128.1377385  48.4837483  41.3590963 129.2360733  49.2196569
  52.3531971 127.2305279  44.5857268  52.8500670 126.4775241  44.2658338
  51.5818952 127.2669595  44.0200477  60.2061728 132.9345644  46.2275559
  60.1951604 133.8170360  45.8569492  59.3379107 132.5817195  46.0330096
  53.4361751 135.9876966  42.1595691  52.5018030 136.1078428  41.9900396
  53.6138420 135.0849433  41.8955701  48.9366939 129.3722662  44.3128952
  48.5664727 128.8193702  45.0009858  49.4326032 128.7680795  43.7603952
  56.8234303 131.8294285  42.6945725  57.2894755 132.6622277  42.6206028
  57.2741803 131.3639267  43.3990984  54.8910534 138.1738106  39.6931877
  55.1670378 138.0594701  40.6025752  54.0215033 137.7755591  39.6544051
  54.7950965 124.1974872  46.7336627  53.8814045 124.4279099  46.9018834
  55.2244067 124.2813316  47.5850659  54.5657424 132.3864764  49.2336521
  53.9128874 132.6340672  48.5788974  54.9437804 131.5728902  48.8998998
  50.6144997 133.1284575  55.7202558  49.9385634 133.0278705  56.3904933
  51.4372631 132.9723789  56.1838555  36.9541511 131.9362112  47.0619516
  36.9925610 131.4025703  47.8556634  36.4481804 131.4097317  46.4430493
  44.3332273 126.7826652  50.5582059  44.3973600 127.6441483  50.1459456
  44.2699393 126.1700654  49.8254417  43.8084546 128.8549785  54.2055093
  44.4356584 128.4726862  54.8192617  42.9512464 128.6363987  54.5710785
  54.2078654 139.2612760  55.8108828  54.7518558 139.8742718  55.3163783
  53.6265499 139.8192339  56.3275841  40.5850088 130.6626214  40.1373448
  40.8803529 129.7536893  40.0840501  39.6838124 130.6413954  39.8154450
  44.1144335 128.7382211  46.1200996  43.3930921 129.3518178  45.9808470
  44.9037591 129.2739975  46.0417642  54.5571075 140.1842498  48.5703406
  53.6101411 140.0647849  48.4981733  54.9053849 139.2964996  48.6529668
  46.9170649 126.0736637  52.3941648  47.4405051 126.3198934  53.1567957
  46.6982982 126.9056672  51.9744785  42.3137930 128.3440312  40.2612773
  41.9850636 127.4637691  40.0787879  42.6677301 128.2887980  41.1489162
  51.5617509 139.9795214  44.7707758  51.4142471 139.0511922  44.9515328
  52.3871002 140.0015305  44.2864834  45.4279753 128.6313282  40.6288250
  45.7675826 129.1599203  39.9066859  45.8751874 128.9693688  41.4046817
  55.1651631 140.8023773  45.8572631  56.0898178 140.5966635  45.7197082
  54.9966934 140.5540174  46.7661973  48.1223194 127.0150332  50.0791319
  47.7820014 126.2158145  50.4811998  47.4162200 127.3152043  49.5068152
  48.7739666 124.0999645  48.5318642  49.5965735 123.6260123  48.4097532
  49.0177729 124.8790128  49.0317328  47.4147900 127.1287903  38.8281543
  48.1356263 127.5069156  38.3245260  46.7913204 127.8476780  38.9316521
  51.5579023 127.8333052  39.7639876  51.7742637 128.7157690  39.4628704
  51.0773090 127.4419266  39.0345518  46.2978244 130.7918765  46.3410620
  46.1522825 131.1059068  47.2334902  45.8203448 131.4103666  45.7881519
  48.1574627 127.7821313  46.3891510  48.1436196 126.8862407  46.0523808
  48.8747055 127.7891977  47.0229796  50.0100758 128.2158654  48.4344637
  49.7518536 129.1375724  48.4328968  49.4785798 127.8189088  49.1245101
  54.9546947 141.3209441  41.2134723  55.1283824 140.7555863  40.4608575
  55.4475838 142.1210336  41.0314212  40.7723907 133.3324110  49.2798281
  40.2277375 134.1083918  49.4118556  41.6503257 133.6794914  49.1217403
  47.5611523 126.6635694  41.6579080  47.6827434 125.7352340  41.8569967
  47.2713566 126.6774380  40.7457395  50.4302714 124.3490604  44.7945800
  50.4524411 124.4129937  43.8397779  50.8470773 123.5095113  44.9886306
  60.8086338 134.0845864  42.8325022  61.2517484 133.3353189  42.4344146
  59.9312848 134.0756000  42.4498754  55.9422119 140.6376205  38.3131621
  56.6373024 141.2582898  38.5318935  56.2845269 139.7871556  38.5883999
  41.5589929 132.4594006  52.1728438  40.8171665 132.6076641  52.7593069
  41.2382673 132.7202272  51.3095188  57.8413542 138.0875911  39.8418952
  58.3664867 138.4263183  39.1168272  57.7535895 137.1522926  39.6582086
  47.0452603 128.1767691  55.8669012  47.0940758 129.0529814  55.4846782
  47.5875117 127.6345084  55.2940656  57.5307449 138.7208814  55.1470150
  56.7402992 138.7032953  54.6074649  57.2940803 139.2597108  55.9019186
  57.6505324 135.5701281  52.4602878  57.7003328 135.4051288  53.4018401
  57.5419247 134.7028540  52.0700759  46.5341582 138.2489826  39.7494967
  46.6829703 138.9325291  39.0961640  47.3408026 138.2294916  40.2644423
  54.9409086 131.5532209  53.7762185  55.8418949 131.4138673  53.4846183
  55.0157060 131.7186663  54.7160362  49.2751891 128.9299063  52.6215371
  48.4055201 129.2232629  52.3497960  49.5111372 129.5139508  53.3422635
  59.1523520 137.9898222  52.7044900  58.8608329 138.3528203  53.5408361
  58.5395652 137.2765230  52.5258232  60.3519203 135.5551102  45.2247470
  61.1866094 135.9940906  45.3885030  60.4878332 135.0789755  44.4055716
  57.4010709 133.1130837  51.1724958  57.8764830 133.3058483  50.3643809
  56.4776274 133.1690023  50.9268341  44.2894215 134.2755004  40.7556036
  44.0440257 133.3717334  40.9536246  44.4590130 134.2772154  39.8135514
  51.9790925 125.1478680  50.1380791  52.4972869 125.8839707  49.8127280
  51.6246058 125.4542674  50.9727551  43.5589863 130.0083362  38.2542197
  42.8659108 130.0827716  37.5982233  43.3141615 129.2443705  38.7763714
  52.2303519 121.5678963  45.6581688  52.5105273 120.9002152  46.2842115
  53.0154126 121.7608058  45.1456352  56.1012378 129.9896597  49.4053263
  57.0529801 130.0894694  49.4265487  55.9315828 129.1974865  49.9151348
  54.1226757 127.0752180  49.5912664  53.5276689 127.3557193  48.8959153
  53.8376454 127.5646081  50.3629405  55.8822264 140.3440977  35.3119244
  55.8035896 140.0100841  36.2055002  56.7031931 140.8362745  35.3110717
  58.5800455 133.2102717  48.5195563  58.5476776 132.2718717  48.7055247
  59.1901079 133.2886753  47.7861388  50.4183786 132.0798770  34.5622767
  51.3642891 131.9504978  34.6311185  50.0398031 131.3413431  35.0392195
  58.7294944 130.0013760  48.5653846  58.2133993 129.2172217  48.3783775
  59.6134892 129.6732477  48.7300366  56.3905671 123.7454776  44.5249659
  56.1930492 123.4369864  45.4092991  57.0005376 124.4716414  44.6547589
  64.3977005 134.2718723  47.6601600  65.1280394 134.0104011  48.2209303
  63.7883951 133.5347445  47.7003668  62.4792302 132.4126586  48.2576051
  61.7525466 132.2782551  47.6492542  62.0639589 132.7203415  49.0632769
  50.3022479 136.1316516  56.0223424  51.2225488 136.3095115  56.2163470
  50.2672062 135.1872561  55.8703123  48.6026703 130.0048746  34.4977652
  47.6958159 129.7081859  34.5740366  48.8802684 129.7078564  33.6311938
  39.5204644 131.3255109  44.9476699  39.2007428 130.4720417  44.6551073
  38.9738072 131.5403687  45.7034666  43.2984551 134.0417550  48.6646205
  43.5170561 134.9734658  48.6834239  43.7110325 133.6825525  49.4501009
  50.2188769 124.5485636  40.6521893  49.4089497 124.2032721  41.0277139
  50.9073186 124.2393179  41.2409505  52.1479317 123.6263682  42.2746190
  52.7010356 124.0459136  42.9336213  52.3849404 122.6999431  42.3169146
  48.1712417 129.6150756  58.0548954  48.0709144 130.5645113  57.9861045
  47.9533959 129.2868995  57.1825024  47.3725488 126.8635681  34.6389631
  48.2344652 127.1890579  34.8985449  47.5575832 126.0767177  34.1262697
  39.3892904 134.9458021  46.9169820  38.6956375 134.5311974  46.4039774
  40.1365895 134.9878557  46.3203239  55.5258125 125.7364208  41.7824854
  54.9456794 126.3949012  41.4002907  55.2594057 124.9141552  41.3712272
  53.9761691 125.1369265  43.9846175  54.4761469 125.2485800  43.1760493
  54.6197299 124.8330318  44.6246983  48.0343687 133.0447895  56.8714016
  47.5510768 133.8448255  57.0777905  48.1204626 133.0555840  55.9181460
  41.3029646 134.8776275  44.7935835  41.2800334 134.9763962  43.8417718
  41.6130283 135.7241425  45.1153001  43.9617024 136.9352430  48.9082449
  44.9160278 136.9036372  48.8412381  43.7629548 136.4743053  49.7232675
  44.5516406 135.5053546  51.4753247  45.3709295 135.9997624  51.4988084
  44.8253214 134.5885514  51.4470815  54.3083003 127.8964298  40.8381203
  53.4208858 128.1813949  40.6201397  54.7236992 127.7358061  39.9908479
  57.6597539 127.9210819  44.5535542  58.4357929 128.4107271  44.8260159
  56.9345673 128.3468873  45.0107411  60.0970097 128.6338438  45.6109482
  60.6914588 128.3934174  44.9002791  60.1696681 127.9145569  46.2383019
  53.4526216 137.6608973  34.9329223  54.1562066 137.8658975  35.5486878
  52.7288865 138.2285735  35.1978306  54.2824026 133.4118834  41.0531493
  54.2259228 133.8687385  40.2139125  54.8352369 132.6509518  40.8754335
  58.0928832 129.2008566  41.8781612  57.8365766 128.8005201  42.7089820
  57.4681700 129.9152360  41.7531751  62.4041170 131.9404639  44.3852904
  61.8440728 132.0097828  45.1584466  61.7984673 131.7645624  43.6652400
  55.3612913 138.0991502  36.9827683  56.1958517 137.6672700  36.8005157
  55.1997256 137.9273516  37.9104577  55.0158806 134.6023615  38.3484022
  54.9607609 134.4367887  37.4072466  54.3904861 135.3099648  38.5046212
  39.8051321 129.8391680  52.1745444  40.4510184 129.3290633  52.6632669
  39.5968472 130.5760361  52.7488869  52.3304713 136.9072527  57.6737585
  53.1995872 137.0813179  57.3124220  51.8511464 137.7266944  57.5513314
  48.3254931 124.1031724  37.9269340  48.3133601 125.0473564  38.0837611
  49.2178353 123.9201870  37.6328802  52.1407051 120.6974501  42.1815277
  51.3739446 120.1432987  42.3271959  52.5517755 120.7696370  43.0429429
  44.1448812 126.9859297  56.2720458  45.0080273 126.6296101  56.4823783
  43.5714222 126.6473191  56.9595863  68.9446884 146.2787840  45.0569046
  69.6772056 145.7087057  45.2906875  68.1886240 145.8909440  45.4975551
  66.4672304 139.9909414  49.5163654  66.1355629 140.8604825  49.2924869
  65.8717918 139.6745698  50.1957685  66.3600968 144.7104500  46.5957005
  65.4517845 144.6419909  46.3015766  66.3088564 145.1876445  47.4238830
  68.2262614 142.9120939  48.3734878  67.5836994 143.2053472  47.7274673
  67.7217543 142.7973859  49.1788075  63.6674061 143.6785715  51.7296761
  63.4234993 144.4327775  51.1931037  63.9433991 144.0571062  52.5644008
  63.2238753 142.8342148  47.3110599  62.3623232 143.1323401  47.6027336
  63.2501187 143.0512547  46.3791631  56.7030312 140.3940013  57.2650430
  56.3097258 139.8406212  57.9398074  57.5196453 140.7050592  57.6556947
  59.6198273 141.8097892  54.8570686  60.3607987 142.4105045  54.7775149
  59.8516196 141.0675530  54.2988729  63.5655436 137.8378995  49.1334968
  63.2219706 138.7280637  49.0574079  63.9334399 137.6480653  48.2704553
  61.1152830 142.6737307  42.6992642  60.2594426 142.2844158  42.5198280
  61.5279782 142.7529268  41.8392427  62.6451977 140.2083650  47.0984201
  62.1416772 140.1713786  46.2852007  62.9382584 141.1176393  47.1580858
  58.8894863 140.2922380  46.1050383  59.7547859 140.0965189  45.7456273
  58.9572371 140.0632732  47.0319740  56.4957182 142.5224588  43.4766750
  57.0700934 142.2999770  42.7439943  57.0828164 142.5913283  44.2295351
  58.7979849 139.3965837  42.2041819  58.1444262 139.0814854  41.5798434
  58.7560323 138.7741577  42.9301642  65.2631475 144.3196302  43.6410937
  64.5254231 143.8073689  43.9721179  65.5158248 143.8796684  42.8294213
  65.3643102 137.0972554  44.2352706  65.6701979 136.2369918  43.9478621
  66.0895707 137.6890175  44.0351700  61.4449730 141.5921786  52.0817983
  60.7977645 142.2911736  51.9882459  62.2150746 142.0257930  52.4494231
  63.1925725 142.5597196  44.5857268  63.6894425 141.8067159  44.2658338
  62.4212707 142.5961513  44.0200477  65.6344720 139.5266790  46.7336627
  64.7207800 139.7571017  46.9018834  66.0637821 139.6105234  47.5850659
  57.7564403 141.4028555  52.3941648  58.2798805 141.6490851  53.1567957
  57.5376737 142.2348590  51.9744785  58.9616948 142.3442250  50.0791319
  58.6213769 141.5450063  50.4811998  58.2555955 142.6443961  49.5068152
  59.6133420 139.4291562  48.5318642  60.4359490 138.9552041  48.4097532
  59.8571484 140.2082046  49.0317328  62.3972778 143.1624970  39.7639876
  62.6136392 144.0449608  39.4628704  61.9166845 142.7711183  39.0345518
  58.9968382 143.1113231  46.3891510  58.9829951 142.2154324  46.0523808
  59.7140810 143.1183895  47.0229796  58.4005278 141.9927611  41.6579080
  58.5221189 141.0644257  41.8569967  58.1107320 142.0066297  40.7457395
  61.2696468 139.6782522  44.7945800  61.2918165 139.7421855  43.8397779
  61.6864527 138.8387030  44.9886306  62.8184680 140.4770598  50.1380791
  63.3366623 141.2131625  49.8127280  62.4639812 140.7834591  50.9727551
  63.0697274 136.8970881  45.6581688  63.3499028 136.2294070  46.2842115
  63.8547881 137.0899976  45.1456352  66.9406132 145.3188515  49.4053263
  67.8923555 145.4186612  49.4265487  66.7709583 144.5266783  49.9151348
  64.9620512 142.4044098  49.5912664  64.3670444 142.6849110  48.8959153
  64.6770208 142.8937999  50.3629405  69.5688698 145.3305678  48.5653846
  69.0527747 144.5464134  48.3783775  70.4528647 145.0024394  48.7300366
  67.2299425 139.0746693  44.5249659  67.0324246 138.7661781  45.4092991
  67.8399131 139.8008332  44.6547589  73.3186057 147.7418504  48.2576051
  72.5919220 147.6074469  47.6492542  72.9033344 148.0495332  49.0632769
  61.0582524 139.8777553  40.6521893  60.2483252 139.5324638  41.0277139
  61.7466941 139.5685097  41.2409505  62.9873072 138.9555600  42.2746190
  63.5404111 139.3751054  42.9336213  63.2243158 138.0291348  42.3169146
  58.2119243 142.1927599  34.6389631  59.0738407 142.5182497  34.8985449
  58.3969587 141.4059095  34.1262697  66.3651879 141.0656125  41.7824854
  65.7850548 141.7240929  41.4002907  66.0987812 140.2433470  41.3712272
  64.8155445 140.4661183  43.9846175  65.3155224 140.5777717  43.1760493
  65.4591053 140.1622236  44.6246983  65.1476757 143.2256216  40.8381203
  64.2602612 143.5105866  40.6201397  65.5630746 143.0649979  39.9908479
  68.4991293 143.2502737  44.5535542  69.2751683 143.7399189  44.8260159
  67.7739427 143.6760791  45.0107411  70.9363852 143.9630356  45.6109482
  71.5308343 143.7226092  44.9002791  71.0090436 143.2437486  46.2383019
  68.9322587 144.5300483  41.8781612  68.6759521 144.1297119  42.7089820
  68.3075455 145.2444277  41.7531751  73.2434925 147.2696557  44.3852904
  72.6834483 147.3389746  45.1584466  72.6378428 147.0937541  43.6652400
  59.1648686 139.4323642  37.9269340  59.1527355 140.3765482  38.0837611
  60.0572107 139.2493787  37.6328802  62.9800805 136.0266418  42.1815277
  62.2133201 135.4724905  42.3271959  63.3911510 136.0988287  43.0429429
   0.5849998  35.2534944  37.1319333   0.7966893  35.8966704  36.4553714
   0.5379746  34.4197260  36.6641263   1.6995826  38.1306899  35.3041690
   2.5213270  37.7287086  35.0224372   1.6958229  38.0275133  36.2557806
   3.8935344  36.6950811  33.7740077   4.3271851  36.6026100  34.6223131
   4.6066925  36.6708312  33.1360093   4.7550894  36.7374512  36.3072962
   4.9486784  37.6420322  36.5532237   4.6551512  36.2781931  37.1411547
   1.5258209  39.9200377  39.9590325   1.4670755  39.2359597  39.2920908
   1.9277727  40.6619367  39.5070951   1.5275616  37.8839961  38.1904304
   0.6402395  37.5465883  38.3130703   2.0974167  37.1522992  38.4273070
   0.9682859  41.1626307  32.5817938   1.8929407  40.9569169  32.4442389
   0.7998163  40.9142709  33.4907279   3.3338677  39.0811348  41.8715456
   2.5434221  39.0635487  41.3319956   3.0972032  39.6199642  42.6264493
   3.4536552  35.9303815  39.1848185   3.5034557  35.7653822  40.1263707
   3.3450476  35.0631074  38.7946065   0.7440315  31.9134743  40.5007491
   1.6450178  31.7741208  40.2091489   0.8188289  32.0789198  41.4405669
   4.9554749  38.3500756  39.4290206   4.6639558  38.7130737  40.2653667
   4.3426880  37.6367765  39.2503538   3.2041937  33.4733371  37.8970264
   3.6796059  33.6661017  37.0889116   2.2807503  33.5292557  37.6513648
   4.3831684  33.5705251  35.2440869   4.3508004  32.6321251  35.4300553
   4.9932308  33.6489287  34.5106694  10.2008234  34.6321258  34.3846906
  10.9311623  34.3706546  34.9454610   9.5915180  33.8949980  34.4248974
   8.2823531  32.7729120  34.9821357   7.5556695  32.6385085  34.3737849
   7.8670818  33.0805949  35.7878076   9.7928417  48.9763687  33.8028166
  10.4306827  48.8570435  33.0991506   9.6749260  49.9244531  33.8616118
   6.6018124  48.9291115  33.7389691   6.2636635  48.8132180  32.8510226
   7.4707892  48.5282280  33.7190697   2.4604939  50.7826592  29.7286582
   1.8969804  50.6916529  28.9602869   2.3457334  49.9626496  30.2089074
   7.0837907  50.0825967  39.6975896   7.0726547  49.6878765  38.8256400
   7.2458546  49.3492040  40.2909668   8.0404498  54.4497559  25.0401047
   7.3892478  55.0351640  24.6535060   8.8348861  54.9803754  25.0996084
   1.9660125  51.5386697  25.4388181   2.7391001  50.9915684  25.3001057
   2.3185524  52.4030946  25.6502642   3.8045168  52.8663079  38.6455080
   3.5135034  53.7708710  38.5301747   4.4402152  52.9079606  39.3599150
   4.7301375  50.2439927  35.2356440   5.3264947  50.0195950  34.5213403
   4.7876346  49.5024673  35.8381888   9.3469686  46.7015141  30.8781374
  10.1332775  46.2834564  30.5271791   9.6108390  47.6061233  31.0463022
   9.5179763  52.1387991  25.5770031   8.8825596  52.2122618  26.2890935
   9.1877170  52.7281590  24.8989110  14.7478113  46.6390374  31.7814353
  15.4803285  46.0689591  32.0152182  13.9917469  46.2511975  32.2220858
   6.3654233  49.0617616  28.9777695   6.0012440  48.5348237  29.6890616
   7.2221349  48.6716085  28.8044180  12.2703533  40.3511948  36.2408961
  11.9386858  41.2207359  36.0170176  11.6749147  40.0348232  36.9202992
   8.7635053  52.5524494  35.6404874   8.4635776  53.4549533  35.5320681
   8.4186112  52.2856678  36.4926027   2.2147534  49.0038291  31.6741578
   1.2898031  48.8714505  31.8819270   2.4631948  49.7832510  32.1711521
  12.1632197  45.0707034  33.3202311  11.2549074  45.0022443  33.0261072
  12.1119792  45.5478979  34.1484137   3.7455833  59.3168815  28.6075842
   3.6679862  60.2676640  28.6864322   3.1417476  58.9714687  29.2650768
   6.2373062  46.4896680  41.2637208   5.4606396  47.0490600  41.2540073
   6.8763625  46.9753463  41.7852079  14.0293843  43.2723473  35.0980185
  13.3868223  43.5656006  34.4519980  13.5248772  43.1576393  35.9033382
  11.6834007  47.0186646  25.7866044  12.5951863  47.2514033  25.6113742
  11.1743654  47.6023690  25.2241123   4.4919435  49.2982133  40.8255175
   5.2334119  49.8367177  40.5489999   3.7856420  49.9248422  40.9826727
   9.9674774  51.4411274  39.4227337  10.3758130  50.9993684  38.6781969
   9.2452036  50.8663901  39.6761530   6.3205844  46.3783881  36.7960894
   7.1667040  46.8023294  36.9395543   6.2604482  45.7217505  37.4899457
  10.2903589  52.0012465  33.1779626   9.6612451  52.1658179  32.4755694
   9.9029251  52.4154074  33.9490590  14.1692821  52.9366902  30.5323990
  13.4843859  53.3165804  29.9821023  14.2536670  53.5462229  31.2655937
   9.4705290  44.0388249  38.4542068   9.2266222  44.7930310  37.9176343
   9.7465220  44.4173597  39.2889315  11.4243752  50.5826861  37.1319333
  11.6360648  51.2258621  36.4553714  11.3773501  49.7489178  36.6641263
   9.0269981  43.1944682  34.0355905   8.1654460  43.4925936  34.3272643
   9.0532416  43.4115081  33.1036938   5.8431551  51.7386873  30.4429711
   6.3069896  52.0174576  29.6534333   5.5788349  50.8370317  30.2602802
   2.7355632  51.2858354  33.3809474   3.3056989  51.7145623  32.7426959
   3.3263744  51.0040939  34.0793660   4.7800437  47.8610025  27.2519276
   5.4824480  48.3131069  27.7193202   4.4481065  47.2193844  27.8799169
   3.2280798  46.4521782  41.6270485   2.5979459  47.1338062  41.8605882
   3.1216886  46.3404863  40.6823624  12.5389580  53.4598817  35.3041690
  13.3607024  53.0579004  35.0224372  12.5351983  53.3567051  36.2557806
   6.3046184  53.0082860  37.4602401   6.3690616  53.4703267  38.2960573
   5.5957108  52.3780225  37.5884711  20.6295573  49.8037565  31.6526662
  19.8759282  49.2344963  31.4970666  20.7643115  49.7700230  32.5997297
   6.0194202  54.6750968  27.3281381   5.8839876  55.5202503  27.7566229
   6.5604014  54.8770245  26.5647315   2.5061541  40.7542547  43.9895737
   2.1128487  40.2008746  44.6643381   3.3227681  41.0653126  44.3802254
   1.2818484  55.3092162  29.9832060   1.4585112  56.2310127  29.7953043
   2.0775317  54.9950581  30.4126439   5.4229502  42.1700427  41.5815993
   6.1639216  42.7707580  41.5020456   5.6547425  41.4278064  41.0234036
   7.6462678  55.2974534  41.4581723   7.2026532  54.5110913  41.1402628
   8.3079891  55.4853685  40.7925614   2.4049799  56.8270336  35.9842402
   2.9557224  56.6987399  35.2119396   1.5661275  57.1265225  35.6337295
   9.7443916  55.5777334  39.4863125   9.7262391  56.3986215  38.9943394
  10.6663836  55.4531409  39.7113266   6.2016970  53.0921464  40.3286633
   6.7345307  52.3309752  40.0985941   5.6731051  52.7995115  41.0710788
   9.3686665  38.1981529  35.8580275   9.0250934  39.0883171  35.7819385
   9.7365628  38.0083187  34.9949860   9.3336948  48.1890141  24.3652710
   8.8183571  48.9594745  24.6041097   9.0614256  47.5155277  24.9885771
   6.9184059  43.0339841  29.4237948   6.0625655  42.6446692  29.2443587
   7.3311011  43.1131802  28.5637734   8.4483205  40.5686185  33.8229508
   7.9448001  40.5316320  33.0097313   8.7413812  41.4778927  33.8826165
   4.6926091  40.6524914  32.8295690   5.5579088  40.4567723  32.4701579
   4.7603600  40.4235266  33.7565047  14.3071222  50.9422495  26.3005883
  13.5300665  50.6033655  25.8561045  14.9862703  50.9475118  25.6260848
   9.1223251  46.0617233  26.1912491   8.8173387  46.3763382  27.0422634
  10.0753693  46.1398653  26.2339824   7.5669683  52.2207456  27.8405445
   7.0391044  51.4860216  27.5278682   7.0657186  52.9982132  27.5945413
  12.5462529  50.4156476  32.9572491  11.8886203  51.1055738  33.0452620
  13.3502928  50.8052908  33.3006478  11.3567988  48.7700849  31.0076433
  11.8699869  49.4030841  31.5098143  12.0069212  48.1702045  30.6419793
   8.6190362  58.7485173  23.7637104   7.9452061  59.0516870  24.3722062
   9.0056184  59.5514254  23.4142561   7.8348819  46.2450305  33.2534774
   6.9171380  46.4665252  33.0956462   8.2508962  46.3196615  32.3946481
   8.6183866  47.6441720  28.3837454   9.3655685  48.1563118  28.0744576
   8.8875456  47.3225773  29.2441847   6.8910516  50.1400261  25.3664408
   5.9821736  49.8559294  25.4636878   6.9205600  50.5599340  24.5067715
  12.1229784  53.7506851  29.1355576  11.6692111  52.9097761  29.1920766
  11.4923751  54.3868249  29.4730356  11.0662703  44.6798837  30.3656243
  10.3285460  44.1676223  30.6966486  11.3189477  44.2399218  29.5539520
  10.5662723  55.5883347  30.0705394  10.8585697  56.1488404  29.3517759
  11.0761344  55.8811908  30.8258553  11.1674331  37.4575089  30.9598012
  11.4733208  36.5972452  30.6723928  11.8926936  38.0492709  30.7597006
   5.4395411  47.7528882  31.4674204   5.4944020  46.8002718  31.3916680
   4.6286613  47.9088321  31.9515502   3.3787770  46.3705941  29.2264582
   2.5655636  46.6700112  29.6329775   3.8746765  45.9761630  29.9439065
   5.5296348  56.3663698  31.1598847   5.4872527  56.5924545  30.2307379
   6.4459047  56.1327073  31.3084648   8.9761982  46.8347766  38.0579476
   9.3311370  47.0619239  38.9173942   9.6234113  47.1666143  37.4356732
  14.7059719  49.9566202  28.7628805  14.5677618  50.1467798  27.8349995
  14.3495938  50.7185585  29.2196856   2.8701845  43.9424297  34.8425817
   3.5101225  43.8013056  34.1448781   2.0379376  43.6558810  34.4664419
  14.7329099  52.0242729  33.7740077  15.1665605  51.9318018  34.6223131
  15.4460679  52.0000229  33.1360093   3.6462149  53.2426727  30.9560810
   4.4402748  52.7477048  30.7543385   2.9353841  52.7144591  30.5928515
   8.4656994  55.6244823  35.3073177   8.5194016  56.1935759  36.0750893
   7.5971775  55.7946708  34.9427215   1.3455387  45.3262379  36.7897629
   2.0178440  45.1179741  36.1410278   0.5185173  45.1284465  36.3502861
  15.5944648  52.0666429  36.3072962  15.7880538  52.9712240  36.5532237
  15.4945266  51.6073849  37.1411547   7.2480959  41.9524320  38.8063290
   6.6008874  42.6514270  38.7127766   8.0181974  42.3860464  39.1739538
  10.6559757  52.2173172  41.8813843  10.5045263  51.9883724  40.9643927
  10.6464436  53.1743774  41.8945188   7.4245093  49.7905085  36.8660109
   8.3537153  49.9416245  36.6929077   7.0036123  49.8789106  36.0108756
   6.2233425  53.8155749  34.6358647   6.0844511  53.4474534  35.5084585
   5.4348021  54.3303389  34.4642605   6.8181577  58.9164846  25.9784183
   6.9933333  58.4452889  26.7929806   6.1314365  59.5430612  26.2065444
   7.7738640  53.1937352  32.0247485   7.4388473  53.1538122  32.9205135
   7.2742586  52.5282068  31.5517895   1.7482884  48.6004982  37.5500066
   1.6102682  47.8685221  38.1511605   2.6587808  48.5113882  37.2684254
   4.3765185  48.3124941  37.0383745   5.0864803  47.6718134  36.9970364
   4.3334493  48.5637836  37.9609926  12.3651964  55.2492295  39.9590325
  12.3064510  54.5651515  39.2920908  12.7671482  55.9911285  39.5070951
   3.0894119  45.2990159  38.8579385   2.5531476  44.8480898  39.5100981
   2.5010827  45.4336068  38.1149849   1.3842662  62.0654209  32.7524044
   1.6239261  62.6972733  33.4303062   0.5411859  61.7142249  33.0389403
  12.3669371  53.2131879  38.1904304  11.4796150  52.8757801  38.3130703
  12.9367922  52.4814910  38.4273070   5.8970524  57.8733331  35.1565548
   5.8240696  58.6788303  35.6684852   5.4547917  58.0725297  34.3313569
   5.6860304  57.1105101  28.6668369   4.9027826  57.6526781  28.7606594
   6.3853049  57.6279081  29.0662610   8.9956954  42.9199731  31.3102575
   9.4925653  42.1669693  30.9903645   8.2243935  42.9564047  30.7445784
  16.8486711  48.6240096  32.9520866  16.8376588  49.5064812  32.5814799
  15.9804091  48.2711647  32.7575403   8.3569208  57.7720165  37.3123706
   9.0697180  58.4067630  37.2399608   7.8659236  57.8684031  36.4963708
  10.0786735  51.6771418  28.8840998   9.1443013  51.7972880  28.7145702
  10.2563403  50.7743885  28.6201008   5.5791923  45.0617114  31.0374259
   5.2089710  44.5088154  31.7255165   6.0751015  44.4575247  30.4849259
  13.4659286  47.5188737  29.4191032  13.9319738  48.3516729  29.3451335
  13.9166786  47.0533719  30.1236291   3.4081121  55.5214609  38.1329277
   4.1090581  56.1551092  38.2858671   2.9376236  55.8629340  37.3724916
  11.5335517  53.8632558  26.4177184  11.8095361  53.7489153  27.3271058
  10.6640016  53.4650043  26.3789357  11.4375949  39.8869324  33.4581933
  10.5239029  40.1173551  33.6264140  11.8669050  39.9707768  34.3095966
  11.2082407  48.0759216  35.9581827  10.5553857  48.3235123  35.3034280
  11.5862787  47.2623354  35.6244305   8.1689581  58.1118909  30.0609998
   8.3511976  57.2940565  30.5237750   8.9922567  58.3286601  29.6234888
   8.5031747  57.0387094  27.3225046   9.0319513  56.5279549  26.7095208
   8.7659966  56.7229625  28.1870579   7.2569980  48.8179027  42.4447864
   6.5810617  48.7173156  43.1150240   8.0797614  48.6618241  42.9083862
   1.8587495  58.0902211  30.0822822   1.1897870  58.5748339  29.5986862
   1.7200364  58.3371431  30.9966201   5.9992763  60.1245955  36.6805480
   6.5511071  60.2877576  37.4454566   6.3398957  60.7150392  36.0085505
   0.9757256  42.4721104  37.2827365   1.0398583  43.3335935  36.8704763
   0.9124377  41.8595106  36.5499724  10.8503637  54.9507212  42.5354135
  11.3943541  55.5637170  42.0409090  10.2690482  55.5086790  43.0521148
   9.1361150  58.0727930  33.6669163   9.0112290  57.2717670  33.1580108
   9.7940242  58.5674123  33.1783133  11.1996059  55.8736950  35.2948713
  10.2526394  55.7542301  35.2227039  11.5478832  54.9859448  35.3774974
   3.5595632  41.7631089  39.1186955   4.0830034  42.0093386  39.8813264
   3.3407965  42.5951124  38.6990092   8.2042492  55.6689666  31.4953065
   8.0567455  54.7406374  31.6760635   9.0295986  55.6909757  31.0110140
  11.8076614  56.4918225  32.5817938  12.7323161  56.2861086  32.4442389
  11.6391917  56.2434626  33.4907279   4.7648177  42.7044784  36.8036625
   4.4244998  41.9052597  37.2057305   4.0587183  43.0046495  36.2313458
   5.4164649  39.7894097  35.2563948   6.2390718  39.3154575  35.1342839
   5.6602713  40.5684580  35.7562634   2.9403228  46.4813217  33.0655927
   2.7947808  46.7953520  33.9580208   2.4628431  47.0998118  32.5126825
   4.7999611  43.4715765  33.1136816   4.7861179  42.5756859  32.7769114
   5.5172039  43.4786429  33.7475102   6.6525741  43.9053105  35.1589944
   6.3943519  44.8270176  35.1574274   6.1210782  43.5083540  35.8490408
  11.5971930  57.0103893  27.9380029  11.7708808  56.4450315  27.1853882
  12.0900821  57.8104787  27.7559519   7.0727697  40.0385056  31.5191106
   7.0949394  40.1024389  30.5643086   7.4895756  39.1989565  31.7131612
  17.4511321  49.7740315  29.5570329  17.8942467  49.0247641  29.1589452
  16.5737832  49.7650452  29.1744061  12.5847103  56.3270657  25.0376927
  13.2798007  56.9477350  25.2564242  12.9270253  55.4766008  25.3129305
  14.4838526  53.7770362  26.5664258  15.0089850  54.1157635  25.8413578
  14.3960878  52.8417378  26.3827393   6.1458574  57.6904436  38.6954135
   6.4545701  57.4453583  39.5676834   6.9434056  57.8951075  38.2073005
   6.1679186  59.8442346  30.9259511   5.7284177  59.3518724  31.6192368
   6.9187303  59.3015313  30.6851587   3.6153059  55.3880355  32.9981813
   2.9933068  54.7251060  32.6984041   4.2857926  55.4141487  32.3155461
   3.6877586  43.8662143  42.5914319   3.7365742  44.7424266  42.2092089
   4.2300100  43.3239536  42.0185962  14.1732432  54.4103266  41.8715456
  13.3827976  54.3927405  41.3319956  13.9365786  54.9491560  42.6264493
  14.2930307  51.2595732  39.1848185  14.3428312  51.0945740  40.1263707
  14.1844230  50.3922992  38.7946065   3.1766566  53.9384278  26.4740274
   3.3254686  54.6219743  25.8206946   3.9833009  53.9189368  26.9889729
  11.5834069  47.2426661  40.5007491  12.4843932  47.1033125  40.2091489
  11.6582044  47.4081115  41.4405669   5.9176875  44.6193515  39.3460678
   5.0480184  44.9127081  39.0743266   6.1536355  45.2033960  40.0667941
  15.7948504  53.6792674  39.4290206  15.5033312  54.0422655  40.2653667
  15.1820635  52.9659682  39.2503538  16.9944186  51.2445554  31.9492776
  17.8291077  51.6835358  32.1130337  17.1303315  50.7684207  31.1301022
  14.0435692  48.8025289  37.8970264  14.5189814  48.9952935  37.0889116
  13.1201257  48.8584474  37.6513648   0.9319199  49.9649456  27.4801343
   0.6865240  49.0611786  27.6781553   1.1015113  49.9666606  26.5380821
   8.6215908  40.8373132  36.8626098   9.1397852  41.5734159  36.5372587
   8.2671041  41.1437125  37.6972857   8.8728503  37.2573415  32.3826995
   9.1530256  36.5896604  33.0087421   9.6579110  37.4502510  31.8701659
   6.6761971  56.4332409  23.9452021   6.1035938  57.0522596  23.4922493
   7.2494765  56.9831770  24.4791943  12.7437361  45.6791049  36.1298570
  13.6954784  45.7789146  36.1510794  12.5740811  44.8869317  36.6396654
  10.7651740  42.7646632  36.3157971  10.1701673  43.0451645  35.6204459
  10.4801437  43.2540533  37.0874712   9.8959231  56.7169559  25.0760603
  10.8289904  56.6515120  25.2793479   9.8082444  57.5525826  24.6175136
  12.5247248  56.0335429  22.0364551  12.4460879  55.6995293  22.9300309
  13.3456914  56.5257197  22.0356023  15.2225439  48.8997168  35.2440869
  15.1901759  47.9613169  35.4300553  15.8326062  48.9781205  34.5106694
  15.3719927  45.6908212  35.2899153  14.8558976  44.9066668  35.1029082
  16.2559876  45.3626928  35.4545672  13.0330654  39.4349227  31.2494965
  12.8355475  39.1264316  32.1338297  13.6430360  40.1610866  31.3792895
  21.0401989  49.9613175  34.3846906  21.7705377  49.6998463  34.9454610
  20.4308934  49.2241897  34.4248974  19.1217286  48.1021038  34.9821357
  18.3950449  47.9677003  34.3737849  18.7064573  48.4097866  35.7878076
   6.9447462  51.8210968  42.7468730   7.8650472  51.9989567  42.9408777
   6.9097045  50.8767013  42.5948430   4.8137400  45.3045208  44.7794261
   4.7134127  46.2539565  44.7106352   4.5958942  44.9763447  43.9070331
  12.1683108  41.4258659  28.5070161  11.5881777  42.0843463  28.1248213
  11.9019041  40.6036004  28.0957578  10.6186674  40.8263717  30.7091481
  11.1186453  40.9380252  29.9005800  11.2622282  40.5224770  31.3492290
   4.6768670  48.7342347  43.5959322   4.1935752  49.5342707  43.8023211
   4.7629609  48.7450292  42.6426766   0.6042008  52.6246881  35.6327756
   1.5585261  52.5930824  35.5657688   0.4054531  52.1637505  36.4477982
   1.1941390  51.1947998  38.1998554   2.0134279  51.6892076  38.2233391
   1.4678197  50.2779966  38.1716121  10.9507986  43.5858750  27.5626509
  10.0633841  43.8708400  27.3446704  11.3661975  43.4252513  26.7153786
  14.3022522  43.6105271  31.2780848  15.0782912  44.1001723  31.5505465
  13.5770656  44.0363325  31.7352718  16.7395081  44.3232890  32.3354789
  17.3339571  44.0828626  31.6248097  16.8121664  43.6040021  32.9628325
  10.0951199  53.3503425  21.6574529  10.7987049  53.5553427  22.2732185
   9.3713848  53.9180186  21.9223613  10.9249010  49.1013286  27.7776799
  10.8684211  49.5581837  26.9384432  11.4777352  48.3403970  27.5999642
  14.7353816  44.8903018  28.6026919  14.4790750  44.4899653  29.4335127
  14.1106684  45.6046812  28.4777058  19.0466153  47.6299091  31.1098210
  18.4865711  47.6992280  31.8829772  18.4409657  47.4540076  30.3897707
   2.1161362  59.0635818  32.8616397   1.9993746  60.0081250  32.7595087
   1.2953808  58.7609380  33.2502196  12.0037897  53.7885954  23.7072989
  12.8383501  53.3567152  23.5250464  11.8422240  53.6167967  24.6349884
  11.6583789  50.2918067  25.0729329  11.6032593  50.1262338  24.1317773
  11.0329844  50.9994100  25.2291518   8.9729696  52.5966979  44.3982891
   9.8420856  52.7707631  44.0369526   8.4936448  53.4161396  44.2758621
   3.1415876  59.7164080  36.0772325   4.0443123  59.7487690  36.3938820
   2.9153246  58.7864531  36.0918661   4.8969478  58.4695066  32.7382404
   3.9465109  58.4696928  32.6246776   5.2001964  57.7227801  32.2218438
  20.6322172  64.3055605  33.8028166  21.2700582  64.1862352  33.0991506
  20.5143015  65.2536449  33.8616118  17.4411878  64.2583033  33.7389691
  17.1030390  64.1424098  32.8510226  18.3101646  63.8574198  33.7190697
  13.2998694  66.1118509  29.7286582  12.7363559  66.0208446  28.9602869
  13.1851089  65.2918414  30.2089074  17.9231661  65.4117885  39.6975896
  17.9120302  65.0170683  38.8256400  18.0852301  64.6783957  40.2909668
  10.8463126  67.6069701  32.5670802  11.6384418  67.2660526  32.1517101
  11.0859776  67.7164676  33.4872955  18.8798253  69.7789477  25.0401047
  18.2286232  70.3643557  24.6535060  19.6742615  70.3095672  25.0996084
  12.8053880  66.8678614  25.4388181  13.5784756  66.3207601  25.3001057
  13.1579279  67.7322864  25.6502642  14.6438922  68.1954996  38.6455080
  14.3528788  69.1000627  38.5301747  15.2795907  68.2371524  39.3599150
  15.5695129  65.5731845  35.2356440  16.1658701  65.3487867  34.5213403
  15.6270101  64.8316590  35.8381888  15.1420157  63.0271280  23.0706631
  15.3945678  62.5052802  22.3090094  14.2044717  62.8637426  23.1733314
  20.1863440  62.0307059  30.8781374  20.9726530  61.6126482  30.5271791
  20.4502145  62.9353151  31.0463022  20.3573518  67.4679909  25.5770031
  19.7219351  67.5414535  26.2890935  20.0270924  68.0573508  24.8989110
  25.5871867  61.9682292  31.7814353  26.3197039  61.3981509  32.0152182
  24.8311223  61.5803892  32.2220858  14.8616446  64.9299386  25.2731006
  14.7452704  64.2544290  25.9412090  14.9718706  64.4431760  24.4563159
  17.2047987  64.3909533  28.9777695  16.8406194  63.8640154  29.6890616
  18.0615103  64.0008002  28.8044180  23.1097288  55.6803866  36.2408961
  22.7780613  56.5499277  36.0170176  22.5142901  55.3640150  36.9202992
  16.8453474  59.4199433  23.9739044  17.0127876  60.2879669  24.3409515
  16.6550643  59.5826715  23.0500333  19.6028807  67.8816412  35.6404874
  19.3029530  68.7841451  35.5320681  19.2579867  67.6148595  36.4926027
  13.0541289  64.3330209  31.6741578  12.1291785  64.2006423  31.8819270
  13.3025702  65.1124428  32.1711521  23.0025951  60.3998952  33.3202311
  22.0942828  60.3314361  33.0261072  22.9513547  60.8770897  34.1484137
  16.8242695  61.8757091  24.9585710  16.7042320  62.3214141  25.7971191
  16.1295283  62.2242408  24.3999248  10.4150100  63.9763482  32.5085367
  10.5442481  64.2297961  33.4224779   9.7347551  64.5691190  32.1890022
  14.5849587  74.6460732  28.6075842  14.5073617  75.5968557  28.6864322
  13.9811231  74.3006605  29.2650768  17.0766817  61.8188598  41.2637208
  16.3000151  62.3782518  41.2540073  17.7157380  62.3045381  41.7852079
  24.8687598  58.6015391  35.0980185  24.2261978  58.8947924  34.4519980
  24.3642526  58.4868311  35.9033382  22.5227761  62.3478564  25.7866044
  23.4345617  62.5805950  25.6113742  22.0137408  62.9315608  25.2241123
  15.3313189  64.6274051  40.8255175  16.0727874  65.1659095  40.5489999
  14.6250175  65.2540340  40.9826727  20.8068529  66.7703192  39.4227337
  21.2151885  66.3285602  38.6781969  20.0845790  66.1955819  39.6761530
  17.1599599  61.7075798  36.7960894  18.0060794  62.1315212  36.9395543
  17.0998237  61.0509423  37.4899457  21.1297343  67.3304382  33.1779626
  20.5006206  67.4950096  32.4755694  20.7423006  67.7445992  33.9490590
  25.0086575  68.2658820  30.5323990  24.3237614  68.6457721  29.9821023
  25.0930425  68.8754147  31.2655937  20.3099044  59.3680167  38.4542068
  20.0659976  60.1222227  37.9176343  20.5858975  59.7465514  39.2889315
  22.2637507  65.9118779  37.1319333  22.4754402  66.5550539  36.4553714
  22.2167255  65.0781096  36.6641263  19.8663736  58.5236600  34.0355905
  19.0048215  58.8217853  34.3272643  19.8926171  58.7406999  33.1036938
  16.6825305  67.0678790  30.4429711  17.1463651  67.3466493  29.6534333
  16.4182103  66.1662235  30.2602802  13.5749386  66.6150272  33.3809474
  14.1450743  67.0437540  32.7426959  14.1657498  66.3332857  34.0793660
  15.6194191  63.1901943  27.2519276  16.3218235  63.6422986  27.7193202
  15.2874820  62.5485762  27.8799169  14.0674553  61.7813699  41.6270485
  13.4373214  62.4629980  41.8605882  13.9610641  61.6696781  40.6823624
   9.3619525  61.4485495  32.5536410   8.5718579  61.7043024  32.0776520
   9.8530773  62.2633833  32.6588450  23.3783335  68.7890734  35.3041690
  24.2000779  68.3870922  35.0224372  23.3745738  68.6858969  36.2557806
  11.3134271  61.8130075  29.5119886  10.5165434  61.9248769  30.0303382
  11.0859863  62.1516727  28.6460777  17.1439938  68.3374778  37.4602401
  17.2084371  68.7995185  38.2960573  16.4350862  67.7072143  37.5884711
   7.6457228  61.7015986  34.9851400   7.8965267  62.5862996  35.2508976
   8.1816777  61.5220587  34.2126492  31.4689328  65.1329483  31.6526662
  30.7153036  64.5636881  31.4970666  31.6036869  65.0992147  32.5997297
  16.8587956  70.0042885  27.3281381  16.7233631  70.8494421  27.7566229
  17.3997769  70.2062163  26.5647315  13.3455296  56.0834465  43.9895737
  12.9522241  55.5300664  44.6643381  14.1621436  56.3945044  44.3802254
  10.3117353  67.5218323  27.9009306  10.8241874  68.3161574  28.0514871
  10.9640066  66.8244614  27.8342908  12.1212238  70.6384080  29.9832060
  12.2978866  71.5602044  29.7953043  12.9169072  70.3242499  30.4126439
  16.2623257  57.4992344  41.5815993  17.0032970  58.0999497  41.5020456
  16.4941179  56.7569982  41.0234036  11.4064595  62.6848711  39.8594223
  11.2918110  61.7833969  40.1601322  10.5509112  62.9312408  39.5079039
  18.4856432  70.6266452  41.4581723  18.0420287  69.8402830  41.1402628
  19.1473646  70.8145602  40.7925614  13.2443554  72.1562253  35.9842402
  13.7950979  72.0279317  35.2119396  12.4055029  72.4557142  35.6337295
  20.5837670  70.9069252  39.4863125  20.5656146  71.7278133  38.9943394
  21.5057591  70.7823327  39.7113266  17.0410725  68.4213381  40.3286633
  17.5739061  67.6601669  40.0985941  16.5124806  68.1287033  41.0710788
  20.2080420  53.5273447  35.8580275  19.8644689  54.4175089  35.7819385
  20.5759382  53.3375105  34.9949860   8.2766270  65.8506978  28.6768877
   9.1141492  66.2603986  28.4602585   8.4544538  64.9106420  28.6469071
  20.1730702  63.5182058  24.3652710  19.6577326  64.2886663  24.6041097
  19.9008011  62.8447194  24.9885771  17.7577813  58.3631759  29.4237948
  16.9019410  57.9738609  29.2443587  18.1704765  58.4423720  28.5637734
  19.2876960  55.8978102  33.8229508  18.7841756  55.8608237  33.0097313
  19.5807567  56.8070845  33.8826165  15.5319846  55.9816832  32.8295690
  16.3972843  55.7859641  32.4701579  15.5997355  55.7527184  33.7565047
  25.1464976  66.2714413  26.3005883  24.3694419  65.9325572  25.8561045
  25.8256457  66.2767036  25.6260848  19.9617005  61.3909150  26.1912491
  19.6567141  61.7055300  27.0422634  20.9147448  61.4690570  26.2339824
  18.4063437  67.5499374  27.8405445  17.8784799  66.8152133  27.5278682
  17.9050940  68.3274050  27.5945413  23.3856283  65.7448394  32.9572491
  22.7279958  66.4347656  33.0452620  24.1896683  66.1344826  33.3006478
  13.1382165  58.2119040  30.2012057  13.7125917  57.9894221  29.4685250
  13.7253147  58.2807734  30.9540658  22.1961742  64.0992767  31.0076433
  22.7093624  64.7322759  31.5098143  22.8462966  63.4993962  30.6419793
  13.4651752  60.2423501  24.2207942  12.6289064  60.5798188  24.5417217
  13.3256522  60.1072481  23.2835079  15.4404833  55.0860289  28.9287126
  14.7869245  54.7709306  28.3043741  15.3985307  54.4636029  29.6546949
  16.5516038  65.3679584  20.8440418  15.6443099  65.1368837  21.0431567
  17.0487069  64.5717203  21.0314400  19.4584116  74.0777091  23.7637104
  18.7845815  74.3808788  24.3722062  19.8449938  74.8806171  23.4142561
  18.6742573  61.5742222  33.2534774  17.7565134  61.7957169  33.0956462
  19.0902717  61.6488533  32.3946481  19.4577621  62.9733638  28.3837454
  20.2049440  63.4855035  28.0744576  19.7269210  62.6517691  29.2441847
  17.7304271  65.4692179  25.3664408  16.8215490  65.1851212  25.4636878
  17.7599355  65.8891257  24.5067715  22.9623538  69.0798768  29.1355576
  22.5085865  68.2389678  29.1920766  22.3317505  69.7160167  29.4730356
  21.9056458  60.0090754  30.3656243  21.1679215  59.4968141  30.6966486
  22.1583231  59.5691136  29.5539520  21.4056478  70.9175265  30.0705394
  21.6979452  71.4780322  29.3517759  21.9155098  71.2103826  30.8258553
  22.0068085  52.7867006  30.9598012  22.3126962  51.9264370  30.6723928
  22.7320690  53.3784627  30.7597006   8.2992441  63.1897693  29.3479610
   8.1016841  62.5967054  28.6230677   7.7439105  62.8849903  30.0655549
  16.2789165  63.0820799  31.4674204  16.3337775  62.1294636  31.3916680
  15.4680367  63.2380239  31.9515502  17.4280359  67.0100922  22.7052487
  16.9899789  66.2936781  22.2458124  18.1690800  67.2377037  22.1437578
  14.2181525  61.6997859  29.2264582  13.4049390  61.9992030  29.6329775
  14.7140519  61.3053548  29.9439065  16.3690103  71.6955616  31.1598847
  16.3266282  71.9216462  30.2307379  17.2852802  71.4618991  31.3084648
  19.8155737  62.1639684  38.0579476  20.1705124  62.3911157  38.9173942
  20.4627868  62.4958060  37.4356732  25.5453474  65.2858120  28.7628805
  25.4071372  65.4759715  27.8349995  25.1889692  66.0477502  29.2196856
  13.7095600  59.2716215  34.8425817  14.3494979  59.1304974  34.1448781
  12.8773130  58.9850728  34.4664419  25.5722853  67.3534647  33.7740077
  26.0059360  67.2609936  34.6223131  26.2854434  67.3292147  33.1360093
  14.4855904  68.5718645  30.9560810  15.2796502  68.0768965  30.7543385
  13.7747596  68.0436508  30.5928515  19.3050748  70.9536741  35.3073177
  19.3587770  71.5227677  36.0750893  18.4365529  71.1238626  34.9427215
  10.7938667  62.7161727  27.0320562   9.8636255  62.6546182  27.2490525
  10.8896139  62.1937680  26.2357204  10.7124216  59.2416540  29.6198804
  10.9731033  60.1561873  29.5107965  11.5341388  58.7740982  29.7695417
  12.1849141  60.6554297  36.7897629  12.8572195  60.4471659  36.1410278
  11.3578928  60.4576383  36.3502861  26.4338403  67.3958347  36.3072962
  26.6274293  68.3004158  36.5532237  26.3339021  66.9365766  37.1411547
  18.0874713  57.2816238  38.8063290  17.4402628  57.9806187  38.7127766
  18.8575729  57.7152382  39.1739538  21.4953511  67.5465090  41.8813843
  21.3439018  67.3175642  40.9643927  21.4858191  68.5035691  41.8945188
  18.2638848  65.1197003  36.8660109  19.1930908  65.2708162  36.6929077
  17.8429878  65.2081023  36.0108756  17.0627180  69.1447667  34.6358647
  16.9238265  68.7766451  35.5084585  16.2741776  69.6595307  34.4642605
  17.6575332  74.2456764  25.9784183  17.8327087  73.7744807  26.7929806
  16.9708120  74.8722530  26.2065444  18.6132395  68.5229270  32.0247485
  18.2782227  68.4830040  32.9205135  18.1136340  67.8573986  31.5517895
  12.5876639  63.9296900  37.5500066  12.4496437  63.1977139  38.1511605
  13.4981562  63.8405800  37.2684254  21.5491586  65.8685304  22.2984544
  20.9320757  65.1432132  22.2017597  21.0808075  66.6294664  21.9551619
  15.2158939  63.6416859  37.0383745  15.9258558  63.0010051  36.9970364
  15.1728248  63.8929754  37.9609926  23.2045718  70.5784212  39.9590325
  23.1458264  69.8943433  39.2920908  23.6065236  71.3203202  39.5070951
  13.9287873  60.6282077  38.8579385  13.3925230  60.1772815  39.5100981
  13.3404582  60.7627986  38.1149849  12.2236417  77.3946126  32.7524044
  12.4633015  78.0264650  33.4303062  11.3805613  77.0434166  33.0389403
  13.3390132  60.0870728  21.4205849  12.4619599  59.9659529  21.0568095
  13.8147885  59.2956807  21.1684737  23.2063125  68.5423796  38.1904304
  22.3189904  68.2049718  38.3130703  23.7761676  67.8106828  38.4273070
   4.8592272  64.8747888  31.5147356   5.5463312  64.5609618  30.9268371
   4.7040401  65.7789253  31.2414607   9.6626995  59.7638085  35.9432379
   9.5785183  59.1563754  35.2082789   8.8409701  60.2547103  35.9441876
  16.7364279  73.2025249  35.1565548  16.6634450  74.0080220  35.6684852
  16.2941672  73.4017215  34.3313569  16.5254058  72.4397019  28.6668369
  15.7421580  72.9818699  28.7606594  17.2246803  72.9570998  29.0662610
  19.8350708  58.2491648  31.3102575  20.3319408  57.4961611  30.9903645
  19.0637690  58.2855965  30.7445784  27.6880466  63.9532014  32.9520866
  27.6770342  64.8356729  32.5814799  26.8197845  63.6003565  32.7575403
  19.1962962  73.1012083  37.3123706  19.9090934  73.7359548  37.2399608
  18.7052991  73.1975949  36.4963708  20.9180489  67.0063335  28.8840998
  19.9836768  67.1264798  28.7145702  21.0957158  66.1035802  28.6201008
  16.4185677  60.3909031  31.0374259  16.0483465  59.8380072  31.7255165
  16.9144770  59.7867165  30.4849259  24.3053040  62.8480655  29.4191032
  24.7713493  63.6808646  29.3451335  24.7560541  62.3825636  30.1236291
  14.2474876  70.8506526  38.1329277  14.9484335  71.4843009  38.2858671
  13.7769991  71.1921258  37.3724916  22.3729272  69.1924476  26.4177184
  22.6489115  69.0781071  27.3271058  21.5033770  68.7941961  26.3789357
  22.2769703  55.2161242  33.4581933  21.3632783  55.4465469  33.6264140
  22.7062805  55.2999686  34.3095966  22.0476162  63.4051134  35.9581827
  21.3947612  63.6527041  35.3034280  22.4256542  62.5915272  35.6244305
  19.0083336  73.4410827  30.0609998  19.1905730  72.6232483  30.5237750
  19.8316322  73.6578519  29.6234888  19.3425501  72.3679012  27.3225046
  19.8713268  71.8571467  26.7095208  19.6053721  72.0521542  28.1870579
  18.0963735  64.1470945  42.4447864  17.4204372  64.0465074  43.1150240
  18.9191369  63.9910158  42.9083862   9.8442594  70.3842881  35.0660380
  10.4296031  69.6386569  35.1988284   9.6467432  70.6946838  35.9497044
  12.6981249  73.4194129  30.0822822  12.0291624  73.9040256  29.5986862
  12.5594119  73.6663349  30.9966201   4.4360249  62.9548482  33.7864823
   4.4744348  62.4212072  34.5801941   3.9300541  62.4283687  33.1675800
  16.8386518  75.4537872  36.6805480  17.3904826  75.6169494  37.4454566
  17.1792711  76.0442310  36.0085505  11.8151011  57.8013022  37.2827365
  11.8792337  58.6627853  36.8704763  11.7518131  57.1887024  36.5499724
  11.2903283  59.8736155  40.9300399  11.9175322  59.4913232  41.5437924
  10.4331202  59.6550356  41.2956092  21.6897392  70.2799130  42.5354135
  22.2337296  70.8929088  42.0409090  21.1084237  70.8378708  43.0521148
   8.0668826  61.6812584  26.8618754   8.3622267  60.7723262  26.8085808
   7.1656862  61.6600323  26.5399757  19.9754905  73.4019848  33.6669163
  19.8506044  72.6009588  33.1580108  20.6333996  73.8966041  33.1783133
  11.5963073  59.7568580  32.8446303  10.8749659  60.3704548  32.7053776
  12.3856329  60.2926345  32.7662949  22.0389813  71.2028868  35.2948713
  21.0920149  71.0834219  35.2227039  22.3872586  70.3151366  35.3774974
  14.3989387  57.0923007  39.1186955  14.9223788  57.3385303  39.8813264
  14.1801720  57.9243042  38.6990092   9.7956668  59.3626681  26.9858079
   9.4669374  58.4824060  26.8033185  10.1496038  59.3074350  27.8734469
  19.0436247  70.9981584  31.4953065  18.8961209  70.0698291  31.6760635
  19.8689740  71.0201675  31.0110140  12.9098491  59.6499651  27.3533557
  13.2494563  60.1785572  26.6312165  13.3570611  59.9880057  28.1292124
  22.6470368  71.8210143  32.5817938  23.5716916  71.6153004  32.4442389
  22.4785672  71.5726544  33.4907279  15.6041932  58.0336702  36.8036625
  15.2638752  57.2344515  37.2057305  14.8980938  58.3338413  36.2313458
  16.2558404  55.1186014  35.2563948  17.0784473  54.6446492  35.1342839
  16.4996467  55.8976498  35.7562634  14.8966638  58.1474273  25.5526850
  15.6175001  58.5255525  25.0490567  14.2731942  58.8663150  25.6561828
  19.0397761  58.8519422  26.4885182  19.2561375  59.7344060  26.1874010
  18.5591828  58.4605635  25.7590824  13.7796982  61.8105135  33.0655927
  13.6341563  62.1245438  33.9580208  13.3022186  62.4290035  32.5126825
  15.6393365  58.8007683  33.1136816  15.6254934  57.9048776  32.7769114
  16.3565793  58.8078347  33.7475102  17.4919496  59.2345023  35.1589944
  17.2337274  60.1562094  35.1574274  16.9604536  58.8375458  35.8490408
  22.4365685  72.3395810  27.9380029  22.6102562  71.7742233  27.1853882
  22.9294576  73.1396705  27.7559519   8.2542644  64.3510479  36.0043588
   7.7096113  65.1270287  36.1363862   9.1321994  64.6981284  35.8462709
  15.0430261  57.6822063  28.3824386  15.1646172  56.7538709  28.5815274
  14.7532303  57.6960749  27.4702702  17.9121451  55.3676974  31.5191106
  17.9343148  55.4316307  30.5643086  18.3289510  54.5281482  31.7131612
  28.2905076  65.1032233  29.5570329  28.7336222  64.3539558  29.1589452
  27.4131586  65.0942370  29.1744061  23.4240857  71.6562575  25.0376927
  24.1191762  72.2769267  25.2564242  23.7664007  70.8057926  25.3129305
   9.0408666  63.4780376  38.8973745   8.2990402  63.6263011  39.4838375
   8.7201411  63.7388641  38.0340494  25.3232280  69.1062280  26.5664258
  25.8483604  69.4449553  25.8413578  25.2354633  68.1709295  26.3827393
  16.9852329  73.0196354  38.6954135  17.2939455  72.7745501  39.5676834
  17.7827811  73.2242992  38.2073005  17.0072941  75.1734263  30.9259511
  16.5677931  74.6810642  31.6192368  17.7581058  74.6307231  30.6851587
   9.4865280  71.3645804  30.9284139  10.3123300  71.0649576  30.5482783
   9.1359332  70.5953427  31.3773928  14.4546813  70.7172273  32.9981813
  13.8326822  70.0542978  32.6984041  15.1251680  70.7433404  32.3155461
   7.6873885  69.2832131  31.8873073   6.8505793  68.8554305  31.7057074
   7.6597530  69.4764574  32.8243864  14.5271341  59.1954061  42.5914319
  14.5759496  60.0716183  42.2092089  15.0693855  58.6531454  42.0185962
  25.0126186  69.7395184  41.8715456  24.2221730  69.7219323  41.3319956
  24.7759541  70.2783477  42.6264493  25.1324061  66.5887650  39.1848185
  25.1822066  66.4237658  40.1263707  25.0237985  65.7214909  38.7946065
  14.0160320  69.2676196  26.4740274  14.1648440  69.9511660  25.8206946
  14.8226764  69.2481286  26.9889729  22.4227824  62.5718578  40.5007491
  23.3237686  62.4325043  40.2091489  22.4975798  62.7373033  41.4405669
  16.7570629  59.9485433  39.3460678  15.8873938  60.2418999  39.0743266
  16.9930109  60.5325878  40.0667941  26.6342258  69.0084592  39.4290206
  26.3427066  69.3714572  40.2653667  26.0214389  68.2951600  39.2503538
  27.8337940  66.5737471  31.9492776  28.6684832  67.0127276  32.1130337
  27.9697069  66.0976125  31.1301022  24.8829446  64.1317206  37.8970264
  25.3583568  64.3244853  37.0889116  23.9595012  64.1876392  37.6513648
  11.7712953  65.2941373  27.4801343  11.5258995  64.3903703  27.6781553
  11.9408868  65.2958524  26.5380821  19.4609663  56.1665050  36.8626098
  19.9791607  56.9026077  36.5372587  19.1064796  56.4729043  37.6972857
  11.0408601  61.0269731  24.9787504  10.3477845  61.1014086  24.3227540
  10.7960352  60.2630075  25.5009021  19.7122257  52.5865332  32.3826995
  19.9924011  51.9188521  33.0087421  20.4972864  52.7794428  31.8701659
  17.5155726  71.7624326  23.9452021  16.9429693  72.3814513  23.4922493
  18.0888519  72.3123688  24.4791943  23.5831115  61.0082966  36.1298570
  24.5348538  61.1081064  36.1510794  23.4134566  60.2161235  36.6396654
  21.6045495  58.0938550  36.3157971  21.0095427  58.3743562  35.6204459
  21.3195192  58.5832451  37.0874712  20.7352985  72.0461476  25.0760603
  21.6683659  71.9807038  25.2793479  20.6476198  72.8817743  24.6175136
  23.3641002  71.3627347  22.0364551  23.2854634  71.0287210  22.9300309
  24.1850669  71.8549115  22.0356023  26.0619193  64.2289086  35.2440869
  26.0295513  63.2905087  35.4300553  26.6719817  64.3073123  34.5106694
  17.9002524  63.0985139  21.2868074  18.8461629  62.9691347  21.3556492
  17.5216769  62.3599801  21.7637502  26.2113682  61.0200130  35.2899153
  25.6952730  60.2358586  35.1029082  27.0953630  60.6918846  35.4545672
  23.8724409  54.7641145  31.2494965  23.6749230  54.4556233  32.1338297
  24.4824114  55.4902784  31.3792895  31.8795743  65.2905093  34.3846906
  32.6099132  65.0290381  34.9454610  31.2702689  64.5533815  34.4248974
  29.9611040  63.4312956  34.9821357  29.2344204  63.2968920  34.3737849
  29.5458327  63.7389784  35.7878076  17.7841217  67.1502885  42.7468730
  18.7044226  67.3281484  42.9408777  17.7490800  66.2058931  42.5948430
  16.0845441  61.0235115  21.2222959  15.1776897  60.7268228  21.2985672
  16.3621422  60.7264934  20.3557245   7.0023382  62.3441479  31.6722005
   6.6826166  61.4906787  31.3796379   6.4556810  62.5590057  32.4279972
  10.7803289  65.0603920  35.3891512  10.9989299  65.9921028  35.4079545
  11.1929063  64.7011894  36.1746315  17.7007507  55.5672005  27.3767200
  16.8908235  55.2219090  27.7522446  18.3891924  55.2579549  27.9654812
  19.6298055  54.6450052  28.9991497  20.1829094  55.0645505  29.6581520
  19.8668142  53.7185800  29.0414453  15.6531154  60.6337126  44.7794261
  15.5527881  61.5831483  44.7106352  15.4352697  60.3055365  43.9070331
  14.8544226  57.8822051  21.3634938  15.7163390  58.2076949  21.6230755
  15.0394570  57.0953547  20.8508004   6.8711642  65.9644390  33.6415127
   6.1775113  65.5498343  33.1285081   7.6184633  66.0064927  33.0448546
  23.0076862  56.7550577  28.5070161  22.4275531  57.4135381  28.1248213
  22.7412795  55.9327922  28.0957578  21.4580429  56.1555635  30.7091481
  21.9580207  56.2672169  29.9005800  22.1016037  55.8516688  31.3492290
  15.5162425  64.0634264  43.5959322  15.0329506  64.8634625  43.8023211
  15.6023364  64.0742209  42.6426766   8.7848384  65.8962644  31.5181142
   8.7619072  65.9950331  30.5663025   9.0949021  66.7427795  31.8398308
  11.4435762  67.9538799  35.6327756  12.3979016  67.9222741  35.5657688
  11.2448286  67.4929423  36.4477982  12.0335144  66.5239915  38.1998554
  12.8528033  67.0183994  38.2233391  12.3071952  65.6071883  38.1716121
  21.7901740  58.9150668  27.5626509  20.9027595  59.2000318  27.3446704
  22.2055729  58.7544431  26.7153786  25.1416276  58.9397188  31.2780848
  25.9176667  59.4293641  31.5505465  24.4164411  59.3655243  31.7352718
  27.5788835  59.6524808  32.3354789  28.1733326  59.4120544  31.6248097
  27.6515419  58.9331938  32.9628325   9.7985991  73.4958419  32.6497954
   9.6640459  72.7358820  32.0835952   9.3818053  74.2199319  32.1826743
  20.9344954  68.6795342  21.6574529  21.6380804  68.8845345  22.2732185
  20.2107603  69.2472104  21.9223613  21.7642764  64.4305203  27.7776799
  21.7077965  64.8873755  26.9384432  22.3171107  63.6695888  27.5999642
  25.5747570  60.2194935  28.6026919  25.3184504  59.8191571  29.4335127
  24.9500438  60.9338729  28.4777058  29.8859908  62.9591009  31.1098210
  29.3259466  63.0284198  31.8829772  29.2803411  62.7831993  30.3897707
  12.9555117  74.3927736  32.8616397  12.8387501  75.3373168  32.7595087
  12.1347563  74.0901297  33.2502196  22.8431651  69.1177871  23.7072989
  23.6777255  68.6859070  23.5250464  22.6815994  68.9459885  24.6349884
  22.4977543  65.6209985  25.0729329  22.4426347  65.4554256  24.1317773
  21.8723599  66.3286018  25.2291518   7.2870058  60.8578049  38.8990751
   7.9328922  60.3477003  39.3877976   7.0787209  61.5946731  39.4734176
  19.8123451  67.9258897  44.3982891  20.6814610  68.0999549  44.0369526
  19.3330202  68.7453313  44.2758621  15.8073669  55.1218094  24.6514647
  15.7952339  56.0659934  24.8082918  16.6997091  54.9388239  24.3574108
  13.9809631  75.0455998  36.0772325  14.8836878  75.0779608  36.3938820
  13.7547001  74.1156449  36.0918661  15.7363233  73.7986984  32.7382404
  14.7858864  73.7988846  32.6246776  16.0395719  73.0519719  32.2218438
  19.6225788  51.7160870  28.9060584  18.8558184  51.1619357  29.0517266
  20.0336493  51.7882739  29.7674735  11.6267549  58.0045666  42.9965765
  12.4899011  57.6482471  43.2069090  11.0532960  57.6659561  43.6841169
  31.4715926  79.6347522  33.8028166  32.1094336  79.5154270  33.0991506
  31.3536769  80.5828366  33.8616118  28.2805633  79.5874951  33.7389691
  27.9424144  79.4716015  32.8510226  29.1495401  79.1866116  33.7190697
  24.1392448  81.4410427  29.7286582  23.5757313  81.3500364  28.9602869
  24.0244843  80.6210331  30.2089074  28.7625416  80.7409802  39.6975896
  28.7514056  80.3462601  38.8256400  28.9246055  80.0075875  40.2909668
  21.6856880  82.9361619  32.5670802  22.4778172  82.5952443  32.1517101
  21.9253530  83.0456594  33.4872955  29.7192007  85.1081395  25.0401047
  29.0679987  85.6935475  24.6535060  30.5136370  85.6387590  25.0996084
  23.6447634  82.1970532  25.4388181  24.4178510  81.6499519  25.3001057
  23.9973033  83.0614781  25.6502642  25.4832677  83.5246914  38.6455080
  25.1922543  84.4292545  38.5301747  26.1189661  83.5663442  39.3599150
  26.4088884  80.9023763  35.2356440  27.0052456  80.6779785  34.5213403
  26.4663855  80.1608508  35.8381888  25.9813912  78.3563198  23.0706631
  26.2339433  77.8344719  22.3090094  25.0438471  78.1929343  23.1733314
  31.0257195  77.3598976  30.8781374  31.8120284  76.9418400  30.5271791
  31.2895899  78.2645069  31.0463022  31.1967272  82.7971827  25.5770031
  30.5613105  82.8706453  26.2890935  30.8664679  83.3865425  24.8989110
  36.4265622  77.2974210  31.7814353  37.1590794  76.7273426  32.0152182
  35.6704978  76.9095810  32.2220858  25.7010201  80.2591304  25.2731006
  25.5846459  79.5836207  25.9412090  25.8112461  79.7723678  24.4563159
  28.0441742  79.7201451  28.9777695  27.6799949  79.1932072  29.6890616
  28.9008858  79.3299920  28.8044180  33.9491042  71.0095784  36.2408961
  33.6174367  71.8791195  36.0170176  33.3536656  70.6932068  36.9202992
  27.6847229  74.7491351  23.9739044  27.8521631  75.6171587  24.3409515
  27.4944398  74.9118632  23.0500333  30.4422562  83.2108330  35.6404874
  30.1423285  84.1133368  35.5320681  30.0973621  82.9440513  36.4926027
  23.8935043  79.6622126  31.6741578  22.9685540  79.5298341  31.8819270
  24.1419456  80.4416346  32.1711521  33.8419706  75.7290870  33.3202311
  32.9336583  75.6606278  33.0261072  33.7907301  76.2062815  34.1484137
  27.6636449  77.2049008  24.9585710  27.5436075  77.6506059  25.7971191
  26.9689038  77.5534326  24.3999248  21.2543854  79.3055400  32.5085367
  21.3836235  79.5589879  33.4224779  20.5741306  79.8983108  32.1890022
  25.4243342  89.9752650  28.6075842  25.3467371  90.9260475  28.6864322
  24.8204985  89.6298522  29.2650768  27.9160571  77.1480515  41.2637208
  27.1393905  77.7074436  41.2540073  28.5551134  77.6337298  41.7852079
  35.7081352  73.9307308  35.0980185  35.0655732  74.2239841  34.4519980
  35.2036281  73.8160229  35.9033382  33.3621516  77.6770481  25.7866044
  34.2739372  77.9097868  25.6113742  32.8531163  78.2607526  25.2241123
  26.1706944  79.9565969  40.8255175  26.9121628  80.4951013  40.5489999
  25.4643929  80.5832258  40.9826727  31.6462283  82.0995109  39.4227337
  32.0545639  81.6577520  38.6781969  30.9239545  81.5247737  39.6761530
  27.9993353  77.0367716  36.7960894  28.8454549  77.4607130  36.9395543
  27.9391991  76.3801340  37.4899457  31.9691098  82.6596300  33.1779626
  31.3399960  82.8242014  32.4755694  31.5816760  83.0737909  33.9490590
  35.8480330  83.5950738  30.5323990  35.1631368  83.9749639  29.9821023
  35.9324179  84.2046064  31.2655937  31.1492799  74.6972084  38.4542068
  30.9053731  75.4514145  37.9176343  31.4252729  75.0757432  39.2889315
  33.1031261  81.2410697  37.1319333  33.3148157  81.8842457  36.4553714
  33.0561010  80.4073013  36.6641263  30.7057490  73.8528517  34.0355905
  29.8441969  74.1509771  34.3272643  30.7319925  74.0698916  33.1036938
  27.5219060  82.3970708  30.4429711  27.9857405  82.6758411  29.6534333
  27.2575858  81.4954153  30.2602802  24.4143141  81.9442189  33.3809474
  24.9844498  82.3729458  32.7426959  25.0051253  81.6624774  34.0793660
  26.4587946  78.5193860  27.2519276  27.1611989  78.9714904  27.7193202
  26.1268574  77.8777679  27.8799169  24.9068307  77.1105617  41.6270485
  24.2766968  77.7921898  41.8605882  24.8004395  76.9988699  40.6823624
  20.2013280  76.7777413  32.5536410  19.4112334  77.0334942  32.0776520
  20.6924527  77.5925751  32.6588450  34.2177089  84.1182652  35.3041690
  35.0394533  83.7162839  35.0224372  34.2139492  84.0150886  36.2557806
  22.1528025  77.1421992  29.5119886  21.3559189  77.2540686  30.0303382
  21.9253617  77.4808644  28.6460777  27.9833693  83.6666695  37.4602401
  28.0478125  84.1287103  38.2960573  27.2744617  83.0364060  37.5884711
  18.4850983  77.0307903  34.9851400  18.7359021  77.9154913  35.2508976
  19.0210531  76.8512505  34.2126492  42.3083082  80.4621401  31.6526662
  41.5546791  79.8928799  31.4970666  42.4430624  80.4284065  32.5997297
  27.6981711  85.3334803  27.3281381  27.5627385  86.1786339  27.7566229
  28.2391523  85.5354081  26.5647315  24.1849050  71.4126383  43.9895737
  23.7915996  70.8592581  44.6643381  25.0015190  71.7236961  44.3802254
  21.1511108  82.8510241  27.9009306  21.6635628  83.6453491  28.0514871
  21.8033821  82.1536531  27.8342908  22.9605993  85.9675997  29.9832060
  23.1372621  86.8893962  29.7953043  23.7562826  85.6534416  30.4126439
  27.1017011  72.8284262  41.5815993  27.8426725  73.4291415  41.5020456
  27.3334934  72.0861900  41.0234036  22.2458349  78.0140629  39.8594223
  22.1311864  77.1125886  40.1601322  21.3902867  78.2604326  39.5079039
  29.3250187  85.9558369  41.4581723  28.8814041  85.1694748  41.1402628
  29.9867400  86.1437520  40.7925614  24.0837308  87.4854171  35.9842402
  24.6344733  87.3571234  35.2119396  23.2448784  87.7849060  35.6337295
  31.4231425  86.2361169  39.4863125  31.4049900  87.0570050  38.9943394
  32.3451345  86.1115245  39.7113266  27.8804479  83.7505299  40.3286633
  28.4132816  82.9893587  40.0985941  27.3518560  83.4578951  41.0710788
  31.0474174  68.8565365  35.8580275  30.7038443  69.7467007  35.7819385
  31.4153137  68.6667022  34.9949860  19.1160025  81.1798895  28.6768877
  19.9535247  81.5895904  28.4602585  19.2938292  80.2398337  28.6469071
  31.0124457  78.8473976  24.3652710  30.4971080  79.6178581  24.6041097
  30.7401765  78.1739112  24.9885771  28.5971568  73.6923677  29.4237948
  27.7413164  73.3030527  29.2443587  29.0098520  73.7715638  28.5637734
  30.1270714  71.2270020  33.8229508  29.6235510  71.1900155  33.0097313
  30.4201321  72.1362763  33.8826165  26.3713600  71.3108750  32.8295690
  27.2366597  71.1151558  32.4701579  26.4391109  71.0819101  33.7565047
  35.9858731  81.6006331  26.3005883  35.2088174  81.2617490  25.8561045
  36.6650212  81.6058954  25.6260848  30.8010760  76.7201068  26.1912491
  30.4960896  77.0347217  27.0422634  31.7541202  76.7982488  26.2339824
  29.2457192  82.8791291  27.8405445  28.7178553  82.1444051  27.5278682
  28.7444695  83.6565968  27.5945413  34.2250038  81.0740312  32.9572491
  33.5673712  81.7639573  33.0452620  35.0290437  81.4636744  33.3006478
  23.9775919  73.5410958  30.2012057  24.5519671  73.3186139  29.4685250
  24.5646902  73.6099652  30.9540658  33.0355497  79.4284685  31.0076433
  33.5487378  80.0614676  31.5098143  33.6856721  78.8285880  30.6419793
  24.3045507  75.5715419  24.2207942  23.4682819  75.9090105  24.5417217
  24.1650276  75.4364398  23.2835079  26.2798587  70.4152207  28.9287126
  25.6262999  70.1001224  28.3043741  26.2379061  69.7927947  29.6546949
  27.3909792  80.6971502  20.8440418  26.4836854  80.4660755  21.0431567
  27.8880824  79.9009121  21.0314400  30.2977871  89.4069009  23.7637104
  29.6239570  89.7100706  24.3722062  30.6843693  90.2098089  23.4142561
  29.5136328  76.9034140  33.2534774  28.5958889  77.1249087  33.0956462
  29.9296471  76.9780451  32.3946481  30.2971375  78.3025556  28.3837454
  31.0443194  78.8146953  28.0744576  30.5662965  77.9809608  29.2441847
  28.5698025  80.7984096  25.3664408  27.6609245  80.5143129  25.4636878
  28.5993109  81.2183175  24.5067715  33.8017293  84.4090686  29.1355576
  33.3479620  83.5681596  29.1920766  33.1711260  85.0452084  29.4730356
  32.7450212  75.3382672  30.3656243  32.0072969  74.8260058  30.6966486
  32.9976986  74.8983054  29.5539520  32.2450232  86.2467183  30.0705394
  32.5373206  86.8072240  29.3517759  32.7548853  86.5395744  30.8258553
  32.8461840  68.1158924  30.9598012  33.1520717  67.2556287  30.6723928
  33.5714445  68.7076544  30.7597006  19.1386196  78.5189611  29.3479610
  18.9410596  77.9258971  28.6230677  18.5832860  78.2141821  30.0655549
  27.1182919  78.4112717  31.4674204  27.1731529  77.4586553  31.3916680
  26.3074122  78.5672156  31.9515502  28.2674113  82.3392840  22.7052487
  27.8293543  81.6228699  22.2458124  29.0084554  82.5668955  22.1437578
  25.0575279  77.0289777  29.2264582  24.2443145  77.3283947  29.6329775
  25.5534274  76.6345466  29.9439065  27.2083857  87.0247534  31.1598847
  27.1660036  87.2508380  30.2307379  28.1246556  86.7910908  31.3084648
  30.6549491  77.4931601  38.0579476  31.0098879  77.7203074  38.9173942
  31.3021622  77.8249978  37.4356732  36.3847228  80.6150037  28.7628805
  36.2465127  80.8051633  27.8349995  36.0283447  81.3769420  29.2196856
  24.5489354  74.6008132  34.8425817  25.1888733  74.4596891  34.1448781
  23.7166885  74.3142646  34.4664419  36.4116608  82.6826564  33.7740077
  36.8453114  82.5901853  34.6223131  37.1248188  82.6584065  33.1360093
  25.3249658  83.9010563  30.9560810  26.1190257  83.4060883  30.7543385
  24.6141350  83.3728426  30.5928515  30.1444503  86.2828658  35.3073177
  30.1981525  86.8519595  36.0750893  29.2759284  86.4530543  34.9427215
  21.6332422  78.0453645  27.0320562  20.7030010  77.9838100  27.2490525
  21.7289894  77.5229597  26.2357204  21.5517971  74.5708457  29.6198804
  21.8124788  75.4853791  29.5107965  22.3735143  74.1032900  29.7695417
  23.0242896  75.9846215  36.7897629  23.6965949  75.7763577  36.1410278
  22.1972682  75.7868301  36.3502861  37.2732157  82.7250265  36.3072962
  37.4668047  83.6296075  36.5532237  37.1732775  82.2657684  37.1411547
  28.9268468  72.6108155  38.8063290  28.2796383  73.3098105  38.7127766
  29.6969483  73.0444299  39.1739538  32.3347266  82.8757008  41.8813843
  32.1832772  82.6467559  40.9643927  32.3251945  83.8327609  41.8945188
  29.1032602  80.4488920  36.8660109  30.0324662  80.6000080  36.6929077
  28.6823632  80.5372941  36.0108756  27.9020934  84.4739585  34.6358647
  27.7632020  84.1058369  35.5084585  27.1135530  84.9887224  34.4642605
  28.4969086  89.5748681  25.9784183  28.6720842  89.1036724  26.7929806
  27.8101874  90.2014447  26.2065444  29.4526149  83.8521187  32.0247485
  29.1175982  83.8121957  32.9205135  28.9530095  83.1865903  31.5517895
  23.4270393  79.2588817  37.5500066  23.2890191  78.5269056  38.1511605
  24.3375317  79.1697718  37.2684254  32.3885341  81.1977222  22.2984544
  31.7714511  80.4724050  22.2017597  31.9201829  81.9586582  21.9551619
  26.0552694  78.9708777  37.0383745  26.7652312  78.3301969  36.9970364
  26.0122002  79.2221672  37.9609926  34.0439473  85.9076130  39.9590325
  33.9852019  85.2235350  39.2920908  34.4458991  86.6495120  39.5070951
  24.7681628  75.9573995  38.8579385  24.2318985  75.5064733  39.5100981
  24.1798336  76.0919904  38.1149849  23.0630171  92.7238044  32.7524044
  23.3026770  93.3556568  33.4303062  22.2199368  92.3726084  33.0389403
  24.1783887  75.4162646  21.4205849  23.3013353  75.2951447  21.0568095
  24.6541640  74.6248724  21.1684737  34.0456880  83.8715714  38.1904304
  33.1583659  83.5341636  38.3130703  34.6155431  83.1398745  38.4273070
  15.6986027  80.2039806  31.5147356  16.3857067  79.8901536  30.9268371
  15.5434156  81.1081170  31.2414607  20.5020749  75.0930002  35.9432379
  20.4178938  74.4855672  35.2082789  19.6803455  75.5839021  35.9441876
  27.5758033  88.5317166  35.1565548  27.5028205  89.3372138  35.6684852
  27.1335426  88.7309132  34.3313569  27.3647813  87.7688936  28.6668369
  26.5815335  88.3110617  28.7606594  28.0640558  88.2862916  29.0662610
  30.6744463  73.5783566  31.3102575  31.1713162  72.8253528  30.9903645
  29.9031444  73.6147883  30.7445784  38.5274220  79.2823931  32.9520866
  38.5164097  80.1648647  32.5814799  37.6591600  78.9295482  32.7575403
  30.0356717  88.4304000  37.3123706  30.7484689  89.0651465  37.2399608
  29.5446745  88.5267866  36.4963708  31.7574244  82.3355253  28.8840998
  30.8230522  82.4556716  28.7145702  31.9350912  81.4327720  28.6201008
  27.2579432  75.7200949  31.0374259  26.8877219  75.1671989  31.7255165
  27.7538524  75.1159082  30.4849259  35.1446795  78.1772572  29.4191032
  35.6107247  79.0100564  29.3451335  35.5954295  77.7117554  30.1236291
  25.0868630  86.1798444  38.1329277  25.7878090  86.8134927  38.2858671
  24.6163745  86.5213175  37.3724916  33.2123026  84.5216394  26.4177184
  33.4882870  84.4072988  27.3271058  32.3427525  84.1233879  26.3789357
  33.1163458  70.5453159  33.4581933  32.2026538  70.7757386  33.6264140
  33.5456559  70.6291603  34.3095966  32.8869916  78.7343051  35.9581827
  32.2341366  78.9818959  35.3034280  33.2650296  77.9207190  35.6244305
  29.8477090  88.7702745  30.0609998  30.0299485  87.9524400  30.5237750
  30.6710076  88.9870437  29.6234888  30.1819256  87.6970930  27.3225046
  30.7107022  87.1863384  26.7095208  30.4447475  87.3813460  28.1870579
  28.9357489  79.4762862  42.4447864  28.2598126  79.3756992  43.1150240
  29.7585123  79.3202076  42.9083862  20.6836348  85.7134799  35.0660380
  21.2689785  84.9678487  35.1988284  20.4861187  86.0238756  35.9497044
  23.5375004  88.7486046  30.0822822  22.8685379  89.2332174  29.5986862
  23.3987873  88.9955267  30.9966201  15.2754003  78.2840399  33.7864823
  15.3138103  77.7503990  34.5801941  14.7694296  77.7575605  33.1675800
  27.6780272  90.7829790  36.6805480  28.2298580  90.9461411  37.4454566
  28.0186466  91.3734228  36.0085505  22.6544765  73.1304940  37.2827365
  22.7186092  73.9919771  36.8704763  22.5911886  72.5178941  36.5499724
  22.1297038  75.2028072  40.9300399  22.7569077  74.8205150  41.5437924
  21.2724957  74.9842274  41.2956092  32.5291146  85.6091047  42.5354135
  33.0731050  86.2221006  42.0409090  31.9477991  86.1670626  43.0521148
  18.9062581  77.0104501  26.8618754  19.2016022  76.1015180  26.8085808
  18.0050616  76.9892241  26.5399757  30.8148659  88.7311765  33.6669163
  30.6899799  87.9301505  33.1580108  31.4727750  89.2257959  33.1783133
  22.4356828  75.0860498  32.8446303  21.7143413  75.6996466  32.7053776
  23.2250083  75.6218263  32.7662949  32.8783568  86.5320785  35.2948713
  31.9313903  86.4126137  35.2227039  33.2266341  85.6443284  35.3774974
  25.2383141  72.4214924  39.1186955  25.7617543  72.6677221  39.8813264
  25.0195474  73.2534959  38.6990092  20.6350422  74.6918599  26.9858079
  20.3063128  73.8115978  26.8033185  20.9889793  74.6366268  27.8734469
  29.8830001  86.3273502  31.4953065  29.7354963  85.3990209  31.6760635
  30.7083495  86.3493592  31.0110140  23.7492245  74.9791569  27.3533557
  24.0888318  75.5077490  26.6312165  24.1964366  75.3171975  28.1292124
  33.4864123  87.1502060  32.5817938  34.4110670  86.9444922  32.4442389
  33.3179426  86.9018462  33.4907279  26.4435686  73.3628620  36.8036625
  26.1032507  72.5636433  37.2057305  25.7374692  73.6630330  36.2313458
  27.0952158  70.4477932  35.2563948  27.9178227  69.9738410  35.1342839
  27.3390222  71.2268416  35.7562634  25.7360392  73.4766190  25.5526850
  26.4568755  73.8547443  25.0490567  25.1125697  74.1955067  25.6561828
  29.8791515  74.1811339  26.4885182  30.0955130  75.0635977  26.1874010
  29.3985583  73.7897553  25.7590824  24.6190737  77.1397053  33.0655927
  24.4735317  77.4537356  33.9580208  24.1415940  77.7581953  32.5126825
  26.4787120  74.1299601  33.1136816  26.4648688  73.2340694  32.7769114
  27.1959548  74.1370264  33.7475102  28.3313250  74.5636941  35.1589944
  28.0731028  75.4854011  35.1574274  27.7998291  74.1667375  35.8490408
  33.2759439  87.6687728  27.9380029  33.4496317  87.1034150  27.1853882
  33.7688330  88.4688623  27.7559519  19.0936399  79.6802397  36.0043588
  18.5489867  80.4562205  36.1363862  19.9715749  80.0273201  35.8462709
  25.8824016  73.0113981  28.3824386  26.0039927  72.0830627  28.5815274
  25.5926058  73.0252667  27.4702702  28.7515206  70.6968891  31.5191106
  28.7736903  70.7608224  30.5643086  29.1683265  69.8573400  31.7131612
  39.1298830  80.4324151  29.5570329  39.5729976  79.6831476  29.1589452
  38.2525341  80.4234287  29.1744061  34.2634612  86.9854492  25.0376927
  34.9585516  87.6061185  25.2564242  34.6057762  86.1349844  25.3129305
  19.8802421  78.8072293  38.8973745  19.1384157  78.9554929  39.4838375
  19.5595165  79.0680559  38.0340494  36.1626035  84.4354198  26.5664258
  36.6877359  84.7741471  25.8413578  36.0748387  83.5001213  26.3827393
  27.8246083  88.3488271  38.6954135  28.1333210  88.1037418  39.5676834
  28.6221565  88.5534910  38.2073005  27.8466695  90.5026181  30.9259511
  27.4071686  90.0102560  31.6192368  28.5974812  89.9599149  30.6851587
  20.3259034  86.6937722  30.9284139  21.1517054  86.3941494  30.5482783
  19.9753086  85.9245344  31.3773928  25.2940568  86.0464190  32.9981813
  24.6720577  85.3834895  32.6984041  25.9645435  86.0725322  32.3155461
  18.5267640  84.6124048  31.8873073  17.6899548  84.1846223  31.7057074
  18.4991285  84.8056492  32.8243864  25.3665095  74.5245978  42.5914319
  25.4153251  75.4008101  42.2092089  25.9087609  73.9823371  42.0185962
  35.8519941  85.0687101  41.8715456  35.0615484  85.0511240  41.3319956
  35.6153295  85.6075395  42.6264493  35.9717816  81.9179568  39.1848185
  36.0215821  81.7529575  40.1263707  35.8631739  81.0506827  38.7946065
  24.8554075  84.5968114  26.4740274  25.0042195  85.2803578  25.8206946
  25.6620518  84.5773204  26.9889729  33.2621578  77.9010496  40.5007491
  34.1631441  77.7616961  40.2091489  33.3369553  78.0664951  41.4405669
  27.5964384  75.2777351  39.3460678  26.7267693  75.5710917  39.0743266
  27.8323864  75.8617796  40.0667941  37.4736013  84.3376509  39.4290206
  37.1820821  84.7006490  40.2653667  36.8608144  83.6243518  39.2503538
  38.6731695  81.9029389  31.9492776  39.5078586  82.3419193  32.1130337
  38.8090824  81.4268042  31.1301022  35.7223201  79.4609124  37.8970264
  36.1977323  79.6536770  37.0889116  34.7988766  79.5168310  37.6513648
  22.6106708  80.6233291  27.4801343  22.3652749  79.7195621  27.6781553
  22.7802622  80.6250442  26.5380821  30.3003417  71.4956968  36.8626098
  30.8185361  72.2317994  36.5372587  29.9458550  71.8020961  37.6972857
  21.8802355  76.3561649  24.9787504  21.1871600  76.4306004  24.3227540
  21.6354107  75.5921992  25.5009021  30.5516012  67.9157250  32.3826995
  30.8317765  67.2480439  33.0087421  31.3366618  68.1086346  31.8701659
  28.3549480  87.0916244  23.9452021  27.7823447  87.7106431  23.4922493
  28.9282274  87.6415606  24.4791943  34.4224870  76.3374884  36.1298570
  35.3742293  76.4372982  36.1510794  34.2528320  75.5453153  36.6396654
  32.4439249  73.4230467  36.3157971  31.8489181  73.7035480  35.6204459
  32.1588946  73.9124368  37.0874712  31.5746740  87.3753394  25.0760603
  32.5077413  87.3098956  25.2793479  31.4869953  88.2109661  24.6175136
  34.2034757  86.6919264  22.0364551  34.1248388  86.3579128  22.9300309
  35.0244423  87.1841032  22.0356023  36.9012948  79.5581004  35.2440869
  36.8689268  78.6197004  35.4300553  37.5113571  79.6365040  34.5106694
  28.7396279  78.4277057  21.2868074  29.6855383  78.2983265  21.3556492
  28.3610524  77.6891719  21.7637502  37.0507436  76.3492047  35.2899153
  36.5346485  75.5650504  35.1029082  37.9347385  76.0210764  35.4545672
  34.7118163  70.0933063  31.2494965  34.5142984  69.7848151  32.1338297
  35.3217869  70.8194702  31.3792895  42.7189498  80.6197011  34.3846906
  43.4492886  80.3582299  34.9454610  42.1096443  79.8825733  34.4248974
  40.8004795  78.7604873  34.9821357  40.0737958  78.6260838  34.3737849
  40.3852082  79.0681702  35.7878076  28.6234971  82.4794803  42.7468730
  29.5437981  82.6573402  42.9408777  28.5884554  81.5350848  42.5948430
  26.9239196  76.3527033  21.2222959  26.0170651  76.0560146  21.2985672
  27.2015177  76.0556851  20.3557245  17.8417136  77.6733397  31.6722005
  17.5219920  76.8198705  31.3796379  17.2950564  77.8881975  32.4279972
  21.6197044  80.3895838  35.3891512  21.8383053  81.3212945  35.4079545
  22.0322817  80.0303812  36.1746315  28.5401261  70.8963923  27.3767200
  27.7301990  70.5511008  27.7522446  29.2285678  70.5871467  27.9654812
  30.4691810  69.9741970  28.9991497  31.0222848  70.3937423  29.6581520
  30.7061896  69.0477718  29.0414453  26.4924909  75.9629043  44.7794261
  26.3921636  76.9123400  44.7106352  26.2746451  75.6347282  43.9070331
  25.6937980  73.2113968  21.3634938  26.5557144  73.5368867  21.6230755
  25.8788324  72.4245464  20.8508004  17.7105396  81.2936308  33.6415127
  17.0168868  80.8790261  33.1285081  18.4578387  81.3356845  33.0448546
  33.8470617  72.0842495  28.5070161  33.2669286  72.7427299  28.1248213
  33.5806549  71.2619839  28.0957578  32.2974183  71.4847553  30.7091481
  32.7973962  71.5964087  29.9005800  32.9409791  71.1808605  31.3492290
  26.3556179  79.3926182  43.5959322  25.8723261  80.1926542  43.8023211
  26.4417118  79.4034127  42.6426766  19.6242139  81.2254562  31.5181142
  19.6012827  81.3242249  30.5663025  19.9342775  82.0719713  31.8398308
  22.2829517  83.2830717  35.6327756  23.2372770  83.2514659  35.5657688
  22.0842040  82.8221341  36.4477982  22.8728899  81.8531833  38.1998554
  23.6921788  82.3475912  38.2233391  23.1465706  80.9363801  38.1716121
  32.6295495  74.2442585  27.5626509  31.7421350  74.5292236  27.3446704
  33.0449484  74.0836349  26.7153786  35.9810031  74.2689106  31.2780848
  36.7570421  74.7585559  31.5505465  35.2558165  74.6947160  31.7352718
  38.4182590  74.9816725  32.3354789  39.0127080  74.7412461  31.6248097
  38.4909173  74.2623856  32.9628325  20.6379745  88.8250336  32.6497954
  20.5034213  88.0650737  32.0835952  20.2211808  89.5491236  32.1826743
  31.7738708  84.0087260  21.6574529  32.4774558  84.2137262  22.2732185
  31.0501357  84.5764022  21.9223613  32.6036519  79.7597121  27.7776799
  32.5471720  80.2165673  26.9384432  33.1564861  78.9987806  27.5999642
  36.4141324  75.5486853  28.6026919  36.1578259  75.1483489  29.4335127
  35.7894193  76.2630647  28.4777058  40.7253662  78.2882926  31.1098210
  40.1653220  78.3576116  31.8829772  40.1197166  78.1123911  30.3897707
  23.7948871  89.7219653  32.8616397  23.6781255  90.6665086  32.7595087
  22.9741317  89.4193215  33.2502196  33.6825406  84.4469789  23.7072989
  34.5171010  84.0150988  23.5250464  33.5209749  84.2751803  24.6349884
  33.3371298  80.9501902  25.0729329  33.2820102  80.7846174  24.1317773
  32.7117353  81.6577935  25.2291518  18.1263813  76.1869967  38.8990751
  18.7722676  75.6768921  39.3877976  17.9180964  76.9238648  39.4734176
  30.6517205  83.2550814  44.3982891  31.5208365  83.4291467  44.0369526
  30.1723957  84.0745231  44.2758621  26.6467423  70.4510011  24.6514647
  26.6346093  71.3951851  24.8082918  27.5390845  70.2680157  24.3574108
  24.8203385  90.3747915  36.0772325  25.7230632  90.4071526  36.3938820
  24.5940755  89.4448366  36.0918661  26.5756987  89.1278902  32.7382404
  25.6252618  89.1280763  32.6246776  26.8789473  88.3811636  32.2218438
  30.4619543  67.0452788  28.9060584  29.6951939  66.4911275  29.0517266
  30.8730248  67.1174657  29.7674735  22.4661304  73.3337584  42.9965765
  23.3292765  72.9774389  43.2069090  21.8926715  72.9951479  43.6841169
  42.3109681  94.9639440  33.8028166  42.9488091  94.8446188  33.0991506
  42.1930524  95.9120284  33.8616118  39.1199387  94.9166868  33.7389691
  38.7817899  94.8007933  32.8510226  39.9889155  94.5158033  33.7190697
  34.9786203  96.7702345  29.7286582  34.4151068  96.6792282  28.9602869
  34.8638598  95.9502249  30.2089074  39.6019170  96.0701720  39.6975896
  39.5907811  95.6754518  38.8256400  39.7639810  95.3367793  40.2909668
  32.5250635  98.2653536  32.5670802  33.3171927  97.9244361  32.1517101
  32.7647285  98.3748511  33.4872955  40.5585761 100.4373312  25.0401047
  39.9073741 101.0227393  24.6535060  41.3530124 100.9679507  25.0996084
  34.4841389  97.5262450  25.4388181  35.2572265  96.9791437  25.3001057
  34.8366788  98.3906699  25.6502642  36.3226431  98.8538832  38.6455080
  36.0316297  99.7584463  38.5301747  36.9583416  98.8955359  39.3599150
  37.2482638  96.2315680  35.2356440  37.8446210  96.0071703  34.5213403
  37.3057610  95.4900426  35.8381888  36.8207666  93.6855116  23.0706631
  37.0733187  93.1636637  22.3090094  35.8832226  93.5221261  23.1733314
  41.8650949  92.6890894  30.8781374  42.6514039  92.2710317  30.5271791
  42.1289654  93.5936986  31.0463022  42.0361027  98.1263744  25.5770031
  41.4006860  98.1998371  26.2890935  41.7058433  98.7157343  24.8989110
  47.2659376  92.6266127  31.7814353  47.9984548  92.0565344  32.0152182
  46.5098732  92.2387728  32.2220858  36.5403955  95.5883222  25.2731006
  36.4240213  94.9128125  25.9412090  36.6506215  95.1015596  24.4563159
  38.8835496  95.0493369  28.9777695  38.5193703  94.5223990  29.6890616
  39.7402612  94.6591838  28.8044180  44.7884797  86.3387701  36.2408961
  44.4568122  87.2083112  36.0170176  44.1930410  86.0223985  36.9202992
  38.5240983  90.0783268  23.9739044  38.6915385  90.9463505  24.3409515
  38.3338152  90.2410550  23.0500333  41.2816316  98.5400247  35.6404874
  40.9817039  99.4425286  35.5320681  40.9367376  98.2732431  36.4926027
  34.7328798  94.9914044  31.6741578  33.8079294  94.8590258  31.8819270
  34.9813211  95.7708263  32.1711521  44.6813460  91.0582788  33.3202311
  43.7730337  90.9898196  33.0261072  44.6301056  91.5354732  34.1484137
  38.5030204  92.5340926  24.9585710  38.3829829  92.9797977  25.7971191
  37.8082792  92.8826244  24.3999248  32.0937609  94.6347318  32.5085367
  32.2229990  94.8881797  33.4224779  31.4135060  95.2275026  32.1890022
  36.2637096 105.3044568  28.6075842  36.1861126 106.2552393  28.6864322
  35.6598740 104.9590440  29.2650768  38.7554326  92.4772433  41.2637208
  37.9787660  93.0366353  41.2540073  39.3944889  92.9629216  41.7852079
  46.5475106  89.2599226  35.0980185  45.9049487  89.5531759  34.4519980
  46.0430035  89.1452146  35.9033382  44.2015270  93.0062399  25.7866044
  45.1133126  93.2389786  25.6113742  43.6924917  93.5899443  25.2241123
  37.0100698  95.2857886  40.8255175  37.7515383  95.8242930  40.5489999
  36.3037684  95.9124175  40.9826727  42.4856038  97.4287027  39.4227337
  42.8939394  96.9869437  38.6781969  41.7633299  96.8539654  39.6761530
  38.8387108  92.3659634  36.7960894  39.6848303  92.7899047  36.9395543
  38.7785746  91.7093258  37.4899457  42.8084852  97.9888218  33.1779626
  42.1793715  98.1533932  32.4755694  42.4210515  98.4029827  33.9490590
  46.6874084  98.9242655  30.5323990  46.0025123  99.3041557  29.9821023
  46.7717934  99.5337982  31.2655937  41.9886553  90.0264002  38.4542068
  41.7447485  90.7806063  37.9176343  42.2646484  90.4049350  39.2889315
  43.9425016  96.5702614  37.1319333  44.1541911  97.2134374  36.4553714
  43.8954764  95.7364931  36.6641263  41.5451245  89.1820435  34.0355905
  40.6835724  89.4801689  34.3272643  41.5713680  89.3990834  33.1036938
  38.3612814  97.7262626  30.4429711  38.8251160  98.0050329  29.6534333
  38.0969612  96.8246070  30.2602802  35.2536895  97.2734107  33.3809474
  35.8238252  97.7021376  32.7426959  35.8445007  96.9916692  34.0793660
  37.2981700  93.8485778  27.2519276  38.0005744  94.3006822  27.7193202
  36.9662329  93.2069597  27.8799169  35.7462062  92.4397535  41.6270485
  35.1160722  93.1213815  41.8605882  35.6398150  92.3280616  40.6823624
  31.0407034  92.1069331  32.5536410  30.2506088  92.3626859  32.0776520
  31.5318282  92.9217669  32.6588450  45.0570844  99.4474570  35.3041690
  45.8788288  99.0454757  35.0224372  45.0533247  99.3442804  36.2557806
  32.9921780  92.4713910  29.5119886  32.1952943  92.5832604  30.0303382
  32.7647372  92.8100562  28.6460777  38.8227447  98.9958613  37.4602401
  38.8871880  99.4579020  38.2960573  38.1138371  98.3655978  37.5884711
  29.3244737  92.3599821  34.9851400  29.5752776  93.2446831  35.2508976
  29.8604286  92.1804423  34.2126492  53.1476837  95.7913318  31.6526662
  52.3940545  95.2220716  31.4970666  53.2824378  95.7575983  32.5997297
  38.5375465 100.6626721  27.3281381  38.4021140 101.5078256  27.7566229
  39.0785278 100.8645998  26.5647315  35.0242805  86.7418300  43.9895737
  34.6309750  86.1884499  44.6643381  35.8408945  87.0528879  44.3802254
  31.9904862  98.1802159  27.9009306  32.5029383  98.9745409  28.0514871
  32.6427575  97.4828449  27.8342908  33.7999747 101.2967915  29.9832060
  33.9766375 102.2185880  29.7953043  34.5956581 100.9826334  30.4126439
  37.9410766  88.1576180  41.5815993  38.6820479  88.7583333  41.5020456
  38.1728688  87.4153817  41.0234036  33.0852104  93.3432547  39.8594223
  32.9705619  92.4417804  40.1601322  32.2296621  93.5896244  39.5079039
  40.1643941 101.2850287  41.4581723  39.7207796 100.4986666  41.1402628
  40.8261155 101.4729438  40.7925614  34.9231063 102.8146089  35.9842402
  35.4738488 102.6863152  35.2119396  34.0842538 103.1140978  35.6337295
  42.2625179 101.5653087  39.4863125  42.2443655 102.3861968  38.9943394
  43.1845100 101.4407162  39.7113266  38.7198234  99.0797217  40.3286633
  39.2526570  98.3185505  40.0985941  38.1912315  98.7870868  41.0710788
  41.8867929  84.1857283  35.8580275  41.5432198  85.0758924  35.7819385
  42.2546891  83.9958940  34.9949860  29.9553779  96.5090813  28.6768877
  30.7929001  96.9187821  28.4602585  30.1332047  95.5690255  28.6469071
  41.8518211  94.1765894  24.3652710  41.3364835  94.9470498  24.6041097
  41.5795520  93.5031030  24.9885771  39.4365322  89.0215594  29.4237948
  38.5806919  88.6322445  29.2443587  39.8492274  89.1007555  28.5637734
  40.9664469  86.5561938  33.8229508  40.4629265  86.5192073  33.0097313
  41.2595076  87.4654680  33.8826165  37.2107355  86.6400667  32.8295690
  38.0760352  86.4443476  32.4701579  37.2784864  86.4111019  33.7565047
  46.8252485  96.9298248  26.3005883  46.0481928  96.5909408  25.8561045
  47.5043966  96.9350871  25.6260848  41.6404514  92.0492986  26.1912491
  41.3354650  92.3639135  27.0422634  42.5934957  92.1274406  26.2339824
  40.0850946  98.2083209  27.8405445  39.5572308  97.4735969  27.5278682
  39.5838449  98.9857885  27.5945413  45.0643792  96.4032230  32.9572491
  44.4067467  97.0931491  33.0452620  45.8684192  96.7928661  33.3006478
  34.8169674  88.8702875  30.2012057  35.3913426  88.6478057  29.4685250
  35.4040656  88.9391570  30.9540658  43.8749251  94.7576602  31.0076433
  44.3881133  95.3906594  31.5098143  44.5250475  94.1577798  30.6419793
  35.1439261  90.9007336  24.2207942  34.3076573  91.2382023  24.5417217
  35.0044031  90.7656316  23.2835079  37.1192342  85.7444124  28.9287126
  36.4656754  85.4293141  28.3043741  37.0772816  85.1219865  29.6546949
  38.2303546  96.0263419  20.8440418  37.3230608  95.7952673  21.0431567
  38.7274578  95.2301039  21.0314400  41.1371625 104.7360926  23.7637104
  40.4633324 105.0392623  24.3722062  41.5237447 105.5390007  23.4142561
  40.3530082  92.2326058  33.2534774  39.4352643  92.4541005  33.0956462
  40.7690226  92.3072368  32.3946481  41.1365130  93.6317473  28.3837454
  41.8836949  94.1438871  28.0744576  41.4056719  93.3101526  29.2441847
  39.4091780  96.1276014  25.3664408  38.5002999  95.8435047  25.4636878
  39.4386864  96.5475093  24.5067715  44.6411047  99.7382604  29.1355576
  44.1873374  98.8973514  29.1920766  44.0105014 100.3744002  29.4730356
  43.5843967  90.6674590  30.3656243  42.8466724  90.1551976  30.6966486
  43.8370740  90.2274971  29.5539520  43.0843987 101.5759100  30.0705394
  43.3766961 102.1364157  29.3517759  43.5942607 101.8687661  30.8258553
  43.6855594  83.4450842  30.9598012  43.9914471  82.5848205  30.6723928
  44.4108199  84.0368462  30.7597006  29.9779950  93.8481528  29.3479610
  29.7804350  93.2550889  28.6230677  29.4226614  93.5433738  30.0655549
  37.9576674  93.7404635  31.4674204  38.0125284  92.7878471  31.3916680
  37.1467876  93.8964074  31.9515502  39.1067868  97.6684758  22.7052487
  38.6687298  96.9520617  22.2458124  39.8478309  97.8960873  22.1437578
  35.8969034  92.3581695  29.2264582  35.0836899  92.6575865  29.6329775
  36.3928028  91.9637383  29.9439065  38.0477612 102.3539451  31.1598847
  38.0053791 102.5800298  30.2307379  38.9640311 102.1202826  31.3084648
  41.4943246  92.8223519  38.0579476  41.8492633  93.0494992  38.9173942
  42.1415377  93.1541896  37.4356732  47.2240983  95.9441955  28.7628805
  47.0858881  96.1343551  27.8349995  46.8677201  96.7061338  29.2196856
  35.3883109  89.9300050  34.8425817  36.0282488  89.7888809  34.1448781
  34.5560639  89.6434563  34.4664419  47.2510362  98.0118482  33.7740077
  47.6846869  97.9193771  34.6223131  47.9641943  97.9875982  33.1360093
  36.1643413  99.2302480  30.9560810  36.9584011  98.7352801  30.7543385
  35.4535105  98.7020344  30.5928515  40.9838257 101.6120576  35.3073177
  41.0375279 102.1811512  36.0750893  40.1153038 101.7822461  34.9427215
  32.4726176  93.3745562  27.0320562  31.5423764  93.3130018  27.2490525
  32.5683648  92.8521515  26.2357204  32.3911725  89.9000375  29.6198804
  32.6518542  90.8145708  29.5107965  33.2128897  89.4324818  29.7695417
  33.8636650  91.3138132  36.7897629  34.5359704  91.1055494  36.1410278
  33.0366437  91.1160218  36.3502861  48.1125912  98.0542183  36.3072962
  48.3061802  98.9587993  36.5532237  48.0126530  97.5949602  37.1411547
  39.7662222  87.9400073  38.8063290  39.1190137  88.6390023  38.7127766
  40.5363238  88.3736217  39.1739538  43.1741020  98.2048925  41.8813843
  43.0226527  97.9759477  40.9643927  43.1645700  99.1619527  41.8945188
  39.9426357  95.7780838  36.8660109  40.8718417  95.9291998  36.6929077
  39.5217387  95.8664859  36.0108756  38.7414689  99.8031502  34.6358647
  38.6025774  99.4350287  35.5084585  37.9529285 100.3179142  34.4642605
  39.3362841 104.9040599  25.9784183  39.5114596 104.4328642  26.7929806
  38.6495629 105.5306365  26.2065444  40.2919904  99.1813105  32.0247485
  39.9569736  99.1413875  32.9205135  39.7923849  98.5157821  31.5517895
  34.2664148  94.5880735  37.5500066  34.1283946  93.8560974  38.1511605
  35.1769071  94.4989635  37.2684254  43.2279095  96.5269139  22.2984544
  42.6108266  95.8015968  22.2017597  42.7595584  97.2878500  21.9551619
  36.8946448  94.3000694  37.0383745  37.6046067  93.6593887  36.9970364
  36.8515756  94.5513589  37.9609926  44.8833227 101.2368048  39.9590325
  44.8245773 100.5527268  39.2920908  45.2852745 101.9787038  39.5070951
  35.6075382  91.2865912  38.8579385  35.0712739  90.8356651  39.5100981
  35.0192091  91.4211821  38.1149849  33.9023926 108.0529962  32.7524044
  34.1420524 108.6848486  33.4303062  33.0593122 107.7018002  33.0389403
  35.0177641  90.7454564  21.4205849  34.1407108  90.6243365  21.0568095
  35.4935394  89.9540642  21.1684737  44.8850634  99.2007632  38.1904304
  43.9977413  98.8633554  38.3130703  45.4549185  98.4690663  38.4273070
  26.5379781  95.5331724  31.5147356  27.2250821  95.2193454  30.9268371
  26.3827910  96.4373088  31.2414607  31.3414504  90.4221920  35.9432379
  31.2572692  89.8147590  35.2082789  30.5197210  90.9130938  35.9441876
  38.4151788 103.8609084  35.1565548  38.3421959 104.6664056  35.6684852
  37.9729181 104.0601050  34.3313569  38.2041567 103.0980854  28.6668369
  37.4209089 103.6402534  28.7606594  38.9034312 103.6154834  29.0662610
  41.5138217  88.9075484  31.3102575  42.0106917  88.1545446  30.9903645
  40.7425199  88.9439800  30.7445784  49.3667975  94.6115849  32.9520866
  49.3557851  95.4940565  32.5814799  48.4985354  94.2587400  32.7575403
  40.8750471 103.7595918  37.3123706  41.5878443 104.3943383  37.2399608
  40.3840500 103.8559784  36.4963708  42.5967998  97.6647171  28.8840998
  41.6624277  97.7848633  28.7145702  42.7744667  96.7619638  28.6201008
  38.0973186  91.0492867  31.0374259  37.7270974  90.4963907  31.7255165
  38.5932279  90.4451000  30.4849259  45.9840549  93.5064490  29.4191032
  46.4501002  94.3392482  29.3451335  46.4348050  93.0409472  30.1236291
  35.9262385 101.5090362  38.1329277  36.6271844 102.1426845  38.2858671
  35.4557500 101.8505093  37.3724916  44.0516781  99.8508311  26.4177184
  44.3276624  99.7364906  27.3271058  43.1821279  99.4525796  26.3789357
  43.9557212  85.8745077  33.4581933  43.0420292  86.1049304  33.6264140
  44.3850314  85.9583521  34.3095966  43.7263671  94.0634969  35.9581827
  43.0735121  94.3110877  35.3034280  44.1044051  93.2499107  35.6244305
  40.6870845 104.0994662  30.0609998  40.8693239 103.2816318  30.5237750
  41.5103831 104.3162354  29.6234888  41.0213010 103.0262847  27.3225046
  41.5500776 102.5155302  26.7095208  41.2841230 102.7105378  28.1870579
  39.7751244  94.8054780  42.4447864  39.0991881  94.7048909  43.1150240
  40.5978878  94.6493994  42.9083862  31.5230103 101.0426717  35.0660380
  32.1083540 100.2970405  35.1988284  31.3254941 101.3530673  35.9497044
  34.3768758 104.0777964  30.0822822  33.7079133 104.5624092  29.5986862
  34.2381628 104.3247184  30.9966201  26.1147758  93.6132317  33.7864823
  26.1531857  93.0795908  34.5801941  25.6088050  93.0867522  33.1675800
  38.5174027 106.1121708  36.6805480  39.0692335 106.2753329  37.4454566
  38.8580220 106.7026145  36.0085505  33.4938520  88.4596857  37.2827365
  33.5579846  89.3211688  36.8704763  33.4305640  87.8470859  36.5499724
  32.9690792  90.5319990  40.9300399  33.5962831  90.1497067  41.5437924
  32.1118711  90.3134192  41.2956092  43.3684901 100.9382965  42.5354135
  43.9124805 101.5512923  42.0409090  42.7871746 101.4962543  43.0521148
  29.7456335  92.3396419  26.8618754  30.0409776  91.4307097  26.8085808
  28.8444371  92.3184158  26.5399757  41.6542414 104.0603683  33.6669163
  41.5293553 103.2593423  33.1580108  42.3121505 104.5549876  33.1783133
  33.2750582  90.4152416  32.8446303  32.5537168  91.0288383  32.7053776
  34.0643838  90.9510180  32.7662949  43.7177322 101.8612703  35.2948713
  42.7707658 101.7418054  35.2227039  44.0660095 100.9735201  35.3774974
  36.0776896  87.7506842  39.1186955  36.6011297  87.9969139  39.8813264
  35.8589229  88.5826877  38.6990092  31.4744177  90.0210517  26.9858079
  31.1456883  89.1407896  26.8033185  31.8283547  89.9658185  27.8734469
  40.7223756 101.6565419  31.4953065  40.5748718 100.7282127  31.6760635
  41.5477249 101.6785510  31.0110140  34.5886000  90.3083486  27.3533557
  34.9282072  90.8369408  26.6312165  35.0358120  90.6463893  28.1292124
  44.3257877 102.4793978  32.5817938  45.2504425 102.2736839  32.4442389
  44.1573181 102.2310379  33.4907279  37.2829441  88.6920537  36.8036625
  36.9426261  87.8928350  37.2057305  36.5768447  88.9922248  36.2313458
  37.9345912  85.7769850  35.2563948  38.7571982  85.3030328  35.1342839
  38.1783976  86.5560333  35.7562634  36.5754147  88.8058108  25.5526850
  37.2962509  89.1839361  25.0490567  35.9519451  89.5246985  25.6561828
  40.7185270  89.5103257  26.4885182  40.9348884  90.3927895  26.1874010
  40.2379337  89.1189470  25.7590824  35.4584491  92.4688970  33.0655927
  35.3129072  92.7829273  33.9580208  34.9809695  93.0873871  32.5126825
  37.3180874  89.4591518  33.1136816  37.3042443  88.5632612  32.7769114
  38.0353302  89.4662182  33.7475102  39.1707005  89.8928858  35.1589944
  38.9124783  90.8145929  35.1574274  38.6392045  89.4959293  35.8490408
  44.1153194 102.9979646  27.9380029  44.2890071 102.4326068  27.1853882
  44.6082085 103.7980540  27.7559519  29.9330153  95.0094315  36.0043588
  29.3883621  95.7854123  36.1363862  30.8109503  95.3565119  35.8462709
  36.7217770  88.3405899  28.3824386  36.8433681  87.4122545  28.5815274
  36.4319812  88.3544584  27.4702702  39.5908960  86.0260809  31.5191106
  39.6130657  86.0900142  30.5643086  40.0077019  85.1865318  31.7131612
  49.9692585  95.7616069  29.5570329  50.4123731  95.0123394  29.1589452
  49.0919095  95.7526205  29.1744061  45.1028366 102.3146410  25.0376927
  45.7979271 102.9353103  25.2564242  45.4451516 101.4641761  25.3129305
  30.7196175  94.1364211  38.8973745  29.9777911  94.2846846  39.4838375
  30.3988920  94.3972477  38.0340494  47.0019789  99.7646116  26.5664258
  47.5271113 100.1033388  25.8413578  46.9142142  98.8293131  26.3827393
  38.6639838 103.6780189  38.6954135  38.9726964 103.4329336  39.5676834
  39.4615320 103.8826828  38.2073005  38.6860450 105.8318099  30.9259511
  38.2465440 105.3394477  31.6192368  39.4368567 105.2891066  30.6851587
  31.1652789 102.0229640  30.9284139  31.9910809 101.7233412  30.5482783
  30.8146841 101.2537262  31.3773928  36.1334322 101.3756108  32.9981813
  35.5114331 100.7126813  32.6984041  36.8039189 101.4017240  32.3155461
  29.3661394  99.9415966  31.8873073  28.5293302  99.5138140  31.7057074
  29.3385039 100.1348409  32.8243864  36.2058850  89.8537896  42.5914319
  36.2547005  90.7300019  42.2092089  36.7481364  89.3115289  42.0185962
  46.6913695 100.3979019  41.8715456  45.9009239 100.3803158  41.3319956
  46.4547050 100.9367313  42.6264493  46.8111570  97.2471486  39.1848185
  46.8609575  97.0821493  40.1263707  46.7025494  96.3798745  38.7946065
  35.6947829  99.9260031  26.4740274  35.8435949 100.6095496  25.8206946
  36.5014272  99.9065121  26.9889729  44.1015333  93.2302414  40.5007491
  45.0025195  93.0908878  40.2091489  44.1763307  93.3956868  41.4405669
  38.4358138  90.6069268  39.3460678  37.5661447  90.9002834  39.0743266
  38.6717618  91.1909713  40.0667941  48.3129767  99.6668427  39.4290206
  48.0214575 100.0298408  40.2653667  47.7001898  98.9535435  39.2503538
  49.5125449  97.2321307  31.9492776  50.3472341  97.6711111  32.1130337
  49.6484578  96.7559960  31.1301022  46.5616955  94.7901042  37.8970264
  47.0371077  94.9828688  37.0889116  45.6382521  94.8460227  37.6513648
  33.4500462  95.9525209  27.4801343  33.2046504  95.0487539  27.6781553
  33.6196377  95.9542359  26.5380821  41.1397172  86.8248885  36.8626098
  41.6579116  87.5609912  36.5372587  40.7852305  87.1312879  37.6972857
  32.7196110  91.6853566  24.9787504  32.0265354  91.7597921  24.3227540
  32.4747861  90.9213910  25.5009021  41.3909766  83.2449168  32.3826995
  41.6711520  82.5772357  33.0087421  42.1760373  83.4378263  31.8701659
  39.1943235 102.4208162  23.9452021  38.6217202 103.0398349  23.4922493
  39.7676028 102.9707523  24.4791943  45.2618624  91.6666802  36.1298570
  46.2136047  91.7664899  36.1510794  45.0922075  90.8745070  36.6396654
  43.2833004  88.7522385  36.3157971  42.6882936  89.0327398  35.6204459
  42.9982701  89.2416286  37.0874712  42.4140494 102.7045312  25.0760603
  43.3471167 102.6390873  25.2793479  42.3263707 103.5401579  24.6175136
  45.0428511 102.0211182  22.0364551  44.9642143 101.6871046  22.9300309
  45.8638178 102.5132950  22.0356023  47.7406702  94.8872921  35.2440869
  47.7083022  93.9488922  35.4300553  48.3507326  94.9656958  34.5106694
  39.5790033  93.7568974  21.2868074  40.5249138  93.6275183  21.3556492
  39.2004278  93.0183636  21.7637502  47.8901191  91.6783965  35.2899153
  47.3740239  90.8942422  35.1029082  48.7741139  91.3502681  35.4545672
  45.5511918  85.4224980  31.2494965  45.3536739  85.1140069  32.1338297
  46.1611623  86.1486619  31.3792895  53.5583252  95.9488928  34.3846906
  54.2886641  95.6874216  34.9454610  52.9490198  95.2117650  34.4248974
  51.6398549  94.0896791  34.9821357  50.9131713  93.9552756  34.3737849
  51.2245836  94.3973619  35.7878076  39.4628726  97.8086721  42.7468730
  40.3831735  97.9865320  42.9408777  39.4278309  96.8642766  42.5948430
  37.7632950  91.6818951  21.2222959  36.8564406  91.3852064  21.2985672
  38.0408931  91.3848769  20.3557245  28.6810891  93.0025314  31.6722005
  28.3613675  92.1490622  31.3796379  28.1344319  93.2173892  32.4279972
  32.4590798  95.7187755  35.3891512  32.6776808  96.6504863  35.4079545
  32.8716572  95.3595730  36.1746315  39.3795016  86.2255841  27.3767200
  38.5695744  85.8802925  27.7522446  40.0679433  85.9163384  27.9654812
  41.3085564  85.3033887  28.9991497  41.8616603  85.7229341  29.6581520
  41.5455651  84.3769635  29.0414453  37.3318663  91.2920961  44.7794261
  37.2315390  92.2415318  44.7106352  37.1140205  90.9639200  43.9070331
  36.5331735  88.5405886  21.3634938  37.3950899  88.8660784  21.6230755
  36.7182079  87.7537382  20.8508004  28.5499151  96.6228226  33.6415127
  27.8562622  96.2082178  33.1285081  29.2972142  96.6648762  33.0448546
  44.6864371  87.4134412  28.5070161  44.1063040  88.0719217  28.1248213
  44.4200304  86.5911757  28.0957578  43.1367938  86.8139470  30.7091481
  43.6367716  86.9256005  29.9005800  43.7803546  86.5100523  31.3492290
  37.1949934  94.7218100  43.5959322  36.7117015  95.5218460  43.8023211
  37.2810873  94.7326045  42.6426766  30.4635893  96.5546479  31.5181142
  30.4406581  96.6534167  30.5663025  30.7736530  97.4011630  31.8398308
  33.1223271  98.6122635  35.6327756  34.0766525  98.5806577  35.5657688
  32.9235795  98.1513258  36.4477982  33.7122653  97.1823751  38.1998554
  34.5315542  97.6767829  38.2233391  33.9859461  96.2655719  38.1716121
  43.4689249  89.5734503  27.5626509  42.5815104  89.8584153  27.3446704
  43.8843238  89.4128266  26.7153786  46.8203785  89.5981024  31.2780848
  47.5964176  90.0877476  31.5505465  46.0951920  90.0239078  31.7352718
  49.2576344  90.3108643  32.3354789  49.8520835  90.0704379  31.6248097
  49.3302928  89.5915774  32.9628325  31.4773500 104.1542254  32.6497954
  31.3427968 103.3942655  32.0835952  31.0605562 104.8783154  32.1826743
  42.6132463  99.3379178  21.6574529  43.3168313  99.5429180  22.2732185
  41.8895112  99.9055939  21.9223613  43.4430273  95.0889039  27.7776799
  43.3865474  95.5457590  26.9384432  43.9958616  94.3279723  27.5999642
  47.2535079  90.8778771  28.6026919  46.9972013  90.4775406  29.4335127
  46.6287947  91.5922565  28.4777058  51.5647417  93.6174844  31.1098210
  51.0046975  93.6868033  31.8829772  50.9590920  93.4415829  30.3897707
  34.6342626 105.0511571  32.8616397  34.5175010 105.9957004  32.7595087
  33.8135072 104.7485133  33.2502196  44.5219160  99.7761707  23.7072989
  45.3564764  99.3442905  23.5250464  44.3603503  99.6043720  24.6349884
  44.1765052  96.2793820  25.0729329  44.1213856  96.1138091  24.1317773
  43.5511108  96.9869853  25.2291518  28.9657567  91.5161884  38.8990751
  29.6116431  91.0060838  39.3877976  28.7574718  92.2530566  39.4734176
  41.4910960  98.5842732  44.3982891  42.3602119  98.7583384  44.0369526
  41.0117711  99.4037149  44.2758621  37.4861178  85.7801929  24.6514647
  37.4739848  86.7243769  24.8082918  38.3784600  85.5972074  24.3574108
  35.6597140 105.7039833  36.0772325  36.5624386 105.7363443  36.3938820
  35.4334510 104.7740284  36.0918661  37.4150742 104.4570819  32.7382404
  36.4646373 104.4572681  32.6246776  37.7183228 103.7103554  32.2218438
  41.3013297  82.3744706  28.9060584  40.5345693  81.8203192  29.0517266
  41.7124002  82.4466574  29.7674735  33.3055058  88.6629501  42.9965765
  34.1686520  88.3066306  43.2069090  32.7320469  88.3243396  43.6841169
  53.1503435 110.2931358  33.8028166  53.7881845 110.1738105  33.0991506
  53.0324278 111.2412202  33.8616118  49.9593142 110.2458786  33.7389691
  49.6211653 110.1299851  32.8510226  50.8282910 109.8449951  33.7190697
  45.8179957 112.0994262  29.7286582  45.2544822 112.0084199  28.9602869
  45.7032352 111.2794167  30.2089074  50.4412925 111.3993638  39.6975896
  50.4301565 111.0046436  38.8256400  50.6033564 110.6659710  40.2909668
  43.3644389 113.5945454  32.5670802  44.1565681 113.2536279  32.1517101
  43.6041039 113.7040429  33.4872955  51.3979516 115.7665230  25.0401047
  50.7467496 116.3519310  24.6535060  52.1923879 116.2971425  25.0996084
  45.3235143 112.8554367  25.4388181  46.0966019 112.3083354  25.3001057
  45.6760542 113.7198617  25.6502642  47.1620186 114.1830749  38.6455080
  46.8710052 115.0876380  38.5301747  47.7977170 114.2247277  39.3599150
  48.0876393 111.5607598  35.2356440  48.6839965 111.3363620  34.5213403
  48.1451364 110.8192343  35.8381888  47.6601421 109.0147033  23.0706631
  47.9126942 108.4928555  22.3090094  46.7225980 108.8513179  23.1733314
  52.7044704 108.0182812  30.8781374  53.4907793 107.6002235  30.5271791
  52.9683408 108.9228904  31.0463022  52.8754781 113.4555662  25.5770031
  52.2400614 113.5290289  26.2890935  52.5452188 114.0449261  24.8989110
  58.1053131 107.9558045  31.7814353  58.8378303 107.3857262  32.0152182
  57.3492487 107.5679645  32.2220858  47.3797710 110.9175139  25.2731006
  47.2633968 110.2420043  25.9412090  47.4899970 110.4307513  24.4563159
  49.7229251 110.3785286  28.9777695  49.3587458 109.8515907  29.6890616
  50.5796367 109.9883755  28.8044180  55.6278551 101.6679619  36.2408961
  55.2961876 102.5375030  36.0170176  55.0324165 101.3515903  36.9202992
  49.3634738 105.4075186  23.9739044  49.5309140 106.2755422  24.3409515
  49.1731907 105.5702468  23.0500333  52.1210071 113.8692165  35.6404874
  51.8210794 114.7717204  35.5320681  51.7761130 113.6024348  36.4926027
  45.5722552 110.3205962  31.6741578  44.6473049 110.1882176  31.8819270
  45.8206965 111.1000181  32.1711521  55.5207215 106.3874705  33.3202311
  54.6124092 106.3190114  33.0261072  55.4694810 106.8646650  34.1484137
  49.3423958 107.8632844  24.9585710  49.2223584 108.3089894  25.7971191
  48.6476547 108.2118161  24.3999248  42.9331363 109.9639235  32.5085367
  43.0623744 110.2173714  33.4224779  42.2528815 110.5566943  32.1890022
  47.1030851 120.6336485  28.6075842  47.0254880 121.5844310  28.6864322
  46.4992494 120.2882358  29.2650768  49.5948080 107.8064351  41.2637208
  48.8181414 108.3658271  41.2540073  50.2338643 108.2921134  41.7852079
  57.3868861 104.5891144  35.0980185  56.7443241 104.8823677  34.4519980
  56.8823789 104.4744064  35.9033382  55.0409025 108.3354317  25.7866044
  55.9526881 108.5681704  25.6113742  54.5318672 108.9191361  25.2241123
  47.8494453 110.6149804  40.8255175  48.5909137 111.1534848  40.5489999
  47.1431438 111.2416093  40.9826727  53.3249792 112.7578945  39.4227337
  53.7333148 112.3161355  38.6781969  52.6027054 112.1831572  39.6761530
  49.6780862 107.6951551  36.7960894  50.5242058 108.1190965  36.9395543
  49.6179500 107.0385176  37.4899457  53.6478607 113.3180135  33.1779626
  53.0187469 113.4825849  32.4755694  53.2604269 113.7321745  33.9490590
  57.5267839 114.2534573  30.5323990  56.8418877 114.6333474  29.9821023
  57.6111688 114.8629900  31.2655937  52.8280308 105.3555920  38.4542068
  52.5841240 106.1097980  37.9176343  53.1040238 105.7341267  39.2889315
  54.7818770 111.8994532  37.1319333  54.9935666 112.5426292  36.4553714
  54.7348519 111.0656849  36.6641263  52.3844999 104.5112353  34.0355905
  51.5229478 104.8093606  34.3272643  52.4107434 104.7282752  33.1036938
  49.2006569 113.0554543  30.4429711  49.6644914 113.3342246  29.6534333
  48.9363367 112.1537988  30.2602802  46.0930650 112.6026025  33.3809474
  46.6632007 113.0313293  32.7426959  46.6838762 112.3208610  34.0793660
  48.1375455 109.1777696  27.2519276  48.8399498 109.6298739  27.7193202
  47.8056083 108.5361515  27.8799169  46.5855816 107.7689452  41.6270485
  45.9554477 108.4505733  41.8605882  46.4791904 107.6572534  40.6823624
  41.8800789 107.4361248  32.5536410  41.0899843 107.6918777  32.0776520
  42.3712036 108.2509586  32.6588450  55.8964598 114.7766488  35.3041690
  56.7182042 114.3746675  35.0224372  55.8927001 114.6734722  36.2557806
  43.8315534 107.8005828  29.5119886  43.0346697 107.9124522  30.0303382
  43.6041126 108.1392480  28.6460777  49.6621202 114.3250531  37.4602401
  49.7265634 114.7870938  38.2960573  48.9532126 113.6947896  37.5884711
  40.1638492 107.6891739  34.9851400  40.4146530 108.5738749  35.2508976
  40.6998040 107.5096340  34.2126492  63.9870591 111.1205236  31.6526662
  63.2334300 110.5512634  31.4970666  64.1218133 111.0867900  32.5997297
  49.3769219 115.9918638  27.3281381  49.2414894 116.8370174  27.7566229
  49.9179032 116.1937916  26.5647315  45.8636559 102.0710218  43.9895737
  45.4703505 101.5176417  44.6643381  46.6802699 102.3820797  44.3802254
  42.8298617 113.5094076  27.9009306  43.3423137 114.3037327  28.0514871
  43.4821330 112.8120367  27.8342908  44.6393502 116.6259833  29.9832060
  44.8160130 117.5477797  29.7953043  45.4350335 116.3118252  30.4126439
  48.7804520 103.4868097  41.5815993  49.5214233 104.0875250  41.5020456
  49.0122443 102.7445735  41.0234036  43.9245858 108.6724465  39.8594223
  43.8099373 107.7709722  40.1601322  43.0690376 108.9188161  39.5079039
  51.0037696 116.6142205  41.4581723  50.5601550 115.8278583  41.1402628
  51.6654909 116.8021355  40.7925614  45.7624817 118.1438006  35.9842402
  46.3132242 118.0155070  35.2119396  44.9236293 118.4432895  35.6337295
  53.1018934 116.8945005  39.4863125  53.0837409 117.7153886  38.9943394
  54.0238854 116.7699080  39.7113266  49.5591988 114.4089134  40.3286633
  50.0920325 113.6477422  40.0985941  49.0306069 114.1162786  41.0710788
  52.7261683  99.5149200  35.8580275  52.3825952 100.4050842  35.7819385
  53.0940646  99.3250858  34.9949860  40.7947534 111.8382731  28.6768877
  41.6322756 112.2479739  28.4602585  40.9725801 110.8982173  28.6469071
  52.6911966 109.5057811  24.3652710  52.1758589 110.2762416  24.6041097
  52.4189274 108.8322947  24.9885771  50.2759077 104.3507512  29.4237948
  49.4200673 103.9614362  29.2443587  50.6886029 104.4299473  28.5637734
  51.8058223 101.8853855  33.8229508  51.3023019 101.8483991  33.0097313
  52.0988830 102.7946598  33.8826165  48.0501109 101.9692585  32.8295690
  48.9154106 101.7735394  32.4701579  48.1178618 101.7402937  33.7565047
  57.6646240 112.2590166  26.3005883  56.8875683 111.9201325  25.8561045
  58.3437721 112.2642789  25.6260848  52.4798269 107.3784903  26.1912491
  52.1748405 107.6931053  27.0422634  53.4328711 107.4566323  26.2339824
  50.9244701 113.5375127  27.8405445  50.3966062 112.8027886  27.5278682
  50.4232204 114.3149803  27.5945413  55.9037547 111.7324147  32.9572491
  55.2461221 112.4223409  33.0452620  56.7077946 112.1220579  33.3006478
  45.6563428 104.1994793  30.2012057  46.2307180 103.9769974  29.4685250
  46.2434411 104.2683487  30.9540658  54.7143006 110.0868520  31.0076433
  55.2274887 110.7198512  31.5098143  55.3644230 109.4869715  30.6419793
  45.9833016 106.2299254  24.2207942  45.1470328 106.5673941  24.5417217
  45.8437785 106.0948234  23.2835079  47.9586096 101.0736042  28.9287126
  47.3050508 100.7585059  28.3043741  47.9166570 100.4511782  29.6546949
  49.0697301 111.3555337  20.8440418  48.1624363 111.1244590  21.0431567
  49.5668333 110.5592956  21.0314400  51.9765380 120.0652844  23.7637104
  51.3027079 120.3684541  24.3722062  52.3631202 120.8681924  23.4142561
  51.1923836 107.5617975  33.2534774  50.2746398 107.7832922  33.0956462
  51.6083980 107.6364286  32.3946481  51.9758884 108.9609391  28.3837454
  52.7230703 109.4730788  28.0744576  52.2450474 108.6393444  29.2441847
  50.2485534 111.4567932  25.3664408  49.3396754 111.1726965  25.4636878
  50.2780618 111.8767010  24.5067715  55.4804802 115.0674521  29.1355576
  55.0267129 114.2265431  29.1920766  54.8498769 115.7035920  29.4730356
  54.4237721 105.9966507  30.3656243  53.6860478 105.4843894  30.6966486
  54.6764495 105.5566889  29.5539520  53.9237741 116.9051018  30.0705394
  54.2160715 117.4656075  29.3517759  54.4336362 117.1979579  30.8258553
  54.5249349  98.7742759  30.9598012  54.8308226  97.9140123  30.6723928
  55.2501954  99.3660380  30.7597006  40.8173705 109.1773446  29.3479610
  40.6198105 108.5842807  28.6230677  40.2620369 108.8725656  30.0655549
  48.7970428 109.0696552  31.4674204  48.8519038 108.1170389  31.3916680
  47.9861630 109.2255992  31.9515502  49.9461622 112.9976676  22.7052487
  49.5081052 112.2812534  22.2458124  50.6872063 113.2252790  22.1437578
  46.7362788 107.6873612  29.2264582  45.9230654 107.9867783  29.6329775
  47.2321783 107.2929301  29.9439065  48.8871366 117.6831369  31.1598847
  48.8447545 117.9092215  30.2307379  49.8034065 117.4494744  31.3084648
  52.3337000 108.1515437  38.0579476  52.6886388 108.3786910  38.9173942
  52.9809131 108.4833813  37.4356732  58.0634737 111.2733873  28.7628805
  57.9252636 111.4635469  27.8349995  57.7070956 112.0353255  29.2196856
  46.2276863 105.2591968  34.8425817  46.8676242 105.1180727  34.1448781
  45.3954394 104.9726481  34.4664419  58.0904117 113.3410400  33.7740077
  58.5240623 113.2485689  34.6223131  58.8035697 113.3167900  33.1360093
  47.0037167 114.5594398  30.9560810  47.7977766 114.0644718  30.7543385
  46.2928859 114.0312261  30.5928515  51.8232012 116.9412494  35.3073177
  51.8769034 117.5103430  36.0750893  50.9546793 117.1114379  34.9427215
  43.3119931 108.7037480  27.0320562  42.3817519 108.6421935  27.2490525
  43.4077403 108.1813433  26.2357204  43.2305480 105.2292293  29.6198804
  43.4912297 106.1437626  29.5107965  44.0522652 104.7616735  29.7695417
  44.7030405 106.6430050  36.7897629  45.3753458 106.4347412  36.1410278
  43.8760191 106.4452136  36.3502861  58.9519666 113.3834100  36.3072962
  59.1455556 114.2879911  36.5532237  58.8520284 112.9241519  37.1411547
  50.6055977 103.2691991  38.8063290  49.9583892 103.9681940  38.7127766
  51.3756992 103.7028135  39.1739538  54.0134775 113.5340843  41.8813843
  53.8620281 113.3051395  40.9643927  54.0039454 114.4911444  41.8945188
  50.7820111 111.1072756  36.8660109  51.7112171 111.2583915  36.6929077
  50.3611141 111.1956776  36.0108756  49.5808443 115.1323420  34.6358647
  49.4419529 114.7642205  35.5084585  48.7923039 115.6471060  34.4642605
  50.1756595 120.2332517  25.9784183  50.3508351 119.7620560  26.7929806
  49.4889383 120.8598283  26.2065444  51.1313658 114.5105023  32.0247485
  50.7963491 114.4705793  32.9205135  50.6317604 113.8449739  31.5517895
  45.1057902 109.9172653  37.5500066  44.9677700 109.1852892  38.1511605
  46.0162826 109.8281553  37.2684254  54.0672850 111.8561057  22.2984544
  53.4502020 111.1307885  22.2017597  53.5989338 112.6170417  21.9551619
  47.7340203 109.6292612  37.0383745  48.4439821 108.9885804  36.9970364
  47.6909511 109.8805507  37.9609926  55.7226981 116.5659965  39.9590325
  55.6639528 115.8819186  39.2920908  56.1246500 117.3078956  39.5070951
  46.4469137 106.6157830  38.8579385  45.9106494 106.1648569  39.5100981
  45.8585845 106.7503739  38.1149849  44.7417680 123.3821879  32.7524044
  44.9814279 124.0140404  33.4303062  43.8986877 123.0309919  33.0389403
  45.8571396 106.0746481  21.4205849  44.9800862 105.9535282  21.0568095
  46.3329149 105.2832560  21.1684737  55.7244389 114.5299549  38.1904304
  54.8371168 114.1925471  38.3130703  56.2942940 113.7982581  38.4273070
  37.3773536 110.8623641  31.5147356  38.0644576 110.5485371  30.9268371
  37.2221665 111.7665006  31.2414607  42.1808258 105.7513838  35.9432379
  42.0966447 105.1439507  35.2082789  41.3590964 106.2422856  35.9441876
  49.2545542 119.1901002  35.1565548  49.1815714 119.9955973  35.6684852
  48.8122935 119.3892968  34.3313569  49.0435322 118.4272772  28.6668369
  48.2602844 118.9694452  28.7606594  49.7428067 118.9446751  29.0662610
  52.3531972 104.2367401  31.3102575  52.8500671 103.4837364  30.9903645
  51.5818953 104.2731718  30.7445784  60.2061729 109.9407767  32.9520866
  60.1951606 110.8232482  32.5814799  59.3379109 109.5879318  32.7575403
  51.7144226 119.0887836  37.3123706  52.4272198 119.7235301  37.2399608
  51.2234254 119.1851702  36.4963708  53.4361753 112.9939088  28.8840998
  52.5018031 113.1140551  28.7145702  53.6138421 112.0911555  28.6201008
  48.9366941 106.3784784  31.0374259  48.5664728 105.8255825  31.7255165
  49.4326033 105.7742918  30.4849259  56.8234304 108.8356408  29.4191032
  57.2894756 109.6684399  29.3451335  57.2741804 108.3701389  30.1236291
  46.7656139 116.8382279  38.1329277  47.4665599 117.4718762  38.2858671
  46.2951254 117.1797011  37.3724916  54.8910535 115.1800229  26.4177184
  55.1670379 115.0656824  27.3271058  54.0215034 114.7817714  26.3789357
  54.7950967 101.2036995  33.4581933  53.8814046 101.4341222  33.6264140
  55.2244068 101.2875439  34.3095966  54.5657425 109.3926887  35.9581827
  53.9128875 109.6402794  35.3034280  54.9437805 108.5791025  35.6244305
  51.5264599 119.4286580  30.0609998  51.7086994 118.6108236  30.5237750
  52.3497585 119.6454272  29.6234888  51.8606765 118.3554765  27.3225046
  52.3894531 117.8447220  26.7095208  52.1234984 118.0397295  28.1870579
  50.6144998 110.1346698  42.4447864  49.9385635 110.0340827  43.1150240
  51.4372632 109.9785912  42.9083862  42.3623857 116.3718634  35.0660380
  42.9477294 115.6262322  35.1988284  42.1648696 116.6822591  35.9497044
  45.2162512 119.4069882  30.0822822  44.5472888 119.8916009  29.5986862
  45.0775382 119.6539102  30.9966201  36.9541512 108.9424235  33.7864823
  36.9925612 108.4087825  34.5801941  36.4481805 108.4159440  33.1675800
  49.3567781 121.4413625  36.6805480  49.9086089 121.6045247  37.4454566
  49.6973975 122.0318063  36.0085505  44.3332274 103.7888775  37.2827365
  44.3973601 104.6503606  36.8704763  44.2699395 103.1762777  36.5499724
  43.8084547 105.8611908  40.9300399  44.4356586 105.4788985  41.5437924
  42.9512466 105.6426110  41.2956092  54.2078655 116.2674883  42.5354135
  54.7518559 116.8804841  42.0409090  53.6265500 116.8254461  43.0521148
  40.5850090 107.6688337  26.8618754  40.8803531 106.7599015  26.8085808
  39.6838125 107.6476076  26.5399757  52.4936168 119.3895601  33.6669163
  52.3687308 118.5885341  33.1580108  53.1515259 119.8841794  33.1783133
  44.1144337 105.7444333  32.8446303  43.3930922 106.3580301  32.7053776
  44.9037592 106.2802098  32.7662949  54.5571077 117.1904621  35.2948713
  53.6101412 117.0709972  35.2227039  54.9053850 116.3027119  35.3774974
  46.9170650 103.0798760  39.1186955  47.4405052 103.3261056  39.8813264
  46.6982983 103.9118795  38.6990092  42.3137931 105.3502434  26.9858079
  41.9850637 104.4699813  26.8033185  42.6677302 105.2950103  27.8734469
  51.5617510 116.9857337  31.4953065  51.4142472 116.0574044  31.6760635
  52.3871004 117.0077428  31.0110140  45.4279754 105.6375404  27.3533557
  45.7675827 106.1661325  26.6312165  45.8751875 105.9755810  28.1292124
  55.1651632 117.8085896  32.5817938  56.0898179 117.6028757  32.4442389
  54.9966935 117.5602297  33.4907279  48.1223195 104.0212455  36.8036625
  47.7820016 103.2220268  37.2057305  47.4162201 104.3214166  36.2313458
  48.7739667 101.1061767  35.2563948  49.5965736 100.6322245  35.1342839
  49.0177731 101.8852251  35.7562634  47.4147901 104.1350026  25.5526850
  48.1356264 104.5131279  25.0490567  46.7913206 104.8538903  25.6561828
  51.5579024 104.8395175  26.4885182  51.7742639 105.7219813  26.1874010
  51.0773092 104.4481388  25.7590824  46.2978246 107.7980888  33.0655927
  46.1522826 108.1121191  33.9580208  45.8203449 108.4165788  32.5126825
  48.1574629 104.7883436  33.1136816  48.1436197 103.8924529  32.7769114
  48.8747057 104.7954100  33.7475102  50.0100759 105.2220776  35.1589944
  49.7518537 106.1437847  35.1574274  49.4785800 104.8251211  35.8490408
  54.9546948 118.3271563  27.9380029  55.1283826 117.7617986  27.1853882
  55.4475839 119.1272458  27.7559519  40.7723908 110.3386232  36.0043588
  40.2277376 111.1146040  36.1363862  41.6503258 110.6857037  35.8462709
  47.5611525 103.6697816  28.3824386  47.6827436 102.7414462  28.5815274
  47.2713567 103.6836502  27.4702702  50.4302715 101.3552727  31.5191106
  50.4524412 101.4192060  30.5643086  50.8470774 100.5157235  31.7131612
  60.8086339 111.0907986  29.5570329  61.2517485 110.3415311  29.1589452
  59.9312850 111.0818123  29.1744061  55.9422121 117.6438328  25.0376927
  56.6373025 118.2645020  25.2564242  56.2845271 116.7933679  25.3129305
  41.5589930 109.4656129  38.8973745  40.8171666 109.6138764  39.4838375
  41.2382674 109.7264394  38.0340494  57.8413544 115.0938033  26.5664258
  58.3664868 115.4325306  25.8413578  57.7535896 114.1585049  26.3827393
  49.5033592 119.0072107  38.6954135  49.8120719 118.7621254  39.5676834
  50.3009074 119.2118745  38.2073005  49.5254204 121.1610016  30.9259511
  49.0859195 120.6686395  31.6192368  50.2762321 120.6182984  30.6851587
  42.0046543 117.3521557  30.9284139  42.8304563 117.0525329  30.5482783
  41.6540595 116.5829180  31.3773928  46.9728077 116.7048026  32.9981813
  46.3508086 116.0418731  32.6984041  47.6432944 116.7309157  32.3155461
  40.2055148 115.2707884  31.8873073  39.3687057 114.8430058  31.7057074
  40.1778794 115.4640327  32.8243864  47.0452604 105.1829814  42.5914319
  47.0940760 106.0591936  42.2092089  47.5875118 104.6407207  42.0185962
  57.5307450 115.7270937  41.8715456  56.7402993 115.7095076  41.3319956
  57.2940804 116.2659231  42.6264493  57.6505325 112.5763403  39.1848185
  57.7003330 112.4113411  40.1263707  57.5419248 111.7090662  38.7946065
  46.5341584 115.2551949  26.4740274  46.6829704 115.9387413  25.8206946
  47.3408027 115.2357039  26.9889729  54.9409087 108.5594331  40.5007491
  55.8418950 108.4200796  40.2091489  55.0157062 108.7248786  41.4405669
  49.2751893 105.9361186  39.3460678  48.4055202 106.2294752  39.0743266
  49.5111373 106.5201631  40.0667941  59.1523522 114.9960345  39.4290206
  58.8608330 115.3590325  40.2653667  58.5395653 114.2827353  39.2503538
  60.3519204 112.5613224  31.9492776  61.1866095 113.0003029  32.1130337
  60.4878333 112.0851878  31.1301022  57.4010710 110.1192959  37.8970264
  57.8764831 110.3120606  37.0889116  56.4776275 110.1752145  37.6513648
  44.2894216 111.2817127  27.4801343  44.0440258 110.3779457  27.6781553
  44.4590131 111.2834277  26.5380821  51.9790926 102.1540803  36.8626098
  52.4972870 102.8901830  36.5372587  51.6246059 102.4604796  37.6972857
  43.5589864 107.0145484  24.9787504  42.8659109 107.0889839  24.3227540
  43.3141616 106.2505828  25.5009021  52.2303521  98.5741085  32.3826995
  52.5105274  97.9064275  33.0087421  53.0154127  98.7670181  31.8701659
  50.0336989 117.7500079  23.9452021  49.4610956 118.3690266  23.4922493
  50.6069783 118.2999441  24.4791943  56.1012379 106.9958719  36.1298570
  57.0529802 107.0956817  36.1510794  55.9315829 106.2036988  36.6396654
  54.1226758 104.0814303  36.3157971  53.5276690 104.3619315  35.6204459
  53.8376455 104.5708204  37.0874712  53.2534249 118.0337229  25.0760603
  54.1864922 117.9682791  25.2793479  53.1657462 118.8693496  24.6175136
  55.8822265 117.3503100  22.0364551  55.8035897 117.0162963  22.9300309
  56.7031932 117.8424868  22.0356023  58.5800457 110.2164839  35.2440869
  58.5476777 109.2780840  35.4300553  59.1901080 110.2948876  34.5106694
  50.4183788 109.0860892  21.2868074  51.3642892 108.9567100  21.3556492
  50.0398032 108.3475554  21.7637502  58.7294945 107.0075883  35.2899153
  58.2133994 106.2234339  35.1029082  59.6134894 106.6794599  35.4545672
  56.3905672 100.7516898  31.2494965  56.1930493 100.4431986  32.1338297
  57.0005378 101.4778537  31.3792895  64.3977007 111.2780846  34.3846906
  65.1280395 111.0166134  34.9454610  63.7883952 110.5409568  34.4248974
  62.4792304 109.4188709  34.9821357  61.7525467 109.2844673  34.3737849
  62.0639591 109.7265537  35.7878076  50.3022480 113.1378638  42.7468730
  51.2225490 113.3157237  42.9408777  50.2672063 112.1934684  42.5948430
  48.6026705 107.0110868  21.2222959  47.6958160 106.7143981  21.2985672
  48.8802686 106.7140687  20.3557245  39.5204645 108.3317232  31.6722005
  39.2007429 107.4782540  31.3796379  38.9738073 108.5465810  32.4279972
  43.2984553 111.0479673  35.3891512  43.5170562 111.9796781  35.4079545
  43.7110326 110.6887647  36.1746315  50.2188770 101.5547758  27.3767200
  49.4089499 101.2094843  27.7522446  50.9073187 101.2455302  27.9654812
  52.1479319 100.6325805  28.9991497  52.7010357 101.0521258  29.6581520
  52.3849405  99.7061553  29.0414453  48.1712418 106.6212879  44.7794261
  48.0709145 107.5707236  44.7106352  47.9533960 106.2931118  43.9070331
  47.3725489 103.8697804  21.3634938  48.2344653 104.1952702  21.6230755
  47.5575833 103.0829300  20.8508004  39.3892905 111.9520143  33.6415127
  38.6956377 111.5374096  33.1285081  40.1365896 111.9940680  33.0448546
  55.5258126 102.7426330  28.5070161  54.9456795 103.4011134  28.1248213
  55.2594058 101.9203675  28.0957578  53.9761692 102.1431388  30.7091481
  54.4761471 102.2547922  29.9005800  54.6197300 101.8392441  31.3492290
  48.0343688 110.0510017  43.5959322  47.5510770 110.8510378  43.8023211
  48.1204627 110.0617962  42.6426766  41.3029648 111.8838397  31.5181142
  41.2800336 111.9826084  30.5663025  41.6130284 112.7303548  31.8398308
  43.9617025 113.9414552  35.6327756  44.9160279 113.9098495  35.5657688
  43.7629549 113.4805176  36.4477982  44.5516408 112.5115668  38.1998554
  45.3709297 113.0059747  38.2233391  44.8253215 111.5947636  38.1716121
  54.3083004 104.9026421  27.5626509  53.4208859 105.1876071  27.3446704
  54.7236993 104.7420184  26.7153786  57.6597540 104.9272942  31.2780848
  58.4357930 105.4169394  31.5505465  56.9345674 105.3530996  31.7352718
  60.0970099 105.6400561  32.3354789  60.6914589 105.3996297  31.6248097
  60.1696682 104.9207691  32.9628325  42.3167254 119.4834172  32.6497954
  42.1821722 118.7234573  32.0835952  41.8999317 120.2075072  32.1826743
  53.4526217 114.6671095  21.6574529  54.1562067 114.8721098  22.2732185
  52.7288866 115.2347857  21.9223613  54.2824028 110.4180956  27.7776799
  54.2259229 110.8749508  26.9384432  54.8352370 109.6571641  27.5999642
  58.0928833 106.2070688  28.6026919  57.8365768 105.8067324  29.4335127
  57.4681702 106.9214482  28.4777058  62.4041171 108.9466762  31.1098210
  61.8440729 109.0159951  31.8829772  61.7984675 108.7707746  30.3897707
  45.4736380 120.3803489  32.8616397  45.3568764 121.3248921  32.7595087
  44.6528826 120.0777050  33.2502196  55.3612915 115.1053624  23.7072989
  56.1958519 114.6734823  23.5250464  55.1997258 114.9335638  24.6349884
  55.0158807 111.6085738  25.0729329  54.9607611 111.4430009  24.1317773
  54.3904862 112.3161771  25.2291518  39.8051322 106.8453802  38.8990751
  40.4510185 106.3352756  39.3877976  39.5968473 107.5822484  39.4734176
  52.3304714 113.9134650  44.3982891  53.1995874 114.0875302  44.0369526
  51.8511466 114.7329066  44.2758621  48.3254932 101.1093847  24.6514647
  48.3133602 102.0535687  24.8082918  49.2178354 100.9263992  24.3574108
  46.4990894 121.0331751  36.0772325  47.4018141 121.0655361  36.3938820
  46.2728264 120.1032202  36.0918661  48.2544496 119.7862737  32.7382404
  47.3040127 119.7864599  32.6246776  48.5576982 119.0395472  32.2218438
  52.1407052  97.7036623  28.9060584  51.3739448  97.1495110  29.0517266
  52.5517757  97.7758492  29.7674735  44.1448813 103.9921419  42.9965765
  45.0080274 103.6358224  43.2069090  43.5714224 103.6535314  43.6841169
  63.9897190 125.6223276  33.8028166  64.6275600 125.5030023  33.0991506
  63.8718033 126.5704119  33.8616118  60.7986896 125.5750704  33.7389691
  60.4605408 125.4591768  32.8510226  61.6676664 125.1741869  33.7190697
  56.6573712 127.4286180  29.7286582  56.0938577 127.3376117  28.9602869
  56.5426107 126.6086084  30.2089074  61.2806679 126.7285555  39.6975896
  61.2695320 126.3338354  38.8256400  61.4427319 125.9951628  40.2909668
  54.2038144 128.9237372  32.5670802  54.9959436 128.5828196  32.1517101
  54.4434794 129.0332347  33.4872955  62.2373270 131.0957148  25.0401047
  61.5861250 131.6811228  24.6535060  63.0317633 131.6263343  25.0996084
  56.1628898 128.1846285  25.4388181  56.9359774 127.6375272  25.3001057
  56.5154296 129.0490534  25.6502642  58.0013940 129.5122667  38.6455080
  57.7103806 130.4168298  38.5301747  58.6370925 129.5539195  39.3599150
  58.9270147 126.8899516  35.2356440  59.5233719 126.6655538  34.5213403
  58.9845119 126.1484261  35.8381888  58.4995175 124.3438951  23.0706631
  58.7520696 123.8220472  22.3090094  57.5619735 124.1805096  23.1733314
  63.5438458 123.3474729  30.8781374  64.3301547 122.9294153  30.5271791
  63.8077163 124.2520822  31.0463022  63.7148536 128.7847580  25.5770031
  63.0794369 128.8582206  26.2890935  63.3845942 129.3741179  24.8989110
  68.9446885 123.2849963  31.7814353  69.6772057 122.7149179  32.0152182
  68.1886241 122.8971563  32.2220858  58.2191464 126.2467057  25.2731006
  58.1027722 125.5711960  25.9412090  58.3293724 125.7599431  24.4563159
  60.5623005 125.7077204  28.9777695  60.1981212 125.1807825  29.6890616
  61.4190121 125.3175673  28.8044180  66.4672306 116.9971537  36.2408961
  66.1355631 117.8666948  36.0170176  65.8717919 116.6807821  36.9202992
  60.2028492 120.7367104  23.9739044  60.3702894 121.6047340  24.3409515
  60.0125661 120.8994385  23.0500333  62.9603825 129.1984083  35.6404874
  62.6604548 130.1009121  35.5320681  62.6154885 128.9316266  36.4926027
  56.4116307 125.6497880  31.6741578  55.4866803 125.5174094  31.8819270
  56.6600720 126.4292099  32.1711521  66.3600969 121.7166623  33.3202311
  65.4517846 121.6482031  33.0261072  66.3088565 122.1938568  34.1484137
  60.1817713 123.1924761  24.9585710  60.0617338 123.6381812  25.7971191
  59.4870301 123.5410079  24.3999248  53.7725118 125.2931153  32.5085367
  53.9017499 125.5465632  33.4224779  53.0922569 125.8858861  32.1890022
  57.9424605 135.9628403  28.6075842  57.8648635 136.9136228  28.6864322
  57.3386249 135.6174276  29.2650768  60.4341835 123.1356268  41.2637208
  59.6575169 123.6950189  41.2540073  61.0732398 123.6213051  41.7852079
  68.2262615 119.9183061  35.0980185  67.5836996 120.2115594  34.4519980
  67.7217544 119.8035982  35.9033382  65.8802779 123.6646234  25.7866044
  66.7920635 123.8973621  25.6113742  65.3712426 124.2483279  25.2241123
  58.6888207 125.9441722  40.8255175  59.4302892 126.4826766  40.5489999
  57.9825193 126.5708011  40.9826727  64.1643547 128.0870862  39.4227337
  64.5726903 127.6453273  38.6781969  63.4420808 127.5123490  39.6761530
  60.5174617 123.0243469  36.7960894  61.3635812 123.4482883  36.9395543
  60.4573255 122.3677093  37.4899457  64.4872361 128.6472053  33.1779626
  63.8581224 128.8117767  32.4755694  64.0998024 129.0613662  33.9490590
  68.3661593 129.5826491  30.5323990  67.6812631 129.9625392  29.9821023
  68.4505443 130.1921817  31.2655937  63.6674062 120.6847837  38.4542068
  63.4234994 121.4389898  37.9176343  63.9433993 121.0633185  39.2889315
  65.6212525 127.2286450  37.1319333  65.8329420 127.8718210  36.4553714
  65.5742273 126.3948766  36.6641263  63.2238754 119.8404270  34.0355905
  62.3623233 120.1385524  34.3272643  63.2501189 120.0574669  33.1036938
  60.0400323 128.3846461  30.4429711  60.5038669 128.6634164  29.6534333
  59.7757121 127.4829906  30.2602802  56.9324404 127.9317943  33.3809474
  57.5025761 128.3605211  32.7426959  57.5232516 127.6500527  34.0793660
  58.9769209 124.5069613  27.2519276  59.6793253 124.9590657  27.7193202
  58.6449838 123.8653432  27.8799169  57.4249571 123.0981370  41.6270485
  56.7948231 123.7797651  41.8605882  57.3185659 122.9864452  40.6823624
  52.7194543 122.7653166  32.5536410  51.9293597 123.0210695  32.0776520
  53.2105791 123.5801504  32.6588450  66.7358353 130.1058405  35.3041690
  67.5575797 129.7038592  35.0224372  66.7320756 130.0026639  36.2557806
  54.6709289 123.1297745  29.5119886  53.8740452 123.2416440  30.0303382
  54.4434881 123.4684397  28.6460777  60.5014956 129.6542448  37.4602401
  60.5659389 130.1162856  38.2960573  59.7925880 129.0239813  37.5884711
  51.0032246 123.0183656  34.9851400  51.2540285 123.9030666  35.2508976
  51.5391795 122.8388258  34.2126492  74.8264346 126.4497154  31.6526662
  74.0728054 125.8804552  31.4970666  74.9611887 126.4159818  32.5997297
  60.2162974 131.3210556  27.3281381  60.0808649 132.1662092  27.7566229
  60.7572786 131.5229834  26.5647315  56.7030314 117.4002136  43.9895737
  56.3097259 116.8468334  44.6643381  57.5196454 117.7112714  44.3802254
  53.6692371 128.8385994  27.9009306  54.1816892 129.6329244  28.0514871
  54.3215084 128.1412284  27.8342908  55.4787256 131.9551750  29.9832060
  55.6553884 132.8769715  29.7953043  56.2744090 131.6410170  30.4126439
  59.6198275 118.8160015  41.5815993  60.3607988 119.4167168  41.5020456
  59.8516197 118.0737653  41.0234036  54.7639613 124.0016382  39.8594223
  54.6493128 123.1001639  40.1601322  53.9084130 124.2480079  39.5079039
  61.8431450 131.9434122  41.4581723  61.3995305 131.1570501  41.1402628
  62.5048664 132.1313273  40.7925614  56.6018572 133.4729924  35.9842402
  57.1525997 133.3446987  35.2119396  55.7630047 133.7724813  35.6337295
  63.9412688 132.2236922  39.4863125  63.9231164 133.0445803  38.9943394
  64.8632608 132.0990998  39.7113266  60.3985743 129.7381052  40.3286633
  60.9314079 128.9769340  40.0985941  59.8699824 129.4454704  41.0710788
  63.5655438 114.8441118  35.8580275  63.2219707 115.7342760  35.7819385
  63.9334400 114.6542775  34.9949860  51.6341288 127.1674648  28.6768877
  52.4716510 127.5771657  28.4602585  51.8119556 126.2274090  28.6469071
  63.5305720 124.8349729  24.3652710  63.0152344 125.6054334  24.6041097
  63.2583029 124.1614865  24.9885771  61.1152831 119.6799430  29.4237948
  60.2594428 119.2906280  29.2443587  61.5279783 119.7591391  28.5637734
  62.6451978 117.2145773  33.8229508  62.1416774 117.1775908  33.0097313
  62.9382585 118.1238516  33.8826165  58.8894864 117.2984503  32.8295690
  59.7547861 117.1027311  32.4701579  58.9572373 117.0694855  33.7565047
  68.5039994 127.5882084  26.3005883  67.7269437 127.2493243  25.8561045
  69.1831475 127.5934707  25.6260848  63.3192023 122.7076821  26.1912491
  63.0142159 123.0222970  27.0422634  64.2722466 122.7858241  26.2339824
  61.7638455 128.8667044  27.8405445  61.2359817 128.1319804  27.5278682
  61.2625958 129.6441721  27.5945413  66.7431301 127.0616065  32.9572491
  66.0854976 127.7515326  33.0452620  67.5471701 127.4512497  33.3006478
  56.4957183 119.5286711  30.2012057  57.0700935 119.3061892  29.4685250
  57.0828165 119.5975405  30.9540658  65.5536760 125.4160438  31.0076433
  66.0668642 126.0490429  31.5098143  66.2037984 124.8161633  30.6419793
  56.8226770 121.5591172  24.2207942  55.9864082 121.8965858  24.5417217
  56.6831540 121.4240151  23.2835079  58.7979851 116.4027960  28.9287126
  58.1444263 116.0876977  28.3043741  58.7560325 115.7803700  29.6546949
  59.9091055 126.6847255  20.8440418  59.0018117 126.4536508  21.0431567
  60.4062087 125.8884874  21.0314400  62.8159134 135.3944762  23.7637104
  62.1420833 135.6976459  24.3722062  63.2024956 136.1973842  23.4142561
  62.0317591 122.8909893  33.2534774  61.1140152 123.1124840  33.0956462
  62.4477735 122.9656204  32.3946481  62.8152639 124.2901309  28.3837454
  63.5624458 124.8022706  28.0744576  63.0844228 123.9685362  29.2441847
  61.0879289 126.7859850  25.3664408  60.1790508 126.5018882  25.4636878
  61.1174373 127.2058928  24.5067715  66.3198556 130.3966439  29.1355576
  65.8660883 129.5557349  29.1920766  65.6892523 131.0327837  29.4730356
  65.2631476 121.3258425  30.3656243  64.5254233 120.8135811  30.6966486
  65.5158249 120.8858807  29.5539520  64.7631496 132.2342936  30.0705394
  65.0554470 132.7947993  29.3517759  65.2730116 132.5271497  30.8258553
  65.3643103 114.1034677  30.9598012  65.6701980 113.2432040  30.6723928
  66.0895708 114.6952297  30.7597006  51.6567459 124.5065364  29.3479610
  51.4591859 123.9134724  28.6230677  51.1014123 124.2017574  30.0655549
  59.6364183 124.3988470  31.4674204  59.6912793 123.4462307  31.3916680
  58.8255385 124.5547909  31.9515502  60.7855377 128.3268593  22.7052487
  60.3474807 127.6104452  22.2458124  61.5265818 128.5544708  22.1437578
  57.5756543 123.0165530  29.2264582  56.7624408 123.3159700  29.6329775
  58.0715537 122.6221219  29.9439065  59.7265121 133.0123287  31.1598847
  59.6841300 133.2384133  30.2307379  60.6427820 132.7786661  31.3084648
  63.1730755 123.4807354  38.0579476  63.5280142 123.7078827  38.9173942
  63.8202886 123.8125731  37.4356732  68.9028491 126.6025790  28.7628805
  68.7646390 126.7927386  27.8349995  68.5464710 127.3645173  29.2196856
  57.0670618 120.5883885  34.8425817  57.7069997 120.4472644  34.1448781
  56.2348148 120.3018399  34.4664419  68.9297871 128.6702317  33.7740077
  69.3634378 128.5777606  34.6223131  69.6429452 128.6459818  33.1360093
  57.8430922 129.8886316  30.9560810  58.6371520 129.3936636  30.7543385
  57.1322614 129.3604179  30.5928515  62.6625766 132.2704411  35.3073177
  62.7162788 132.8395348  36.0750893  61.7940547 132.4406296  34.9427215
  54.1513685 124.0329398  27.0320562  53.2211273 123.9713853  27.2490525
  54.2471157 123.5105350  26.2357204  54.0699234 120.5584210  29.6198804
  54.3306051 121.4729544  29.5107965  54.8916406 120.0908653  29.7695417
  55.5424159 121.9721968  36.7897629  56.2147213 121.7639330  36.1410278
  54.7153946 121.7744054  36.3502861  69.7913421 128.7126018  36.3072962
  69.9849311 129.6171828  36.5532237  69.6914039 128.2533437  37.1411547
  61.4449731 118.5983908  38.8063290  60.7977646 119.2973858  38.7127766
  62.2150747 119.0320052  39.1739538  64.8528529 128.8632761  41.8813843
  64.7014036 128.6343312  40.9643927  64.8433209 129.8203362  41.8945188
  61.6213866 126.4364673  36.8660109  62.5505926 126.5875833  36.6929077
  61.2004896 126.5248694  36.0108756  60.4202198 130.4615338  34.6358647
  60.2813283 130.0934122  35.5084585  59.6316794 130.9762977  34.4642605
  61.0150350 135.5624434  25.9784183  61.1902105 135.0912477  26.7929806
  60.3283138 136.1890200  26.2065444  61.9707413 129.8396940  32.0247485
  61.6357245 129.7997710  32.9205135  61.4711358 129.1741656  31.5517895
  55.9451657 125.2464571  37.5500066  55.8071455 124.5144809  38.1511605
  56.8556580 125.1573471  37.2684254  64.9066604 127.1852975  22.2984544
  64.2895775 126.4599803  22.2017597  64.4383093 127.9462335  21.9551619
  58.5733957 124.9584530  37.0383745  59.2833576 124.3177722  36.9970364
  58.5303265 125.2097425  37.9609926  66.5620736 131.8951883  39.9590325
  66.5033282 131.2111103  39.2920908  66.9640254 132.6370873  39.5070951
  57.2862891 121.9449748  38.8579385  56.7500248 121.4940486  39.5100981
  56.6979600 122.0795657  38.1149849  55.5811435 138.7113797  32.7524044
  55.8208033 139.3432321  33.4303062  54.7380631 138.3601837  33.0389403
  56.6965150 121.4038399  21.4205849  55.8194617 121.2827200  21.0568095
  57.1722903 120.6124477  21.1684737  66.5638143 129.8591467  38.1904304
  65.6764922 129.5217389  38.3130703  67.1336694 129.1274498  38.4273070
  48.2167290 126.1915559  31.5147356  48.9038330 125.8777289  30.9268371
  48.0615419 127.0956923  31.2414607  53.0202013 121.0805755  35.9432379
  52.9360201 120.4731425  35.2082789  52.1984719 121.5714774  35.9441876
  60.0939297 134.5192919  35.1565548  60.0209468 135.3247891  35.6684852
  59.6516690 134.7184885  34.3313569  59.8829076 133.7564689  28.6668369
  59.0996598 134.2986370  28.7606594  60.5821821 134.2738669  29.0662610
  63.1925726 119.5659319  31.3102575  63.6894426 118.8129281  30.9903645
  62.4212708 119.6023636  30.7445784  71.0455484 125.2699684  32.9520866
  71.0345360 126.1524400  32.5814799  70.1772863 124.9171235  32.7575403
  62.5537980 134.4179753  37.3123706  63.2665952 135.0527218  37.2399608
  62.0628009 134.5143619  36.4963708  64.2755507 128.3231006  28.8840998
  63.3411786 128.4432469  28.7145702  64.4532176 127.4203473  28.6201008
  59.7760695 121.7076702  31.0374259  59.4058483 121.1547742  31.7255165
  60.2719788 121.1034835  30.4849259  67.6628058 124.1648325  29.4191032
  68.1288511 124.9976317  29.3451335  68.1135559 123.6993307  30.1236291
  57.6049894 132.1674197  38.1329277  58.3059353 132.8010680  38.2858671
  57.1345009 132.5088929  37.3724916  65.7304290 130.5092147  26.4177184
  66.0064133 130.3948741  27.3271058  64.8608788 130.1109632  26.3789357
  65.6344721 116.5328912  33.4581933  64.7207801 116.7633139  33.6264140
  66.0637823 116.6167357  34.3095966  65.4051180 124.7218804  35.9581827
  64.7522630 124.9694712  35.3034280  65.7831560 123.9082943  35.6244305
  62.3658354 134.7578498  30.0609998  62.5480748 133.9400154  30.5237750
  63.1891340 134.9746190  29.6234888  62.7000519 133.6846683  27.3225046
  63.2288285 133.1739137  26.7095208  62.9628739 133.3689213  28.1870579
  61.4538753 125.4638615  42.4447864  60.7779390 125.3632745  43.1150240
  62.2766387 125.3077829  42.9083862  53.2017612 131.7010552  35.0660380
  53.7871049 130.9554240  35.1988284  53.0042450 132.0114509  35.9497044
  56.0556267 134.7361799  30.0822822  55.3866642 135.2207927  29.5986862
  55.9169137 134.9831020  30.9966201  47.7935267 124.2716152  33.7864823
  47.8319366 123.7379743  34.5801941  47.2875559 123.7451358  33.1675800
  60.1961536 136.7705543  36.6805480  60.7479844 136.9337164  37.4454566
  60.5367729 137.3609981  36.0085505  55.1726029 119.1180693  37.2827365
  55.2367355 119.9795524  36.8704763  55.1093149 118.5054694  36.5499724
  54.6478301 121.1903825  40.9300399  55.2750340 120.8080903  41.5437924
  53.7906220 120.9718027  41.2956092  65.0472410 131.5966800  42.5354135
  65.5912314 132.2096759  42.0409090  64.4659255 132.1546379  43.0521148
  51.4243844 122.9980254  26.8618754  51.7197285 122.0890933  26.8085808
  50.5231880 122.9767994  26.5399757  63.3329923 134.7187518  33.6669163
  63.2081062 133.9177258  33.1580108  63.9909014 135.2133712  33.1783133
  54.9538091 121.0736251  32.8446303  54.2324677 121.6872219  32.7053776
  55.7431347 121.6094016  32.7662949  65.3964831 132.5196539  35.2948713
  64.4495167 132.4001890  35.2227039  65.7447604 131.6319037  35.3774974
  57.7564405 118.4090677  39.1186955  58.2798806 118.6552974  39.8813264
  57.5376738 119.2410712  38.6990092  53.1531686 120.6794352  26.9858079
  52.8244392 119.7991731  26.8033185  53.5071056 120.6242021  27.8734469
  62.4011265 132.3149255  31.4953065  62.2536227 131.3865962  31.6760635
  63.2264758 132.3369345  31.0110140  56.2673509 120.9667322  27.3533557
  56.6069581 121.4953243  26.6312165  56.7145629 121.3047728  28.1292124
  66.0045386 133.1377813  32.5817938  66.9291934 132.9320675  32.4442389
  65.8360690 132.8894215  33.4907279  58.9616950 119.3504373  36.8036625
  58.6213770 118.5512186  37.2057305  58.2555956 119.6506083  36.2313458
  59.6133421 116.4353685  35.2563948  60.4359491 115.9614163  35.1342839
  59.8571485 117.2144169  35.7562634  58.2541656 119.4641943  25.5526850
  58.9750018 119.8423196  25.0490567  57.6306960 120.1830820  25.6561828
  62.3972779 120.1687092  26.4885182  62.6136393 121.0511730  26.1874010
  61.9166846 119.7773306  25.7590824  57.1372000 123.1272806  33.0655927
  56.9916581 123.4413109  33.9580208  56.6597204 123.7457706  32.5126825
  58.9968383 120.1175354  33.1136816  58.9829952 119.2216447  32.7769114
  59.7140811 120.1246017  33.7475102  60.8494514 120.5512694  35.1589944
  60.5912292 121.4729764  35.1574274  60.3179554 120.1543128  35.8490408
  65.7940703 133.6563481  27.9380029  65.9677580 133.0909903  27.1853882
  66.2869594 134.4564376  27.7559519  51.6117662 125.6678150  36.0043588
  51.0671130 126.4437958  36.1363862  52.4897012 126.0148954  35.8462709
  58.4005279 118.9989734  28.3824386  58.5221190 118.0706380  28.5815274
  58.1107321 119.0128420  27.4702702  61.2696469 116.6844644  31.5191106
  61.2918166 116.7483977  30.5643086  61.6864528 115.8449153  31.7131612
  71.6480094 126.4199904  29.5570329  72.0911240 125.6707229  29.1589452
  70.7706604 126.4110040  29.1744061  66.7815875 132.9730245  25.0376927
  67.4766780 133.5936938  25.2564242  67.1239025 132.1225597  25.3129305
  52.3983684 124.7948046  38.8973745  51.6565420 124.9430682  39.4838375
  52.0776429 125.0556312  38.0340494  68.6807298 130.4229951  26.5664258
  69.2058622 130.7617224  25.8413578  68.5929651 129.4876966  26.3827393
  60.3427347 134.3364025  38.6954135  60.6514473 134.0913171  39.5676834
  61.1402829 134.5410663  38.2073005  60.3647959 136.4901934  30.9259511
  59.9252949 135.9978313  31.6192368  61.1156076 135.9474902  30.6851587
  52.8440298 132.6813475  30.9284139  53.6698318 132.3817247  30.5482783
  52.4934350 131.9121097  31.3773928  57.8121831 132.0339943  32.9981813
  57.1901840 131.3710648  32.6984041  58.4826698 132.0601075  32.3155461
  51.0448903 130.5999801  31.8873073  50.2080811 130.1721976  31.7057074
  51.0172548 130.7932245  32.8243864  57.8846359 120.5121731  42.5914319
  57.9334514 121.3883854  42.2092089  58.4268873 119.9699124  42.0185962
  68.3701204 131.0562855  41.8715456  67.5796748 131.0386993  41.3319956
  68.1334559 131.5951148  42.6264493  68.4899079 127.9055321  39.1848185
  68.5397084 127.7405328  40.1263707  68.3813003 127.0382580  38.7946065
  57.3735338 130.5843867  26.4740274  57.5223458 131.2679331  25.8206946
  58.1801781 130.5648957  26.9889729  65.7802842 123.8886249  40.5007491
  66.6812704 123.7492714  40.2091489  65.8550816 124.0540704  41.4405669
  60.1145647 121.2653104  39.3460678  59.2448956 121.5586670  39.0743266
  60.3505127 121.8493549  40.0667941  69.9917276 130.3252262  39.4290206
  69.7002084 130.6882243  40.2653667  69.3789407 129.6119271  39.2503538
  71.1912958 127.8905142  31.9492776  72.0259850 128.3294946  32.1130337
  71.3272087 127.4143795  31.1301022  68.2404464 125.4484877  37.8970264
  68.7158586 125.6412523  37.0889116  67.3170030 125.5044063  37.6513648
  55.1287971 126.6109044  27.4801343  54.8834013 125.7071374  27.6781553
  55.2983886 126.6126195  26.5380821  62.8184681 117.4832721  36.8626098
  63.3366625 118.2193748  36.5372587  62.4639814 117.7896714  37.6972857
  54.3983619 122.3437402  24.9787504  53.7052863 122.4181757  24.3227540
  54.1535370 121.5797745  25.5009021  63.0697275 113.9033003  32.3826995
  63.3499029 113.2356192  33.0087421  63.8547882 114.0962099  31.8701659
  60.8730744 133.0791997  23.9452021  60.3004711 133.6982184  23.4922493
  61.4463537 133.6291359  24.4791943  66.9406133 122.3250637  36.1298570
  67.8923556 122.4248735  36.1510794  66.7709584 121.5328906  36.6396654
  64.9620513 119.4106220  36.3157971  64.3670445 119.6911233  35.6204459
  64.6770210 119.9000121  37.0874712  64.0928003 133.3629147  25.0760603
  65.0258676 133.2974709  25.2793479  64.0051216 134.1985414  24.6175136
  66.7216020 132.6795017  22.0364551  66.6429652 132.3454881  22.9300309
  67.5425687 133.1716785  22.0356023  69.4194211 125.5456757  35.2440869
  69.3870531 124.6072758  35.4300553  70.0294835 125.6240794  34.5106694
  61.2577542 124.4152810  21.2868074  62.2036647 124.2859018  21.3556492
  60.8791787 123.6767472  21.7637502  69.5688700 122.3367800  35.2899153
  69.0527748 121.5526257  35.1029082  70.4528648 122.0086517  35.4545672
  67.2299427 116.0808816  31.2494965  67.0324248 115.7723904  32.1338297
  67.8399132 116.8070455  31.3792895  75.2370761 126.6072764  34.3846906
  75.9674149 126.3458052  34.9454610  74.6277706 125.8701486  34.4248974
  73.3186058 124.7480626  34.9821357  72.5919222 124.6136591  34.3737849
  72.9033345 125.0557455  35.7878076  61.1416235 128.4670556  42.7468730
  62.0619244 128.6449155  42.9408777  61.1065818 127.5226601  42.5948430
  59.4420459 122.3402786  21.2222959  58.5351915 122.0435899  21.2985672
  59.7196440 122.0432604  20.3557245  50.3598400 123.6609150  31.6722005
  50.0401184 122.8074458  31.3796379  49.8131828 123.8757728  32.4279972
  54.1378307 126.3771591  35.3891512  54.3564317 127.3088698  35.4079545
  54.5504081 126.0179565  36.1746315  61.0582525 116.8839676  27.3767200
  60.2483253 116.5386761  27.7522446  61.7466942 116.5747220  27.9654812
  62.9873073 115.9617723  28.9991497  63.5404112 116.3813176  29.6581520
  63.2243160 115.0353471  29.0414453  59.0106172 121.9504796  44.7794261
  58.9102899 122.8999153  44.7106352  58.7927714 121.6223035  43.9070331
  58.2119244 119.1989721  21.3634938  59.0738408 119.5244620  21.6230755
  58.3969588 118.4121217  20.8508004  50.2286660 127.2812061  33.6415127
  49.5350131 126.8666014  33.1285081  50.9759651 127.3232598  33.0448546
  66.3651880 118.0718248  28.5070161  65.7850549 118.7303052  28.1248213
  66.0987813 117.2495592  28.0957578  64.8155447 117.4723306  30.7091481
  65.3155225 117.5839840  29.9005800  65.4591055 117.1684358  31.3492290
  58.8737442 125.3801935  43.5959322  58.3904524 126.1802295  43.8023211
  58.9598382 125.3909880  42.6426766  52.1423402 127.2130315  31.5181142
  52.1194090 127.3118002  30.5663025  52.4524039 128.0595466  31.8398308
  54.8010780 129.2706470  35.6327756  55.7554034 129.2390412  35.5657688
  54.6023304 128.8097094  36.4477982  55.3910162 127.8407586  38.1998554
  56.2103051 128.3351665  38.2233391  55.6646970 126.9239554  38.1716121
  65.1476758 120.2318338  27.5626509  64.2602613 120.5167989  27.3446704
  65.5630747 120.0712102  26.7153786  68.4991294 120.2564859  31.2780848
  69.2751685 120.7461312  31.5505465  67.7739429 120.6822913  31.7352718
  70.9363853 120.9692478  32.3354789  71.5308344 120.7288214  31.6248097
  71.0090437 120.2499609  32.9628325  53.1561009 134.8126089  32.6497954
  53.0215477 134.0526490  32.0835952  52.7393071 135.5366989  32.1826743
  64.2919972 129.9963013  21.6574529  64.9955822 130.2013015  22.2732185
  63.5682621 130.5639775  21.9223613  65.1217782 125.7472874  27.7776799
  65.0652983 126.2041426  26.9384432  65.6746125 124.9863559  27.5999642
  68.9322588 121.5362606  28.6026919  68.6759522 121.1359242  29.4335127
  68.3075456 122.2506400  28.4777058  73.2434926 124.2758679  31.1098210
  72.6834484 124.3451869  31.8829772  72.6378429 124.0999664  30.3897707
  56.3130135 135.7095406  32.8616397  56.1962519 136.6540839  32.7595087
  55.4922581 135.4068968  33.2502196  66.2006669 130.4345542  23.7072989
  67.0352273 130.0026741  23.5250464  66.0391012 130.2627556  24.6349884
  65.8552561 126.9377655  25.0729329  65.8001365 126.7721927  24.1317773
  65.2298617 127.6453688  25.2291518  50.6445076 122.1745720  38.8990751
  51.2903940 121.6644674  39.3877976  50.4362227 122.9114401  39.4734176
  63.1698469 129.2426567  44.3982891  64.0389628 129.4167220  44.0369526
  62.6905220 130.0620984  44.2758621  59.1648687 116.4385764  24.6514647
  59.1527357 117.3827604  24.8082918  60.0572109 116.2555910  24.3574108
  57.3384649 136.3623668  36.0772325  58.2411895 136.3947279  36.3938820
  57.1122019 135.4324119  36.0918661  59.0938251 135.1154655  32.7382404
  58.1433882 135.1156516  32.6246776  59.3970737 134.3687389  32.2218438
  62.9800806 113.0328541  28.9060584  62.2133202 112.4787028  29.0517266
  63.3911511 113.1050410  29.7674735  54.9842567 119.3213337  42.9965765
  55.8474029 118.9650142  43.2069090  54.4107978 118.9827232  43.6841169
  74.8290944 140.9515193  33.8028166  75.4669354 140.8321941  33.0991506
  74.7111787 141.8996037  33.8616118  71.6380651 140.9042621  33.7389691
  71.2999162 140.7883686  32.8510226  72.5070419 140.5033786  33.7190697
  67.4967466 142.7578098  29.7286582  66.9332331 142.6668035  28.9602869
  67.3819861 141.9378002  30.2089074  72.1200434 142.0577473  39.6975896
  72.1089074 141.6630271  38.8256400  72.2821073 141.3243546  40.2909668
  65.0431898 144.2529289  32.5670802  65.8353190 143.9120114  32.1517101
  65.2828548 144.3624264  33.4872955  67.0022652 143.5138203  25.4388181
  67.7753528 142.9667190  25.3001057  67.3548051 144.3782452  25.6502642
  68.8407695 144.8414585  38.6455080  68.5497561 145.7460216  38.5301747
  69.4764679 144.8831112  39.3599150  69.7663902 142.2191433  35.2356440
  70.3627474 141.9947456  34.5213403  69.8238873 141.4776179  35.8381888
  74.3832213 138.6766647  30.8781374  75.1695302 138.2586070  30.5271791
  74.6470917 139.5812739  31.0463022  79.7840640 138.6141880  31.7814353
  80.5165812 138.0441097  32.0152182  79.0279996 138.2263481  32.2220858
  69.0585219 141.5758975  25.2731006  68.9421477 140.9003878  25.9412090
  69.1687479 141.0891349  24.4563159  71.4016760 141.0369122  28.9777695
  71.0374967 140.5099743  29.6890616  72.2583876 140.6467591  28.8044180
  77.3066060 132.3263454  36.2408961  76.9749385 133.1958865  36.0170176
  76.7111674 132.0099738  36.9202992  71.0422247 136.0659021  23.9739044
  71.2096649 136.9339258  24.3409515  70.8519416 136.2286303  23.0500333
  73.7997580 144.5276000  35.6404874  73.4998303 145.4301039  35.5320681
  73.4548639 144.2608184  36.4926027  67.2510061 140.9789797  31.6741578
  66.3260558 140.8466011  31.8819270  67.4994474 141.7584016  32.1711521
  77.1994724 137.0458541  33.3202311  76.2911601 136.9773949  33.0261072
  77.1482319 137.5230485  34.1484137  71.0211467 138.5216679  24.9585710
  70.9011093 138.9673730  25.7971191  70.3264056 138.8701997  24.3999248
  64.6118872 140.6223071  32.5085367  64.7411253 140.8757550  33.4224779
  63.9316324 141.2150779  32.1890022  71.2735589 138.4648186  41.2637208
  70.4968923 139.0242106  41.2540073  71.9126152 138.9504969  41.7852079
  79.0656370 135.2474979  35.0980185  78.4230750 135.5407512  34.4519980
  78.5611298 135.1327899  35.9033382  69.5281962 141.2733639  40.8255175
  70.2696646 141.8118683  40.5489999  68.8218947 141.8999928  40.9826727
  75.0037301 143.4162780  39.4227337  75.4120657 142.9745190  38.6781969
  74.2814563 142.8415407  39.6761530  71.3568371 138.3535387  36.7960894
  72.2029567 138.7774800  36.9395543  71.2967009 137.6969011  37.4899457
  75.3266116 143.9763971  33.1779626  74.6974978 144.1409685  32.4755694
  74.9391778 144.3905580  33.9490590  79.2055348 144.9118408  30.5323990
  78.5206386 145.2917310  29.9821023  79.2899197 145.5213735  31.2655937
  74.5067817 136.0139755  38.4542068  74.2628749 136.7681816  37.9176343
  74.7827747 136.3925103  39.2889315  76.4606279 142.5578367  37.1319333
  76.6723175 143.2010127  36.4553714  76.4136028 141.7240684  36.6641263
  74.0632508 135.1696188  34.0355905  73.2016987 135.4677442  34.3272643
  74.0894943 135.3866587  33.1036938  70.8794078 143.7138379  30.4429711
  71.3432423 143.9926082  29.6534333  70.6150876 142.8121823  30.2602802
  67.7718159 143.2609860  33.3809474  68.3419516 143.6897129  32.7426959
  68.3626271 142.9792445  34.0793660  69.8162964 139.8361531  27.2519276
  70.5187007 140.2882575  27.7193202  69.4843592 139.1945350  27.8799169
  68.2643325 138.4273288  41.6270485  67.6341986 139.1089569  41.8605882
  68.1579413 138.3156369  40.6823624  63.5588298 138.0945084  32.5536410
  62.7687352 138.3502612  32.0776520  64.0499545 138.9093422  32.6588450
  77.5752107 145.4350323  35.3041690  78.3969551 145.0330510  35.0224372
  77.5714510 145.3318557  36.2557806  65.5103043 138.4589663  29.5119886
  64.7134206 138.5708357  30.0303382  65.2828635 138.7976315  28.6460777
  71.3408711 144.9834366  37.4602401  71.4053143 145.4454773  38.2960573
  70.6319635 144.3531731  37.5884711  61.8426001 138.3475574  34.9851400
  62.0934039 139.2322584  35.2508976  62.3785549 138.1680176  34.2126492
  85.6658100 141.7789071  31.6526662  84.9121809 141.2096469  31.4970666
  85.8005642 141.7451736  32.5997297  67.5424068 132.7294054  43.9895737
  67.1491014 132.1760252  44.6643381  68.3590208 133.0404632  44.3802254
  64.5086126 144.1677912  27.9009306  65.0210646 144.9621162  28.0514871
  65.1608839 143.4704202  27.8342908  70.4592029 134.1451933  41.5815993
  71.2001742 134.7459086  41.5020456  70.6909952 133.4029570  41.0234036
  65.6033367 139.3308300  39.8594223  65.4886882 138.4293557  40.1601322
  64.7477885 139.5771997  39.5079039  72.6825205 147.2726040  41.4581723
  72.2389059 146.4862419  41.1402628  73.3442418 147.4605191  40.7925614
  74.7806443 147.5528840  39.4863125  74.7624918 148.3737721  38.9943394
  75.7026363 147.4282915  39.7113266  71.2379497 145.0672970  40.3286633
  71.7707834 144.3061258  40.0985941  70.7093578 144.7746621  41.0710788
  74.4049192 130.1733036  35.8580275  74.0613461 131.0634677  35.7819385
  74.7728155 129.9834693  34.9949860  62.4735043 142.4966566  28.6768877
  63.3110265 142.9063574  28.4602585  62.6513310 141.5566008  28.6469071
  71.9546586 135.0091347  29.4237948  71.0988182 134.6198198  29.2443587
  72.3673538 135.0883308  28.5637734  73.4845732 132.5437691  33.8229508
  72.9810528 132.5067826  33.0097313  73.7776339 133.4530433  33.8826165
  69.7288618 132.6276420  32.8295690  70.5941615 132.4319229  32.4701579
  69.7966127 132.3986772  33.7565047  74.1585778 138.0368739  26.1912491
  73.8535914 138.3514888  27.0422634  75.1116220 138.1150159  26.2339824
  72.6032210 144.1958962  27.8405445  72.0753571 143.4611722  27.5278682
  72.1019713 144.9733638  27.5945413  77.5825056 142.3907983  32.9572491
  76.9248730 143.0807244  33.0452620  78.3865455 142.7804414  33.3006478
  67.3350937 134.8578628  30.2012057  67.9094689 134.6353810  29.4685250
  67.9221920 134.9267323  30.9540658  76.3930515 140.7452355  31.0076433
  76.9062396 141.3782347  31.5098143  77.0431738 140.1453551  30.6419793
  67.6620525 136.8883089  24.2207942  66.8257837 137.2257776  24.5417217
  67.5225294 136.7532069  23.2835079  69.6373605 131.7319877  28.9287126
  68.9838017 131.4168894  28.3043741  69.5954079 131.1095618  29.6546949
  72.8711345 138.2201811  33.2534774  71.9533907 138.4416758  33.0956462
  73.2871489 138.2948121  32.3946481  73.6546393 139.6193226  28.3837454
  74.4018212 140.1314624  28.0744576  73.9237983 139.2977279  29.2441847
  76.1025230 136.6550343  30.3656243  75.3647987 136.1427729  30.6966486
  76.3552004 136.2150724  29.5539520  76.2036858 129.4326595  30.9598012
  76.5095735 128.5723958  30.6723928  76.9289463 130.0244215  30.7597006
  62.4961214 139.8357281  29.3479610  62.2985614 139.2426642  28.6230677
  61.9407878 139.5309492  30.0655549  70.4757937 139.7280388  31.4674204
  70.5306547 138.7754224  31.3916680  69.6649139 139.8839827  31.9515502
  68.4150297 138.3457448  29.2264582  67.6018163 138.6451618  29.6329775
  68.9109292 137.9513136  29.9439065  74.0124509 138.8099272  38.0579476
  74.3673897 139.0370745  38.9173942  74.6596640 139.1417649  37.4356732
  67.9064372 135.9175803  34.8425817  68.5463751 135.7764562  34.1448781
  67.0741903 135.6310316  34.4664419  79.7691626 143.9994235  33.7740077
  80.2028132 143.9069524  34.6223131  80.4823206 143.9751735  33.1360093
  68.6824676 145.2178233  30.9560810  69.4765275 144.7228554  30.7543385
  67.9716368 144.6896097  30.5928515  73.5019520 147.5996329  35.3073177
  73.5556543 148.1687265  36.0750893  72.6334302 147.7698214  34.9427215
  64.9907439 139.3621315  27.0320562  64.0605028 139.3005771  27.2490525
  65.0864911 138.8397268  26.2357204  64.9092989 135.8876128  29.6198804
  65.1699806 136.8021461  29.5107965  65.7310161 135.4200571  29.7695417
  66.3817914 137.3013885  36.7897629  67.0540967 137.0931247  36.1410278
  65.5547700 137.1035971  36.3502861  80.6307175 144.0417936  36.3072962
  80.8243065 144.9463746  36.5532237  80.5307793 143.5825355  37.1411547
  72.2843486 133.9275826  38.8063290  71.6371401 134.6265776  38.7127766
  73.0544501 134.3611970  39.1739538  75.6922284 144.1924678  41.8813843
  75.5407790 143.9635230  40.9643927  75.6826963 145.1495280  41.8945188
  72.4607620 141.7656591  36.8660109  73.3899680 141.9167751  36.6929077
  72.0398650 141.8540612  36.0108756  71.2595952 145.7907255  34.6358647
  71.1207038 145.4226040  35.5084585  70.4710548 146.3054895  34.4642605
  72.8101167 145.1688858  32.0247485  72.4751000 145.1289628  32.9205135
  72.3105113 144.5033574  31.5517895  66.7845411 140.5756488  37.5500066
  66.6465209 139.8436727  38.1511605  67.6950335 140.4865388  37.2684254
  69.4127712 140.2876448  37.0383745  70.1227330 139.6469640  36.9970364
  69.3697020 140.5389342  37.9609926  77.4014490 147.2243801  39.9590325
  77.3427037 146.5403021  39.2920908  77.8034009 147.9662791  39.5070951
  68.1256646 137.2741665  38.8579385  67.5894003 136.8232404  39.5100981
  67.5373354 137.4087574  38.1149849  67.5358905 136.7330317  21.4205849
  66.6588371 136.6119118  21.0568095  68.0116658 135.9416395  21.1684737
  77.4031898 145.1883385  38.1904304  76.5158677 144.8509307  38.3130703
  77.9730449 144.4566416  38.4273070  59.0561045 141.5207477  31.5147356
  59.7432085 141.2069207  30.9268371  58.9009174 142.4248841  31.2414607
  63.8595767 136.4097673  35.9432379  63.7753956 135.8023343  35.2082789
  63.0378473 136.9006691  35.9441876  74.0319481 134.8951237  31.3102575
  74.5288180 134.1421199  30.9903645  73.2606462 134.9315553  30.7445784
  81.8849238 140.5991602  32.9520866  81.8739115 141.4816318  32.5814799
  81.0166618 140.2463153  32.7575403  75.1149262 143.6522924  28.8840998
  74.1805540 143.7724386  28.7145702  75.2925930 142.7495391  28.6201008
  70.6154450 137.0368620  31.0374259  70.2452237 136.4839660  31.7255165
  71.1113542 136.4326753  30.4849259  78.5021813 139.4940243  29.4191032
  78.9682265 140.3268235  29.3451335  78.9529313 139.0285225  30.1236291
  76.4738476 131.8620830  33.4581933  75.5601555 132.0925057  33.6264140
  76.9031577 131.9459274  34.3095966  76.2444934 140.0510722  35.9581827
  75.5916384 140.2986630  35.3034280  76.6225314 139.2374860  35.6244305
  72.2932507 140.7930533  42.4447864  71.6173144 140.6924662  43.1150240
  73.1160141 140.6369747  42.9083862  58.6329021 139.6008070  33.7864823
  58.6713121 139.0671661  34.5801941  58.1269314 139.0743275  33.1675800
  66.0119783 134.4472610  37.2827365  66.0761110 135.3087441  36.8704763
  65.9486904 133.8346612  36.5499724  65.4872056 136.5195743  40.9300399
  66.1144095 136.1372820  41.5437924  64.6299975 136.3009945  41.2956092
  75.8866164 146.9258718  42.5354135  76.4306068 147.5388676  42.0409090
  75.3053009 147.4838297  43.0521148  62.2637599 138.3272172  26.8618754
  62.5591040 137.4182850  26.8085808  61.3625634 138.3059911  26.5399757
  65.7931846 136.4028169  32.8446303  65.0718431 137.0164136  32.7053776
  66.5825101 136.9385933  32.7662949  76.2358586 147.8488456  35.2948713
  75.2888921 147.7293807  35.2227039  76.5841359 146.9610954  35.3774974
  68.5958159 133.7382595  39.1186955  69.1192561 133.9844892  39.8813264
  68.3770492 134.5702630  38.6990092  63.9925440 136.0086270  26.9858079
  63.6638146 135.1283649  26.8033185  64.3464811 135.9533938  27.8734469
  73.2405019 147.6441172  31.4953065  73.0929981 146.7157880  31.6760635
  74.0658513 147.6661263  31.0110140  67.1067263 136.2959240  27.3533557
  67.4463336 136.8245161  26.6312165  67.5539384 136.6339646  28.1292124
  76.8439141 148.4669731  32.5817938  77.7685688 148.2612592  32.4442389
  76.6754444 148.2186132  33.4907279  69.8010704 134.6796290  36.8036625
  69.4607524 133.8804103  37.2057305  69.0949710 134.9798001  36.2313458
  70.4527176 131.7645603  35.2563948  71.2753245 131.2906081  35.1342839
  70.6965239 132.5436086  35.7562634  69.0935410 134.7933861  25.5526850
  69.8143773 135.1715114  25.0490567  68.4700715 135.5122738  25.6561828
  73.2366533 135.4979010  26.4885182  73.4530148 136.3803648  26.1874010
  72.7560600 135.1065223  25.7590824  67.9765755 138.4564723  33.0655927
  67.8310335 138.7705026  33.9580208  67.4990958 139.0749624  32.5126825
  69.8362138 135.4467271  33.1136816  69.8223706 134.5508365  32.7769114
  70.5534566 135.4537935  33.7475102  71.6888268 135.8804611  35.1589944
  71.4306046 136.8021682  35.1574274  71.1573309 135.4835046  35.8490408
  62.4511417 140.9970068  36.0043588  61.9064885 141.7729876  36.1363862
  63.3290767 141.3440872  35.8462709  69.2399034 134.3281652  28.3824386
  69.3614945 133.3998298  28.5815274  68.9501076 134.3420338  27.4702702
  72.1090224 132.0136562  31.5191106  72.1311921 132.0775895  30.5643086
  72.5258283 131.1741071  31.7131612  82.4873848 141.7491822  29.5570329
  82.9304994 140.9999147  29.1589452  81.6100359 141.7401958  29.1744061
  63.2377439 140.1239964  38.8973745  62.4959175 140.2722599  39.4838375
  62.9170183 140.3848230  38.0340494  68.7240113 135.8413649  42.5914319
  68.7728269 136.7175772  42.2092089  69.2662627 135.2991042  42.0185962
  79.2094959 146.3854772  41.8715456  78.4190502 146.3678911  41.3319956
  78.9728313 146.9243066  42.6264493  79.3292834 143.2347239  39.1848185
  79.3790839 143.0697246  40.1263707  79.2206757 142.3674498  38.7946065
  76.6196596 139.2178167  40.5007491  77.5206459 139.0784631  40.2091489
  76.6944571 139.3832621  41.4405669  70.9539402 136.5945021  39.3460678
  70.0842711 136.8878587  39.0743266  71.1898882 137.1785466  40.0667941
  80.8311031 145.6544180  39.4290206  80.5395839 146.0174161  40.2653667
  80.2183162 144.9411188  39.2503538  82.0306713 143.2197060  31.9492776
  82.8653604 143.6586864  32.1130337  82.1665842 142.7435713  31.1301022
  79.0798219 140.7776795  37.8970264  79.5552340 140.9704441  37.0889116
  78.1563784 140.8335981  37.6513648  65.9681725 141.9400962  27.4801343
  65.7227767 141.0363292  27.6781553  66.1377640 141.9418112  26.5380821
  73.6578435 132.8124638  36.8626098  74.1760379 133.5485665  36.5372587
  73.3033568 133.1188632  37.6972857  65.2377373 137.6729319  24.9787504
  64.5446618 137.7473674  24.3227540  64.9929125 136.9089663  25.5009021
  73.9091030 129.2324921  32.3826995  74.1892783 128.5648110  33.0087421
  74.6941636 129.4254016  31.8701659  77.7799888 137.6542555  36.1298570
  78.7317311 137.7540652  36.1510794  77.6103338 136.8620823  36.6396654
  75.8014267 134.7398138  36.3157971  75.2064199 135.0203151  35.6204459
  75.5163964 135.2292039  37.0874712  80.2587966 140.8748674  35.2440869
  80.2264286 139.9364675  35.4300553  80.8688589 140.9532711  34.5106694
  80.4082454 137.6659718  35.2899153  79.8921503 136.8818175  35.1029082
  81.2922403 137.3378435  35.4545672  78.0693181 131.4100733  31.2494965
  77.8718002 131.1015822  32.1338297  78.6792887 132.1362372  31.3792895
  86.0764516 141.9364681  34.3846906  86.8067904 141.6749969  34.9454610
  85.4671461 141.1993403  34.4248974  84.1579813 140.0772544  34.9821357
  83.4312976 139.9428509  34.3737849  83.7427100 140.3849373  35.7878076
  71.9809989 143.7962474  42.7468730  72.9012999 143.9741073  42.9408777
  71.9459572 142.8518519  42.5948430  61.1992154 138.9901067  31.6722005
  60.8794938 138.1366375  31.3796379  60.6525582 139.2049645  32.4279972
  64.9772062 141.7063508  35.3891512  65.1958071 142.6380616  35.4079545
  65.3897835 141.3471483  36.1746315  71.8976279 132.2131594  27.3767200
  71.0877008 131.8678679  27.7522446  72.5860696 131.9039137  27.9654812
  73.8266828 131.2909640  28.9991497  74.3797866 131.7105094  29.6581520
  74.0636914 130.3645388  29.0414453  69.8499927 137.2796714  44.7794261
  69.7496654 138.2291071  44.7106352  69.6321469 136.9514953  43.9070331
  69.0512998 134.5281639  21.3634938  69.9132162 134.8536537  21.6230755
  69.2363342 133.7413135  20.8508004  61.0680414 142.6103979  33.6415127
  60.3743885 142.1957932  33.1285081  61.8153405 142.6524515  33.0448546
  77.2045635 133.4010166  28.5070161  76.6244304 134.0594970  28.1248213
  76.9381567 132.5787510  28.0957578  75.6549201 132.8015223  30.7091481
  76.1548980 132.9131758  29.9005800  76.2984809 132.4976276  31.3492290
  69.7131197 140.7093853  43.5959322  69.2298279 141.5094213  43.8023211
  69.7992136 140.7201798  42.6426766  62.9817157 142.5422233  31.5181142
  62.9587845 142.6409920  30.5663025  63.2917793 143.3887383  31.8398308
  65.6404534 144.5998388  35.6327756  66.5947788 144.5682330  35.5657688
  65.4417058 144.1389011  36.4477982  66.2303917 143.1699504  38.1998554
  67.0496806 143.6643582  38.2233391  66.5040724 142.2531472  38.1716121
  75.9870513 135.5610256  27.5626509  75.0996368 135.8459907  27.3446704
  76.4024502 135.4004019  26.7153786  79.3385049 135.5856777  31.2780848
  80.1145439 136.0753229  31.5505465  78.6133183 136.0114831  31.7352718
  81.7757608 136.2984396  32.3354789  82.3702098 136.0580132  31.6248097
  81.8484191 135.5791527  32.9628325  75.9611537 141.0764792  27.7776799
  75.9046738 141.5333343  26.9384432  76.5139879 140.3155476  27.5999642
  79.7716342 136.8654524  28.6026919  79.5153277 136.4651159  29.4335127
  79.1469210 137.5798318  28.4777058  84.0828680 139.6050597  31.1098210
  83.5228238 139.6743786  31.8829772  83.4772184 139.4291582  30.3897707
  61.4838831 137.5037637  38.8990751  62.1297694 136.9936591  39.3877976
  61.2755982 138.2406319  39.4734176  74.0092223 144.5718485  44.3982891
  74.8783383 144.7459137  44.0369526  73.5298975 145.3912902  44.2758621
  70.0042441 131.7677682  24.6514647  69.9921111 132.7119522  24.8082918
  70.8965863 131.5847827  24.3574108  73.8194561 128.3620459  28.9060584
  73.0526957 127.8078945  29.0517266  74.2305266 128.4342327  29.7674735
  65.8236322 134.6505255  42.9965765  66.6867783 134.2942059  43.2069090
  65.2501732 134.3119149  43.6841169  88.1459815 147.6555372  36.2408961
  87.8143140 148.5250783  36.0170176  87.5505428 147.3391656  36.9202992
  85.3461571 151.3431673  38.4542068  85.1022503 152.0973733  37.9176343
  85.6221502 151.7217020  39.2889315  78.3817823 148.0585971  43.9895737
  77.9884768 147.5052170  44.6643381  79.1983963 148.3696550  44.3802254
  81.2985784 149.4743850  41.5815993  82.0395497 150.0751003  41.5020456
  81.5303706 148.7321488  41.0234036  85.2442947 145.5024953  35.8580275
  84.9007216 146.3926595  35.7819385  85.6121909 145.3126611  34.9949860
  80.5682373 147.9568338  32.8295690  81.4335370 147.7611147  32.4701579
  80.6359882 147.7278690  33.7565047  83.1237240 149.2567744  38.8063290
  82.4765155 149.9557693  38.7127766  83.8938256 149.6903888  39.1739538
  79.4351914 149.0674513  39.1186955  79.9586315 149.3136809  39.8813264
  79.2164247 149.8994548  38.6990092  80.6404459 150.0088208  36.8036625
  80.3001279 149.2096021  37.2057305  79.9343465 150.3089919  36.2313458
  81.2920930 147.0937520  35.2563948  82.1147000 146.6197999  35.1342839
  81.5358994 147.8728004  35.7562634  84.4972190 148.1416556  36.8626098
  85.0154134 148.8777583  36.5372587  84.1427323 148.4480549  37.6972857
  86.6408022 150.0690056  36.3157971  86.0457954 150.3495068  35.6204459
  86.3557719 150.5583957  37.0874712  17.9231662  42.4180007  26.4221203
  17.9120303  42.0232806  25.5501707  18.0852302  41.6846080  27.0154974
  14.6438923  45.2017119  25.3700387  14.3528789  46.1062750  25.2547053
  15.2795908  45.2433647  26.0844456  19.6028809  44.8878535  22.3650181
  19.3029532  45.7903573  22.2565988  19.2579868  44.6210718  23.2171333
  17.0766818  38.8250720  27.9882515  16.3000152  39.3844640  27.9785380
  17.7157381  39.3107503  28.5097385  15.3313190  41.6336174  27.5500482
  16.0727875  42.1721218  27.2735306  14.6250176  42.2602462  27.7072034
  20.8068530  43.7765314  26.1472644  21.2151886  43.3347725  25.4027276
  20.0845792  43.2017942  26.4006836  22.2637508  42.9180902  23.8564640
  22.4754403  43.5612662  23.1799021  22.2167256  42.0843218  23.3886570
  23.3783336  45.7952857  22.0286997  24.2000780  45.3933044  21.7469679
  23.3745739  45.6921091  22.9803113  17.1439940  45.3436900  24.1847708
  17.2084372  45.8057308  25.0205879  16.4350864  44.7134265  24.3130017
  18.4856434  47.6328574  28.1827030  18.0420288  46.8464953  27.8647935
  19.1473647  47.8207725  27.5170921  13.2443555  49.1624376  22.7087709
  13.7950980  49.0341439  21.9364702  12.4055031  49.4619265  22.3582601
  20.5837672  47.9131374  26.2108431  20.5656147  48.7340255  25.7188700
  21.5057592  47.7885450  26.4358572  17.0410726  45.4275504  27.0531940
  17.5739063  44.6663792  26.8231248  16.5124807  45.1349156  27.7956094
  25.5722854  44.3596769  20.4985383  26.0059361  44.2672058  21.3468437
  26.2854435  44.3354270  19.8605399  19.3050749  47.9598863  22.0318484
  19.3587772  48.5289800  22.7996200  18.4365531  48.1300748  21.6672521
  26.4338404  44.4020470  23.0318269  26.6274294  45.3066280  23.2777544
  26.3339022  43.9427889  23.8656854  21.4953513  44.5527213  28.6059149
  21.3439019  44.3237764  27.6889233  21.4858192  45.5097814  28.6190494
  23.2045719  47.5846335  26.6835631  23.1458265  46.9005555  26.0166214
  23.6065238  48.3265325  26.2316257  12.2236418  54.4008249  19.4769350
  12.4633016  55.0326773  20.1548369  11.3805615  54.0496289  19.7634709
  23.2063127  45.5485919  24.9149611  22.3189905  45.2111841  25.0376010
  23.7761678  44.8168950  25.1518376  16.7364280  50.2087371  21.8810854
  16.6634451  51.0142343  22.3930159  16.2941673  50.4079337  21.0558876
  19.1962963  50.1074205  24.0369013  19.9090936  50.7421670  23.9644914
  18.7052992  50.2038071  23.2209015  14.2474877  47.8568649  24.8574584
  14.9484336  48.4905132  25.0103978  13.7769992  48.1983380  24.0970223
  18.0963736  41.1533067  29.1693171  17.4204373  41.0527197  29.8395546
  18.9191370  40.9972281  29.6329168  16.8386519  52.4599995  23.4050787
  17.3904827  52.6231616  24.1699872  17.1792712  53.0504433  22.7330812
  21.6897393  47.2861252  29.2599442  22.2337297  47.8991211  28.7654396
  21.1084238  47.8440831  29.7766455  19.9754906  50.4081970  20.3914469
  19.8506046  49.6071710  19.8825415  20.6333997  50.9028164  19.9028439
  22.0389815  48.2090990  22.0194019  21.0920150  48.0896342  21.9472346
  22.3872588  47.3213488  22.1020281  22.6470370  48.8272265  19.3063244
  23.5716917  48.6215127  19.1687695  22.4785673  48.5788667  20.2152586
  16.9852330  50.0258476  25.4199441  17.2939457  49.7807623  26.2922141
  17.7827812  50.2305115  24.9318312  25.0126188  46.7457306  28.5960763
  24.2221731  46.7281445  28.0565262  24.7759542  47.2845600  29.3509799
  25.1324063  43.5949773  25.9093491  25.1822068  43.4299780  26.8509014
  25.0237986  42.7277032  25.5191372  22.4227825  39.5780701  27.2252798
  23.3237688  39.4387166  26.9336796  22.4975800  39.7435156  28.1650975
  26.6342259  46.0146714  26.1535513  26.3427068  46.3776695  26.9898974
  26.0214391  45.3013723  25.9748845  24.8829448  41.1379329  24.6215571
  25.3583569  41.3306975  23.8134422  23.9595013  41.1938515  24.3758955
  26.0619194  41.2351209  21.9686176  26.0295515  40.2967209  22.1545860
  26.6719818  41.3135245  21.2352001  31.8795744  42.2967216  21.1092213
  32.6099133  42.0352504  21.6699916  31.2702690  41.5595937  21.1494281
  29.9611041  40.4375078  21.7066664  29.2344205  40.3031043  21.0983156
  29.5458328  40.7451907  22.5123382  17.7841218  44.1565008  29.4714037
  18.7044227  44.3343607  29.6654084  17.7490801  43.2121053  29.3193736
  15.6531156  37.6399248  31.5039567  15.5527883  38.5893605  31.4351658
  15.4352698  37.3117487  30.6315637  15.5162426  41.0696387  30.3204629
  15.0329507  41.8696747  30.5268518  15.6023365  41.0804332  29.3672073
  19.8123452  44.9321019  31.1228198  20.6814611  45.1061671  30.7614833
  19.3330203  45.7515436  31.0003927  13.9809632  52.0518120  22.8017632
  14.8836879  52.0841730  23.1184127  13.7547002  51.1218571  22.8163967
  31.4715928  56.6409645  20.5273473  32.1094338  56.5216392  19.8236813
  31.3536770  57.5890489  20.5861425  28.2805634  56.5937073  20.4634997
  27.9424145  56.4778138  19.5755532  29.1495402  56.1928238  20.4436003
  24.1392450  58.4472550  16.4531888  23.5757315  58.3562487  15.6848176
  24.0244845  57.6272454  16.9334381  28.7625417  57.7471925  26.4221203
  28.7514058  57.3524723  25.5501707  28.9246056  57.0137998  27.0154974
  21.6856881  59.9423741  19.2916109  22.4778173  59.6014566  18.8762408
  21.9253532  60.0518716  20.2118262  29.7192008  62.1143517  11.7646353
  29.0679988  62.6997598  11.3780367  30.5136371  62.6449712  11.8241391
  23.6447635  59.2032654  12.1633488  24.4178511  58.6561642  12.0246363
  23.9973034  60.0676904  12.3747949  25.4832678  60.5309037  25.3700387
  25.1922544  61.4354668  25.2547053  26.1189662  60.5725564  26.0844456
  26.4088885  57.9085885  21.9601746  27.0052457  57.6841908  21.2458709
  26.4663856  57.1670631  22.5627194  31.0257196  54.3661099  17.6026681
  31.8120285  53.9480522  17.2517098  31.2895900  55.2707191  17.7708329
  31.1967273  59.8033949  12.3015337  30.5613106  59.8768576  13.0136242
  30.8664680  60.3927548  11.6234417  36.4265623  54.3036332  18.5059659
  37.1590795  53.7335549  18.7397489  35.6704979  53.9157933  18.9466165
  28.0441743  56.7263574  15.7023002  27.6799950  56.1994195  16.4135923
  28.9008859  56.3362043  15.5289487  33.9491044  48.0157906  22.9654268
  33.6174368  48.8853317  22.7415483  33.3536657  47.6994190  23.6448298
  30.4422563  60.2170452  22.3650181  30.1423286  61.1195491  22.2565988
  30.0973623  59.9502635  23.2171333  23.8935045  56.6684249  18.3986885
  22.9685541  56.5360463  18.6064577  24.1419458  57.4478468  18.8956827
  33.8419707  52.7352992  20.0447618  32.9336584  52.6668401  19.7506379
  33.7907303  53.2124937  20.8729443  21.2543856  56.3117523  19.2330674
  21.3836237  56.5652002  20.1470086  20.5741307  56.9045231  18.9135329
  25.4243343  66.9814773  15.3321148  25.3467373  67.9322598  15.4109629
  24.8204986  66.6360645  15.9896075  27.9160573  54.1542638  27.9882515
  27.1393907  54.7136558  27.9785380  28.5551136  54.6399421  28.5097385
  35.7081353  50.9369431  21.8225492  35.0655733  51.2301964  21.1765286
  35.2036282  50.8222351  22.6278688  33.3621517  54.6832604  12.5111351
  34.2739373  54.9159991  12.3359049  32.8531164  55.2669648  11.9486430
  26.1706945  56.9628091  27.5500482  26.9121629  57.5013135  27.2735306
  25.4643930  57.5894380  27.7072034  31.6462285  59.1057232  26.1472644
  32.0545641  58.6639642  25.4027276  30.9239546  58.5309859  26.4006836
  27.9993355  54.0429839  23.5206201  28.8454550  54.4669252  23.6640850
  27.9391992  53.3863463  24.2144764  31.9691099  59.6658422  19.9024932
  31.3399962  59.8304137  19.2001000  31.5816761  60.0800032  20.6735897
  35.8480331  60.6012860  17.2569296  35.1631369  60.9811762  16.7066330
  35.9324180  61.2108187  17.9901244  31.1492800  51.7034207  25.1787374
  30.9053732  52.4576267  24.6421650  31.4252730  52.0819555  26.0134621
  33.1031263  58.2472819  23.8564640  33.3148158  58.8904579  23.1799021
  33.0561011  57.4135136  23.3886570  30.7057492  50.8590640  20.7601212
  29.8441971  51.1571894  21.0517949  30.7319926  51.0761039  19.8282245
  27.5219061  59.4032831  17.1675018  27.9857407  59.6820534  16.3779640
  27.2575859  58.5016275  16.9848108  24.4143142  58.9504312  20.1054781
  24.9844499  59.3791580  19.4672265  25.0051254  58.6686897  20.8038967
  26.4587947  55.5255983  13.9764583  27.1611990  55.9777027  14.4438509
  26.1268576  54.8839802  14.6044476  24.9068309  54.1167740  28.3515792
  24.2766969  54.7984020  28.5851189  24.8004397  54.0050821  27.4068930
  20.2013281  53.7839536  19.2781716  19.4112335  54.0397064  18.8021827
  20.6924528  54.5987873  19.3833757  34.2177091  61.1244775  22.0286997
  35.0394534  60.7224962  21.7469679  34.2139494  61.0213009  22.9803113
  22.1528026  54.1484115  16.2365193  21.3559190  54.2602809  16.7548689
  21.9253619  54.4870767  15.3706084  27.9833694  60.6728818  24.1847708
  28.0478127  61.1349225  25.0205879  27.2744618  60.0426183  24.3130017
  18.4850984  54.0370026  21.7096707  18.7359023  54.9217036  21.9754283
  19.0210532  53.8574628  20.9371799  42.3083084  57.4683523  18.3771969
  41.5546792  56.8990921  18.2215973  42.4430625  57.4346188  19.3242603
  27.6981712  62.3396926  14.0526688  27.5627387  63.1848461  14.4811536
  28.2391524  62.5416203  13.2892622  24.1849051  48.4188505  30.7141043
  23.7915997  47.8654704  31.3888687  25.0015192  48.7299084  31.1047561
  21.1511109  59.8572364  14.6254613  21.6635630  60.6515614  14.7760178
  21.8033822  59.1598654  14.5588214  22.9605994  62.9738120  16.7077366
  23.1372622  63.8956085  16.5198350  23.7562827  62.6596539  17.1371746
  27.1017012  49.8346384  28.3061300  27.8426726  50.4353538  28.2265762
  27.3334935  49.0924022  27.7479342  22.2458350  55.0202752  26.5839529
  22.1311866  54.1188009  26.8846628  21.3902868  55.2666449  26.2324346
  29.3250188  62.9620492  28.1827030  28.8814042  62.1756871  27.8647935
  29.9867402  63.1499643  27.5170921  24.0837309  64.4916294  22.7087709
  24.6344734  64.3633357  21.9364702  23.2448785  64.7911183  22.3582601
  31.4231426  63.2423292  26.2108431  31.4049902  64.0632173  25.7188700
  32.3451346  63.1177367  26.4358572  27.8804480  60.7567421  27.0531940
  28.4132817  59.9955710  26.8231248  27.3518561  60.4641073  27.7956094
  31.0474175  45.8627487  22.5825581  30.7038445  46.7529129  22.5064692
  31.4153138  45.6729145  21.7195166  19.1160026  58.1861018  15.4014184
  19.9535248  58.5958026  15.1847891  19.2938294  57.2460460  15.3714377
  31.0124458  55.8536099  11.0898017  30.4971081  56.6240703  11.3286404
  30.7401767  55.1801235  11.7131078  28.5971569  50.6985799  16.1483255
  27.7413165  50.3092650  15.9688894  29.0098521  50.7777760  15.2883040
  30.1270716  48.2332143  20.5474815  29.6235511  48.1962278  19.7342620
  30.4201323  49.1424885  20.6071471  26.3713602  48.3170872  19.5540996
  27.2366598  48.1213681  19.1946886  26.4391111  48.0881224  20.4810353
  35.9858732  58.6068453  13.0251190  35.2088175  58.2679613  12.5806352
  36.6650213  58.6121076  12.3506155  30.8010761  53.7263191  12.9157798
  30.4960897  54.0409340  13.7667941  31.7541203  53.8044611  12.9585131
  29.2457193  59.8853414  14.5650752  28.7178555  59.1506174  14.2523989
  28.7444696  60.6628090  14.3190720  34.2250039  58.0802434  19.6817798
  33.5673714  58.7701696  19.7697927  35.0290438  58.4698866  20.0251784
  33.0355498  56.4346807  17.7321740  33.5487380  57.0676799  18.2343449
  33.6856722  55.8348003  17.3665100  30.2977872  66.4131131  10.4882411
  29.6239571  66.7162828  11.0967369  30.6843694  67.2160212  10.1387868
  29.5136329  53.9096263  19.9780080  28.5958890  54.1311210  19.8201768
  29.9296472  53.9842573  19.1191788  30.2971377  55.3087678  15.1082761
  31.0443195  55.8209076  14.7989883  30.5662966  54.9871731  15.9687154
  28.5698027  57.8046219  12.0909715  27.6609246  57.5205252  12.1882185
  28.5993111  58.2245298  11.2313022  33.8017294  61.4152809  15.8600882
  33.3479621  60.5743718  15.9166073  33.1711261  62.0514207  16.1975663
  32.7450214  52.3444795  17.0901550  32.0072970  51.8322181  17.4211792
  32.9976987  51.9045176  16.2784827  32.2450233  63.2529305  16.7950701
  32.5373208  63.8134362  16.0763066  32.7548854  63.5457866  17.5503860
  32.8461841  45.1221047  17.6843319  33.1520718  44.2618410  17.3969234
  33.5714446  45.7138667  17.4842313  27.1182921  55.4174840  18.1919510
  27.1731531  54.4648676  18.1161987  26.3074123  55.5734279  18.6760809
  25.0575281  54.0351899  15.9509889  24.2443146  54.3346070  16.3575081
  25.5534275  53.6407588  16.6684371  27.2083859  64.0309656  17.8844154
  27.1660037  64.2570503  16.9552686  28.1246557  63.7973031  18.0329955
  30.6549492  54.4993724  24.7824783  31.0098880  54.7265197  25.6419249
  31.3021624  54.8312101  24.1602038  36.3847229  57.6212160  15.4874112
  36.2465128  57.8113756  14.5595301  36.0283448  58.3831543  15.9442163
  24.5489355  51.6070255  21.5671124  25.1888735  51.4659014  20.8694087
  23.7166886  51.3204768  21.1909726  36.4116609  59.6888687  20.4985383
  36.8453116  59.5963976  21.3468437  37.1248190  59.6646187  19.8605399
  25.3249659  60.9072685  17.6806116  26.1190258  60.4123006  17.4788691
  24.6141352  60.3790549  17.3173822  30.1444504  63.2890781  22.0318484
  30.1981526  63.8581717  22.7996200  29.2759285  63.4592666  21.6672521
  23.0242897  52.9908337  23.5142935  23.6965951  52.7825699  22.8655584
  22.1972684  52.7930423  23.0748168  37.2732158  59.7312387  23.0318269
  37.4668049  60.6358198  23.2777544  37.1732777  59.2719807  23.8656854
  28.9268469  49.6170278  25.5308596  28.2796384  50.3160228  25.4373073
  29.6969485  50.0506422  25.8984844  32.3347267  59.8819130  28.6059149
  32.1832774  59.6529682  27.6889233  32.3251947  60.8389732  28.6190494
  29.1032604  57.4551043  23.5905416  30.0324664  57.6062203  23.4174383
  28.6823634  57.5435064  22.7354062  27.9020935  61.4801707  21.3603954
  27.7632021  61.1120492  22.2329892  27.1135532  61.9949347  21.1887911
  28.4969087  66.5810804  12.7029490  28.6720843  66.1098847  13.5175113
  27.8101875  67.2076570  12.9310751  29.4526150  60.8583310  18.7492791
  29.1175983  60.8184080  19.6450441  28.9530096  60.1928026  18.2763202
  23.4270394  56.2650940  24.2745372  23.2890192  55.5331179  24.8756912
  24.3375318  56.1759840  23.9929560  26.0552695  55.9770899  23.7629052
  26.7652314  55.3364092  23.7215671  26.0122003  56.2283794  24.6855233
  34.0439474  62.9138253  26.6835631  33.9852020  62.2297473  26.0166214
  34.4458992  63.6557243  26.2316257  24.7681629  52.9636117  25.5824692
  24.2318986  52.5126856  26.2346288  24.1798338  53.0982026  24.8395156
  23.0630173  69.7300167  19.4769350  23.3026771  70.3618691  20.1548369
  22.2199369  69.3788207  19.7634709  34.0456881  60.8777837  24.9149611
  33.1583660  60.5403758  25.0376010  34.6155432  60.1460868  25.1518376
  15.6986028  57.2101928  18.2392662  16.3857068  56.8963658  17.6513678
  15.5434157  58.1143293  17.9659914  20.5020750  52.0992125  22.6677686
  20.4178939  51.4917795  21.9328096  19.6803457  52.5901143  22.6687182
  27.5758034  65.5379289  21.8810854  27.5028206  66.3434261  22.3930159
  27.1335428  65.7371255  21.0558876  27.3647814  64.7751059  15.3913676
  26.5815336  65.3172739  15.4851900  28.0640559  65.2925039  15.7907917
  30.6744464  50.5845689  18.0347881  31.1713164  49.8315651  17.7148951
  29.9031446  50.6210005  17.4691090  38.5274222  56.2886054  19.6766173
  38.5164098  57.1710769  19.3060106  37.6591601  55.9357605  19.4820710
  30.0356718  65.4366123  24.0369013  30.7484690  66.0713588  23.9644914
  29.5446747  65.5329989  23.2209015  31.7574245  59.3417376  15.6086305
  30.8230524  59.4618838  15.4391009  31.9350913  58.4389843  15.3446314
  27.2579433  52.7263072  17.7619566  26.8877220  52.1734112  18.4500471
  27.7538525  52.1221205  17.2094566  35.1446796  55.1834695  16.1436339
  35.6107248  56.0162687  16.0696641  35.5954297  54.7179677  16.8481597
  25.0868631  63.1860567  24.8574584  25.7878091  63.8197049  25.0103978
  24.6163746  63.5275298  24.0970223  33.2123027  61.5278516  13.1422491
  33.4882871  61.4135111  14.0516365  32.3427526  61.1296001  13.1034664
  33.1163459  47.5515282  20.1827240  32.2026539  47.7819509  20.3509447
  33.5456560  47.6353726  21.0341272  32.8869917  55.7405174  22.6827134
  32.2341368  55.9881081  22.0279587  33.2650297  54.9269312  22.3489611
  29.8477091  65.7764867  16.7855304  30.0299486  64.9586523  17.2483057
  30.6710077  65.9932559  16.3480194  30.1819257  64.7033052  14.0470353
  30.7107023  64.1925507  13.4340515  30.4447476  64.3875582  14.9115886
  28.9357490  56.4824985  29.1693171  28.2598128  56.3819114  29.8395546
  29.7585124  56.3264199  29.6329168  20.6836350  62.7196922  21.7905686
  21.2689786  61.9740609  21.9233591  20.4861188  63.0300878  22.6742350
  23.5375005  65.7548169  16.8068129  22.8685380  66.2394297  16.3232169
  23.3987874  66.0017389  17.7211507  15.2754004  55.2902522  20.5110130
  15.3138104  54.7566112  21.3047248  14.7694297  54.7637727  19.8921107
  27.6780273  67.7891912  23.4050787  28.2298581  67.9523534  24.1699872
  28.0186467  68.3796350  22.7330812  22.6544767  50.1367062  24.0072672
  22.7186093  50.9981893  23.5950070  22.5911887  49.5241064  23.2745030
  22.1297039  52.2090195  27.6545706  22.7569078  51.8267272  28.2683230
  21.2724958  51.9904397  28.0201399  32.5291148  62.6153170  29.2599442
  33.0731052  63.2283128  28.7654396  31.9477993  63.1732748  29.7766455
  30.8148661  65.7373888  20.3914469  30.6899800  64.9363628  19.8825415
  31.4727752  66.2320081  19.9028439  22.4356829  52.0922621  19.5691610
  21.7143415  52.7058588  19.4299083  23.2250085  52.6280385  19.4908255
  32.8783569  63.5382908  22.0194019  31.9313905  63.4188259  21.9472346
  33.2266342  62.6505406  22.1020281  25.2383142  49.4277047  25.8432261
  25.7617544  49.6739344  26.6058571  25.0195476  50.2597082  25.4235399
  29.8830002  63.3335624  18.2198372  29.7354965  62.4052332  18.4005942
  30.7083496  63.3555715  17.7355447  33.4864124  64.1564183  19.3063244
  34.4110672  63.9507044  19.1687695  33.3179428  63.9080584  20.2152586
  26.4435687  50.3690742  23.5281932  26.1032508  49.5698555  23.9302612
  25.7374694  50.6692453  22.9558765  27.0952159  47.4540055  21.9809255
  27.9178229  46.9800533  21.8588145  27.3390223  48.2330538  22.4807941
  24.6190738  54.1459175  19.7901233  24.4735319  54.4599478  20.6825515
  24.1415942  54.7644076  19.2372132  26.4787121  51.1361723  19.8382123
  26.4648690  50.2402816  19.5014421  27.1959549  51.1432387  20.4720409
  28.3313252  51.5699063  21.8835250  28.0731029  52.4916134  21.8819581
  27.7998292  51.1729498  22.5735715  33.2759440  64.6749850  14.6625336
  33.4496318  64.1096273  13.9099188  33.7688332  65.4750745  14.4804826
  19.0936400  56.6864520  22.7288895  18.5489868  57.4624328  22.8609169
  19.9715750  57.0335324  22.5708016  28.7515207  47.7031014  18.2436413
  28.7736904  47.7670347  17.2888393  29.1683266  46.8635523  18.4376919
  39.1298832  57.4386273  16.2815636  39.5729978  56.6893599  15.8834759
  38.2525342  57.4296410  15.8989368  34.2634613  63.9916615  11.7622234
  34.9585517  64.6123308  11.9809549  34.6057763  63.1411966  12.0374612
  19.8802422  55.8134416  25.6219051  19.1384158  55.9617051  26.2083682
  19.5595166  56.0742681  24.7585801  36.1626036  61.4416320  13.2909565
  36.6877360  61.7803593  12.5658885  36.0748389  60.5063336  13.1072699
  27.8246085  65.3550394  25.4199441  28.1333211  65.1099541  26.2922141
  28.6221567  65.5597033  24.9318312  27.8466697  67.5088304  17.6504818
  27.4071687  67.0164682  18.3437675  28.5974814  66.9661271  17.4096893
  20.3259036  63.6999845  17.6529446  21.1517056  63.4003616  17.2728090
  19.9753088  62.9307467  18.1019235  25.2940569  63.0526313  19.7227120
  24.6720578  62.3897018  19.4229348  25.9645436  63.0787445  19.0400767
  18.5267641  61.6186171  18.6118380  17.6899549  61.1908345  18.4302381
  18.4991286  61.8118614  19.5489171  25.3665096  51.5308101  29.3159626
  25.4153252  52.4070224  28.9337395  25.9087611  50.9885494  28.7431269
  35.8519942  62.0749224  28.5960763  35.0615486  62.0573363  28.0565262
  35.6153297  62.6137518  29.3509799  35.9717817  58.9241690  25.9093491
  36.0215822  58.7591698  26.8509014  35.8631740  58.0568949  25.5191372
  24.8554076  61.6030236  13.1985580  25.0042196  62.2865701  12.5452253
  25.6620519  61.5835326  13.7135036  33.2621579  54.9072618  27.2252798
  34.1631442  54.7679083  26.9336796  33.3369554  55.0727073  28.1650975
  27.5964385  52.2839473  26.0705984  26.7267694  52.5773039  25.7988573
  27.8323865  52.8679918  26.7913248  37.4736014  61.3438632  26.1535513
  37.1820822  61.7068613  26.9898974  36.8608145  60.6305640  25.9748845
  38.6731696  58.9091512  18.6738083  39.5078588  59.3481316  18.8375643
  38.8090825  58.4330165  17.8546329  35.7223202  56.4671247  24.6215571
  36.1977324  56.6598893  23.8134422  34.7988768  56.5230432  24.3758955
  22.6106709  57.6295414  14.2046649  22.3652751  56.7257744  14.4026859
  22.7802623  57.6312564  13.2626127  30.3003419  48.5019090  23.5871405
  30.8185363  49.2380117  23.2617893  29.9458551  48.8083083  24.4218164
  30.5516013  44.9219373  19.1072301  30.8317767  44.2542562  19.7332728
  31.3366620  45.1148468  18.5946965  28.3549481  64.0978367  10.6697328
  27.7823448  64.7168554  10.2167800  28.9282275  64.6477728  11.2037250
  34.4224871  53.3437007  22.8543876  35.3742294  53.4435104  22.8756101
  34.2528322  52.5515275  23.3641961  32.4439251  50.4292590  23.0403277
  31.8489183  50.7097603  22.3449766  32.1588947  50.9186491  23.8120018
  31.5746741  64.3815517  11.8005910  32.5077414  64.3161078  12.0038785
  31.4869954  65.2171784  11.3420443  34.2034758  63.6981387   8.7609858
  34.1248389  63.3641251   9.6545615  35.0244425  64.1903155   8.7601330
  36.9012949  56.5643126  21.9686176  36.8689269  55.6259127  22.1545860
  37.5113573  56.6427163  21.2352001  37.0507437  53.3554170  22.0144459
  36.5346486  52.5712626  21.8274388  37.9347386  53.0272886  22.1790979
  34.7118164  47.0995185  17.9740272  34.5142985  46.7910274  18.8583604
  35.3217870  47.8256824  18.1038202  42.7189499  57.6259133  21.1092213
  43.4492887  57.3644421  21.6699916  42.1096444  56.8887855  21.1494281
  40.8004796  55.7666996  21.7066664  40.0737960  55.6322961  21.0983156
  40.3852083  56.0743824  22.5123382  28.6234972  59.4856925  29.4714037
  29.5437982  59.6635524  29.6654084  28.5884555  58.5412971  29.3193736
  17.8417137  54.6795519  18.3967312  17.5219922  53.8260827  18.1041686
  17.2950566  54.8944097  19.1525279  21.6197045  57.3957960  22.1136818
  21.8383055  58.3275068  22.1324852  22.0322819  57.0365935  22.8991622
  26.4924910  52.9691166  31.5039567  26.3921637  53.9185523  31.4351658
  26.2746452  52.6409405  30.6315637  17.7105397  58.2998431  20.3660433
  17.0168869  57.8852383  19.8530388  18.4578388  58.3418967  19.7693852
  33.8470618  49.0904617  15.2315468  33.2669287  49.7489421  14.8493520
  33.5806551  48.2681962  14.8202885  32.2974184  48.4909675  17.4336788
  32.7973963  48.6026210  16.6251107  32.9409792  48.1870728  18.0737596
  26.3556180  56.3988305  30.3204629  25.8723262  57.1988665  30.5268518
  26.4417119  56.4096250  29.3672073  19.6242140  58.2316684  18.2426448
  19.6012828  58.3304372  17.2908331  19.9342776  59.0781835  18.5643614
  22.2829518  60.2892839  22.3573063  23.2372771  60.2576782  22.2902994
  22.0842041  59.8283463  23.1723289  22.8728900  58.8593955  24.9243860
  23.6921789  59.3538034  24.9478698  23.1465708  57.9425924  24.8961428
  32.6295496  51.2504708  14.2871816  31.7421351  51.5354358  14.0692011
  33.0449485  51.0898471  13.4399093  35.9810032  51.2751229  18.0026155
  36.7570422  51.7647681  18.2750772  35.2558166  51.7009283  18.4598025
  38.4182591  51.9878848  19.0600096  39.0127082  51.7474584  18.3493404
  38.4909175  51.2685979  19.6873632  20.6379747  65.8312459  19.3743261
  20.5034214  65.0712860  18.8081259  20.2211809  66.5553359  18.9072049
  31.7738710  61.0149382   8.3819836  32.4774560  61.2199385   8.9977491
  31.0501358  61.5826144   8.6468919  32.6036520  56.7659244  14.5022106
  32.5471721  57.2227795  13.6629738  33.1564862  56.0049928  14.3244949
  36.4141326  52.5548976  15.3272226  36.1578260  52.1545611  16.1580433
  35.7894194  53.2692770  15.2022365  40.7253664  55.2945049  17.8343517
  40.1653222  55.3638238  18.6075079  40.1197167  55.1186033  17.1143013
  23.7948872  66.7281776  19.5861703  23.6781257  67.6727208  19.4840393
  22.9741319  66.4255337  19.9747502  33.6825407  61.4531912  10.4318296
  34.5171011  61.0213110  10.2495771  33.5209750  61.2813925  11.3595190
  33.3371299  57.9564025  11.7974635  33.2820103  57.7908296  10.8563079
  32.7117354  58.6640058  11.9536825  18.1263814  53.1932089  25.6236057
  18.7722678  52.6831043  26.1123283  17.9180965  53.9300771  26.1979483
  30.6517206  60.2612937  31.1228198  31.5208366  60.4353589  30.7614833
  30.1723958  61.0807354  31.0003927  24.8203387  67.3810038  22.8017632
  25.7230633  67.4133648  23.1184127  24.5940757  66.4510489  22.8163967
  26.5756989  66.1341024  19.4627710  25.6252620  66.1342886  19.3492083
  26.8789475  65.3873759  18.9463745  22.4661305  50.3399706  29.7211072
  23.3292767  49.9836511  29.9314396  21.8926716  50.0013601  30.4086476
  42.3109682  71.9701563  20.5273473  42.9488092  71.8508310  19.8236813
  42.1930525  72.9182407  20.5861425  39.1199388  71.9228991  20.4634997
  38.7817900  71.8070056  19.5755532  39.9889157  71.5220156  20.4436003
  34.9786204  73.7764467  16.4531888  34.4151069  73.6854404  15.6848176
  34.8638599  72.9564372  16.9334381  39.6019171  73.0763843  26.4221203
  39.5907812  72.6816641  25.5501707  39.7639811  72.3429915  27.0154974
  32.5250636  75.2715659  19.2916109  33.3171928  74.9306484  18.8762408
  32.7647286  75.3810634  20.2118262  40.5585763  77.4435435  11.7646353
  39.9073743  78.0289515  11.3780367  41.3530126  77.9741630  11.8241391
  34.4841390  74.5324572  12.1633488  35.2572266  73.9853559  12.0246363
  34.8366789  75.3968821  12.3747949  36.3226432  75.8600954  25.3700387
  36.0316298  76.7646585  25.2547053  36.9583417  75.9017482  26.0844456
  37.2482639  73.2377803  21.9601746  37.8446212  73.0133825  21.2458709
  37.3057611  72.4962548  22.5627194  36.8207668  70.6917238   9.7951937
  37.0733188  70.1698760   9.0335400  35.8832227  70.5283384   9.8978621
  41.8650951  69.6953017  17.6026681  42.6514040  69.2772440  17.2517098
  42.1289655  70.5999109  17.7708329  42.0361028  75.1325867  12.3015337
  41.4006861  75.2060493  13.0136242  41.7058434  75.7219466  11.6234417
  47.2659378  69.6328250  18.5059659  47.9984550  69.0627467  18.7397489
  46.5098733  69.2449850  18.9466165  36.5403956  72.5945344  11.9976312
  36.4240215  71.9190248  12.6657397  36.6506216  72.1077718  11.1808465
  38.8835497  72.0555491  15.7023002  38.5193705  71.5286112  16.4135923
  39.7402613  71.6653960  15.5289487  44.7884798  63.3449824  22.9654268
  44.4568123  64.2145235  22.7415483  44.1930411  63.0286108  23.6448298
  38.5240984  67.0845391  10.6984350  38.6915387  67.9525627  11.0654821
  38.3338153  67.2472673   9.7745639  41.2816318  75.5462370  22.3650181
  40.9817041  76.4487409  22.2565988  40.9367377  75.2794553  23.2171333
  34.7328799  71.9976167  18.3986885  33.8079296  71.8652381  18.6064577
  34.9813212  72.7770386  18.8956827  44.6813461  68.0644910  20.0447618
  43.7730339  67.9960319  19.7506379  44.6301057  68.5416855  20.8729443
  38.5030205  69.5403049  11.6831017  38.3829830  69.9860099  12.5216497
  37.8082794  69.8888366  11.1244555  32.0937610  71.6409440  19.2330674
  32.2229991  71.8943919  20.1470086  31.4135061  72.2337148  18.9135329
  36.2637097  82.3106690  15.3321148  36.1861127  83.2614515  15.4109629
  35.6598741  81.9652563  15.9896075  38.7554327  69.4834556  27.9882515
  37.9787661  70.0428476  27.9785380  39.3944890  69.9691339  28.5097385
  46.5475108  66.2661348  21.8225492  45.9049488  66.5593882  21.1765286
  46.0430036  66.1514269  22.6278688  44.2015271  70.0124522  12.5111351
  45.1133128  70.2451908  12.3359049  43.6924918  70.5961566  11.9486430
  37.0100699  72.2920009  27.5500482  37.7515384  72.8305053  27.2735306
  36.3037685  72.9186298  27.7072034  42.4856039  74.4349150  26.1472644
  42.8939395  73.9931560  25.4027276  41.7633301  73.8601777  26.4006836
  38.8387109  69.3721756  23.5206201  39.6848304  69.7961170  23.6640850
  38.7785747  68.7155381  24.2144764  42.8084854  74.9950340  19.9024932
  42.1793716  75.1596054  19.2001000  42.4210516  75.4091950  20.6735897
  46.6874086  75.9304778  17.2569296  46.0025124  76.3103679  16.7066330
  46.7717935  76.5400105  17.9901244  41.9886554  67.0326125  25.1787374
  41.7447486  67.7868185  24.6421650  42.2646485  67.4111472  26.0134621
  43.9425017  73.5764737  23.8564640  44.1541912  74.2196497  23.1799021
  43.8954765  72.7427054  23.3886570  41.5451246  66.1882558  20.7601212
  40.6835725  66.4863811  21.0517949  41.5713681  66.4052957  19.8282245
  38.3612816  74.7324748  17.1675018  38.8251161  75.0112451  16.3779640
  38.0969614  73.8308193  16.9848108  35.2536897  74.2796230  20.1054781
  35.8238254  74.7083498  19.4672265  35.8445008  73.9978814  20.8038967
  37.2981702  70.8547901  13.9764583  38.0005745  71.3068944  14.4438509
  36.9662330  70.2131719  14.6044476  35.7462063  69.4459657  28.3515792
  35.1160724  70.1275938  28.5851189  35.6398151  69.3342739  27.4068930
  31.0407036  69.1131453  19.2781716  30.2506090  69.3688982  18.8021827
  31.5318283  69.9279791  19.3833757  45.0570845  76.4536692  22.0286997
  45.8788289  76.0516880  21.7469679  45.0533248  76.3504927  22.9803113
  32.9921781  69.4776033  16.2365193  32.1952944  69.5894727  16.7548689
  32.7647373  69.8162685  15.3706084  38.8227449  76.0020736  24.1847708
  38.8871881  76.4641143  25.0205879  38.1138372  75.3718101  24.3130017
  29.3244739  69.3661944  21.7096707  29.5752777  70.2508954  21.9754283
  29.8604287  69.1866545  20.9371799  53.1476838  72.7975441  18.3771969
  52.3940547  72.2282839  18.2215973  53.2824379  72.7638105  19.3242603
  38.5375466  77.6688843  14.0526688  38.4021141  78.5140379  14.4811536
  39.0785279  77.8708121  13.2892622  35.0242806  63.7480423  30.7141043
  34.6309751  63.1946622  31.3888687  35.8408946  64.0591002  31.1047561
  31.9904864  75.1864281  14.6254613  32.5029384  75.9807532  14.7760178
  32.6427576  74.4890572  14.5588214  33.7999748  78.3030038  16.7077366
  33.9766377  79.2248002  16.5198350  34.5956582  77.9888457  17.1371746
  37.9410767  65.1638302  28.3061300  38.6820480  65.7645455  28.2265762
  38.1728690  64.4215940  27.7479342  33.0852105  70.3494669  26.5839529
  32.9705620  69.4479927  26.8846628  32.2296623  70.5958366  26.2324346
  40.1643943  78.2912410  28.1827030  39.7207797  77.5048788  27.8647935
  40.8261156  78.4791560  27.5170921  34.9231064  79.8208211  22.7087709
  35.4738489  79.6925275  21.9364702  34.0842540  80.1203100  22.3582601
  42.2625181  78.5715210  26.2108431  42.2443656  79.3924091  25.7188700
  43.1845101  78.4469285  26.4358572  38.7198235  76.0859339  27.0531940
  39.2526572  75.3247627  26.8231248  38.1912316  75.7932991  27.7956094
  41.8867930  61.1919405  22.5825581  41.5432199  62.0821047  22.5064692
  42.2546892  61.0021063  21.7195166  29.9553780  73.5152936  15.4014184
  30.7929002  73.9249944  15.1847891  30.1332048  72.5752378  15.3714377
  41.8518213  71.1828016  11.0898017  41.3364836  71.9532621  11.3286404
  41.5795521  70.5093152  11.7131078  39.4365324  66.0277717  16.1483255
  38.5806920  65.6384567  15.9688894  39.8492275  66.1069678  15.2883040
  40.9664470  63.5624060  20.5474815  40.4629266  63.5254195  19.7342620
  41.2595077  64.4716803  20.6071471  37.2107356  63.6462790  19.5540996
  38.0760353  63.4505599  19.1946886  37.2784865  63.4173142  20.4810353
  46.8252487  73.9360371  13.0251190  46.0481929  73.5971530  12.5806352
  47.5043968  73.9412994  12.3506155  41.6404516  69.0555108  12.9157798
  41.3354651  69.3701257  13.7667941  42.5934958  69.1336528  12.9585131
  40.0850948  75.2145332  14.5650752  39.5572309  74.4798091  14.2523989
  39.5838450  75.9920008  14.3190720  45.0643794  73.4094352  19.6817798
  44.4067468  74.0993614  19.7697927  45.8684193  73.7990784  20.0251784
  34.8169675  65.8764998  16.9257363  35.3913427  65.6540179  16.1930556
  35.4040658  65.9453692  17.6785965  43.8749252  71.7638725  17.7321740
  44.3881134  72.3968717  18.2343449  44.5250476  71.1639920  17.3665100
  35.1439262  67.9069459  10.9453248  34.3076575  68.2444145  11.2662523
  35.0044032  67.7718439  10.0080385  37.1192343  62.7506247  15.6532433
  36.4656755  62.4355264  15.0289047  37.0772817  62.1281987  16.3792256
  38.2303548  73.0325542   7.5685725  37.3230609  72.8014795   7.7676874
  38.7274580  72.2363161   7.7559706  41.1371627  81.7423049  10.4882411
  40.4633325  82.0454746  11.0967369  41.5237449  82.5452129  10.1387868
  40.3530083  69.2388180  19.9780080  39.4352645  69.4603127  19.8201768
  40.7690227  69.3134491  19.1191788  41.1365131  70.6379596  15.1082761
  41.8836950  71.1500993  14.7989883  41.4056721  70.3163649  15.9687154
  39.4091781  73.1338137  12.0909715  38.5003000  72.8497170  12.1882185
  39.4386865  73.5537215  11.2313022  44.6411049  76.7444726  15.8600882
  44.1873376  75.9035636  15.9166073  44.0105015  77.3806125  16.1975663
  43.5843968  67.6736712  17.0901550  42.8466725  67.1614098  17.4211792
  43.8370742  67.2337094  16.2784827  43.0843988  78.5821223  16.7950701
  43.3766962  79.1426280  16.0763066  43.5942608  78.8749784  17.5503860
  43.6855595  60.4512964  17.6843319  43.9914472  59.5910328  17.3969234
  44.4108200  61.0430584  17.4842313  29.9779952  70.8543651  16.0724917
  29.7804351  70.2613012  15.3475984  29.4226616  70.5495861  16.7900856
  37.9576675  70.7466757  18.1919510  38.0125285  69.7940594  18.1161987
  37.1467877  70.9026196  18.6760809  39.1067869  74.6746880   9.4297793
  38.6687299  73.9582739   8.9703431  39.8478310  74.9022995   8.8682885
  35.8969035  69.3643817  15.9509889  35.0836901  69.6637988  16.3575081
  36.3928029  68.9699506  16.6684371  38.0477613  79.3601574  17.8844154
  38.0053792  79.5862420  16.9552686  38.9640312  79.1264949  18.0329955
  41.4943247  69.8285642  24.7824783  41.8492635  70.0557115  25.6419249
  42.1415378  70.1604018  24.1602038  47.2240984  72.9504077  15.4874112
  47.0858882  73.1405673  14.5595301  46.8677203  73.7123460  15.9442163
  35.3883110  66.9362173  21.5671124  36.0282489  66.7950932  20.8694087
  34.5560640  66.6496686  21.1909726  47.2510363  75.0180604  20.4985383
  47.6846870  74.9255894  21.3468437  47.9641944  74.9938105  19.8605399
  36.1643414  76.2364603  17.6806116  36.9584012  75.7414923  17.4788691
  35.4535106  75.7082466  17.3173822  40.9838258  78.6182699  22.0318484
  41.0375281  79.1873635  22.7996200  40.1153040  78.7884584  21.6672521
  32.4726177  70.3807685  13.7565869  31.5423765  70.3192140  13.9735831
  32.5683649  69.8583638  12.9602510  32.3911726  66.9062498  16.3444111
  32.6518544  67.8207831  16.2353271  33.2128899  66.4386940  16.4940724
  33.8636652  68.3200255  23.5142935  34.5359705  68.1117617  22.8655584
  33.0366438  68.1222341  23.0748168  48.1125913  75.0604305  23.0318269
  48.3061803  75.9650116  23.2777544  48.0126531  74.6011724  23.8656854
  39.7662224  64.9462196  25.5308596  39.1190139  65.6452145  25.4373073
  40.5363239  65.3798340  25.8984844  43.1741022  75.2111048  28.6059149
  43.0226528  74.9821600  27.6889233  43.1645701  76.1681649  28.6190494
  39.9426358  72.7842961  23.5905416  40.8718418  72.9354120  23.4174383
  39.5217388  72.8726981  22.7354062  38.7414690  76.8093625  21.3603954
  38.6025776  76.4412409  22.2329892  37.9529286  77.3241264  21.1887911
  39.3362842  81.9102721  12.7029490  39.5114597  81.4390765  13.5175113
  38.6495630  82.5368488  12.9310751  40.2919905  76.1875228  18.7492791
  39.9569738  76.1475998  19.6450441  39.7923851  75.5219944  18.2763202
  34.2664149  71.5942858  24.2745372  34.1283947  70.8623097  24.8756912
  35.1769072  71.5051758  23.9929560  43.2279097  73.5331262   9.0229851
  42.6108267  72.8078090   8.9262904  42.7595585  74.2940622   8.6796925
  36.8946450  71.3062817  23.7629052  37.6046068  70.6656009  23.7215671
  36.8515758  71.5575712  24.6855233  44.8833228  78.2430170  26.6835631
  44.8245774  77.5589391  26.0166214  45.2852747  78.9849160  26.2316257
  35.6075384  68.2928035  25.5824692  35.0712741  67.8418773  26.2346288
  35.0192092  68.4273944  24.8395156  33.9023927  85.0592084  19.4769350
  34.1420525  85.6910608  20.1548369  33.0593124  84.7080124  19.7634709
  35.0177643  67.7516686   8.1451155  34.1407109  67.6305487   7.7813402
  35.4935396  66.9602765   7.8930044  44.8850636  76.2069754  24.9149611
  43.9977414  75.8695676  25.0376010  45.4549187  75.4752786  25.1518376
  26.5379783  72.5393846  18.2392662  27.2250822  72.2255576  17.6513678
  26.3827911  73.4435211  17.9659914  31.3414505  67.4284043  22.6677686
  31.2572694  66.8209712  21.9328096  30.5197211  67.9193061  22.6687182
  38.4151789  80.8671207  21.8810854  38.3421960  81.6726178  22.3930159
  37.9729182  81.0663173  21.0558876  38.2041569  80.1042977  15.3913676
  37.4209090  80.6464657  15.4851900  38.9034314  80.6216956  15.7907917
  41.5138219  65.9137606  18.0347881  42.0106918  65.1607569  17.7148951
  40.7425200  65.9501923  17.4691090  49.3667976  71.6177972  19.6766173
  49.3557852  72.5002687  19.3060106  48.4985356  71.2649523  19.4820710
  40.8750472  80.7658041  24.0369013  41.5878445  81.4005506  23.9644914
  40.3840501  80.8621907  23.2209015  42.5967999  74.6709293  15.6086305
  41.6624278  74.7910756  15.4391009  42.7744668  73.7681760  15.3446314
  38.0973187  68.0554989  17.7619566  37.7270975  67.5026030  18.4500471
  38.5932280  67.4513123  17.2094566  45.9840551  70.5126613  16.1436339
  46.4501003  71.3454604  16.0696641  46.4348051  70.0471594  16.8481597
  35.9262386  78.5152484  24.8574584  36.6271845  79.1488967  25.0103978
  35.4557501  78.8567216  24.0970223  44.0516782  76.8570434  13.1422491
  44.3276626  76.7427029  14.0516365  43.1821281  76.4587919  13.1034664
  43.9557213  62.8807200  20.1827240  43.0420293  63.1111427  20.3509447
  44.3850315  62.9645644  21.0341272  43.7263672  71.0697092  22.6827134
  43.0735122  71.3172999  22.0279587  44.1044052  70.2561230  22.3489611
  40.6870846  81.1056785  16.7855304  40.8693240  80.2878441  17.2483057
  41.5103832  81.3224477  16.3480194  41.0213011  80.0324970  14.0470353
  41.5500778  79.5217425  13.4340515  41.2841231  79.7167500  14.9115886
  39.7751245  71.8116903  29.1693171  39.0991882  71.7111032  29.8395546
  40.5978879  71.6556116  29.6329168  31.5230104  78.0488839  21.7905686
  32.1083541  77.3032527  21.9233591  31.3254943  78.3592796  22.6742350
  34.3768759  81.0840087  16.8068129  33.7079135  81.5686214  16.3232169
  34.2381629  81.3309307  17.7211507  26.1147759  70.6194439  20.5110130
  26.1531858  70.0858030  21.3047248  25.6088052  70.0929645  19.8921107
  38.5174028  83.1183830  23.4050787  39.0692336  83.2815452  24.1699872
  38.8580221  83.7088268  22.7330812  33.4938521  65.4658980  24.0072672
  33.5579848  66.3273811  23.5950070  33.4305641  64.8532982  23.2745030
  32.9690794  67.5382113  27.6545706  33.5962832  67.1559190  28.2683230
  32.1118712  67.3196314  28.0201399  43.3684902  77.9445088  29.2599442
  43.9124806  78.5575046  28.7654396  42.7871747  78.5024666  29.7766455
  29.7456336  69.3458542  13.5864061  30.0409777  68.4369220  13.5331115
  28.8444372  69.3246281  13.2645063  41.6542415  81.0665806  20.3914469
  41.5293555  80.2655546  19.8825415  42.3121506  81.5611999  19.9028439
  33.2750583  67.4214538  19.5691610  32.5537169  68.0350506  19.4299083
  34.0643839  67.9572303  19.4908255  43.7177324  78.8674826  22.0194019
  42.7707659  78.7480177  21.9472346  44.0660097  77.9797324  22.1020281
  36.0776897  64.7568965  25.8432261  36.6011299  65.0031261  26.6058571
  35.8589230  65.5888999  25.4235399  31.4744178  67.0272639  13.7103386
  31.1456884  66.1470018  13.5278492  31.8283549  66.9720308  14.5979775
  40.7223757  78.6627542  18.2198372  40.5748719  77.7344249  18.4005942
  41.5477250  78.6847633  17.7355447  34.5886001  67.3145609  14.0778864
  34.9282074  67.8431530  13.3557472  35.0358122  67.6526015  14.8537430
  44.3257879  79.4856101  19.3063244  45.2504426  79.2798962  19.1687695
  44.1573182  79.2372502  20.2152586  37.2829442  65.6982660  23.5281932
  36.9426262  64.8990473  23.9302612  36.5768448  65.9984371  22.9558765
  37.9345914  62.7831972  21.9809255  38.7571983  62.3092450  21.8588145
  38.1783977  63.5622456  22.4807941  36.5754148  65.8120231  12.2772156
  37.2962511  66.1901483  11.7735873  35.9519452  66.5309107  12.3807134
  40.7185271  66.5165380  13.2130489  40.9348886  67.3990018  12.9119317
  40.2379338  66.1251593  12.4836131  35.4584493  69.4751093  19.7901233
  35.3129073  69.7891396  20.6825515  34.9809696  70.0935993  19.2372132
  37.3180875  66.4653641  19.8382123  37.3042444  65.5694734  19.5014421
  38.0353304  66.4724305  20.4720409  39.1707006  66.8990981  21.8835250
  38.9124784  67.8208052  21.8819581  38.6392046  66.5021416  22.5735715
  44.1153195  80.0041768  14.6625336  44.2890072  79.4388191  13.9099188
  44.6082086  80.8042663  14.4804826  29.9330155  72.0156437  22.7288895
  29.3883623  72.7916245  22.8609169  30.8109505  72.3627242  22.5708016
  36.7217771  65.3468021  15.1069693  36.8433683  64.4184667  15.3060581
  36.4319814  65.3606707  14.1948009  39.5908962  63.0322932  18.2436413
  39.6130659  63.0962265  17.2888393  40.0077021  62.1927440  18.4376919
  49.9692586  72.7678191  16.2815636  50.4123732  72.0185516  15.8834759
  49.0919096  72.7588327  15.8989368  45.1028367  79.3208533  11.7622234
  45.7979272  79.9415225  11.9809549  45.4451517  78.4703884  12.0374612
  30.7196177  71.1426334  25.6219051  29.9777913  71.2908969  26.2083682
  30.3988921  71.4034599  24.7585801  47.0019790  76.7708238  13.2909565
  47.5271115  77.1095511  12.5658885  46.9142143  75.8355253  13.1072699
  38.6639839  80.6842312  25.4199441  38.9726966  80.4391459  26.2922141
  39.4615321  80.8888950  24.9318312  38.6860451  82.8380221  17.6504818
  38.2465442  82.3456600  18.3437675  39.4368568  82.2953189  17.4096893
  31.1652790  79.0291762  17.6529446  31.9910810  78.7295534  17.2728090
  30.8146842  78.2599385  18.1019235  36.1334323  78.3818230  19.7227120
  35.5114333  77.7188935  19.4229348  36.8039190  78.4079362  19.0400767
  29.3661395  76.9478089  18.6118380  28.5293304  76.5200263  18.4302381
  29.3385041  77.1410532  19.5489171  36.2058851  66.8600018  29.3159626
  36.2547006  67.7362141  28.9337395  36.7481365  66.3177412  28.7431269
  46.6913697  77.4041142  28.5960763  45.9009240  77.3865281  28.0565262
  46.4547051  77.9429435  29.3509799  46.8111572  74.2533608  25.9093491
  46.8609577  74.0883616  26.8509014  46.7025495  73.3860867  25.5191372
  35.6947830  76.9322154  13.1985580  35.8435951  77.6157618  12.5452253
  36.5014274  76.9127244  13.7135036  44.1015334  70.2364536  27.2252798
  45.0025197  70.0971001  26.9336796  44.1763308  70.4018991  28.1650975
  38.4358139  67.6131391  26.0705984  37.5661449  67.9064957  25.7988573
  38.6717620  68.1971836  26.7913248  48.3129768  76.6730550  26.1535513
  48.0214577  77.0360530  26.9898974  47.7001900  75.9597558  25.9748845
  49.5125451  74.2383429  18.6738083  50.3472342  74.6773233  18.8375643
  49.6484580  73.7622083  17.8546329  46.5616957  71.7963164  24.6215571
  47.0371078  71.9890811  23.8134422  45.6382522  71.8522350  24.3758955
  33.4500463  72.9587331  14.2046649  33.2046505  72.0549661  14.4026859
  33.6196378  72.9604482  13.2626127  41.1397173  63.8311008  23.5871405
  41.6579117  64.5672035  23.2617893  40.7852306  64.1375001  24.4218164
  32.7196111  68.6915689  11.7032811  32.0265356  68.7660044  11.0472847
  32.4747863  67.9276033  12.2254328  41.3909767  60.2511290  19.1072301
  41.6711521  59.5834479  19.7332728  42.1760374  60.4440386  18.5946965
  39.1943236  79.4270284  10.6697328  38.6217203  80.0460471  10.2167800
  39.7676029  79.9769646  11.2037250  45.2618626  68.6728924  22.8543876
  46.2136049  68.7727022  22.8756101  45.0922076  67.8807193  23.3641961
  43.2833005  65.7584508  23.0403277  42.6882937  66.0389520  22.3449766
  42.9982702  66.2478408  23.8120018  42.4140496  79.7107434  11.8005910
  43.3471169  79.6452996  12.0038785  42.3263708  80.5463701  11.3420443
  45.0428512  79.0273305   8.7609858  44.9642144  78.6933168   9.6545615
  45.8638179  79.5195073   8.7601330  47.7406703  71.8935044  21.9686176
  47.7083024  70.9551045  22.1545860  48.3507327  71.9719081  21.2352001
  39.5790034  70.7631097   8.0113380  40.5249139  70.6337305   8.0801798
  39.2004279  70.0245759   8.4882808  47.8901192  68.6846087  22.0144459
  47.3740241  67.9004544  21.8274388  48.7741140  68.3564804  22.1790979
  45.5511919  62.4287103  17.9740272  45.3536740  62.1202191  18.8583604
  46.1611624  63.1548742  18.1038202  53.5583253  72.9551051  21.1092213
  54.2886642  72.6936339  21.6699916  52.9490199  72.2179773  21.1494281
  51.6398550  71.0958913  21.7066664  50.9131714  70.9614878  21.0983156
  51.2245837  71.4035742  22.5123382  39.4628727  74.8148843  29.4714037
  40.3831736  74.9927442  29.6654084  39.4278310  73.8704888  29.3193736
  37.7632951  68.6881073   7.9468265  36.8564407  68.3914186   8.0230979
  38.0408932  68.3910891   7.0802552  28.6810892  70.0087437  18.3967312
  28.3613676  69.1552745  18.1041686  28.1344320  70.2236015  19.1525279
  32.4590799  72.7249878  22.1136818  32.6776809  73.6566986  22.1324852
  32.8716573  72.3657852  22.8991622  39.3795017  63.2317963  14.1012507
  38.5695746  62.8865048  14.4767753  40.0679434  62.9225507  14.6900118
  41.3085565  62.3096010  15.7236803  41.8616604  62.7291463  16.3826826
  41.5455652  61.3831758  15.7659759  37.3318665  68.2983084  31.5039567
  37.2315392  69.2477441  31.4351658  37.1140207  67.9701322  30.6315637
  36.5331736  65.5468009   8.0880245  37.3950900  65.8722907   8.3476062
  36.7182080  64.7599505   7.5753310  28.5499152  73.6290348  20.3660433
  27.8562623  73.2144301  19.8530388  29.2972143  73.6710885  19.7693852
  44.6864373  64.4196535  15.2315468  44.1063042  65.0781339  14.8493520
  44.4200305  63.5973880  14.8202885  43.1367939  63.8201593  17.4336788
  43.6367717  63.9318127  16.6251107  43.7803547  63.5162646  18.0737596
  37.1949935  71.7280222  30.3204629  36.7117016  72.5280583  30.5268518
  37.2810874  71.7388167  29.3672073  30.4635894  73.5608602  18.2426448
  30.4406582  73.6596289  17.2908331  30.7736531  74.4073753  18.5643614
  33.1223272  75.6184757  22.3573063  34.0766526  75.5868699  22.2902994
  32.9235796  75.1575381  23.1723289  33.7122654  74.1885873  24.9243860
  34.5315543  74.6829952  24.9478698  33.9859462  73.2717841  24.8961428
  43.4689251  66.5796625  14.2871816  42.5815106  66.8646276  14.0692011
  43.8843240  66.4190389  13.4399093  46.8203787  66.6043146  18.0026155
  47.5964177  67.0939599  18.2750772  46.0951921  67.0301201  18.4598025
  49.2576345  67.3170766  19.0600096  49.8520836  67.0766502  18.3493404
  49.3302929  66.5977896  19.6873632  31.4773501  81.1604377  19.3743261
  31.3427969  80.4004777  18.8081259  31.0605563  81.8845276  18.9072049
  42.6132464  76.3441300   8.3819836  43.3168314  76.5491303   8.9977491
  41.8895113  76.9118062   8.6468919  43.4430274  72.0951161  14.5022106
  43.3865476  72.5519713  13.6629738  43.9958617  71.3341846  14.3244949
  47.2535080  67.8840893  15.3272226  46.9972014  67.4837529  16.1580433
  46.6287948  68.5984687  15.2022365  51.5647418  70.6236967  17.8343517
  51.0046976  70.6930156  18.6075079  50.9590921  70.4477951  17.1143013
  34.6342627  82.0573694  19.5861703  34.5175011  83.0019126  19.4840393
  33.8135073  81.7547255  19.9747502  44.5219161  76.7823829  10.4318296
  45.3564765  76.3505028  10.2495771  44.3603504  76.6105843  11.3595190
  44.1765054  73.2855943  11.7974635  44.1213857  73.1200214  10.8563079
  43.5511109  73.9931976  11.9536825  28.9657569  68.5224007  25.6236057
  29.6116432  68.0122961  26.1123283  28.7574720  69.2592689  26.1979483
  41.4910961  75.5904854  31.1228198  42.3602120  75.7645507  30.7614833
  41.0117712  76.4099271  31.0003927  37.4861179  62.7864052  11.3759954
  37.4739849  63.7305892  11.5328224  38.3784601  62.6034197  11.0819415
  35.6597141  82.7101956  22.8017632  36.5624388  82.7425566  23.1184127
  35.4334511  81.7802406  22.8163967  37.4150743  81.4632942  19.4627710
  36.4646374  81.4634804  19.3492083  37.7183229  80.7165677  18.9463745
  41.3013299  59.3806828  15.6305890  40.5345694  58.8265315  15.7762573
  41.7124004  59.4528697  16.4920042  33.3055060  65.6691624  29.7211072
  34.1686521  65.3128429  29.9314396  32.7320470  65.3305519  30.4086476
  53.1503437  87.2993480  20.5273473  53.7881846  87.1800228  19.8236813
  53.0324279  88.2474324  20.5861425  49.9593143  87.2520909  20.4634997
  49.6211654  87.1361973  19.5755532  50.8282911  86.8512074  20.4436003
  45.8179959  89.1056385  16.4531888  45.2544824  89.0146322  15.6848176
  45.7032354  88.2856289  16.9334381  50.4412926  88.4055760  26.4221203
  50.4301567  88.0108559  25.5501707  50.6033565  87.6721833  27.0154974
  43.3644390  90.6007577  19.2916109  44.1565682  90.2598401  18.8762408
  43.6041041  90.7102552  20.2118262  51.3979517  92.7727353  11.7646353
  50.7467497  93.3581433  11.3780367  52.1923880  93.3033548  11.8241391
  45.3235144  89.8616490  12.1633488  46.0966020  89.3145477  12.0246363
  45.6760543  90.7260739  12.3747949  47.1620187  91.1892872  25.3700387
  46.8710053  92.0938503  25.2547053  47.7977171  91.2309400  26.0844456
  48.0876394  88.5669721  21.9601746  48.6839966  88.3425743  21.2458709
  48.1451365  87.8254466  22.5627194  47.6601422  86.0209156   9.7951937
  47.9126943  85.4990677   9.0335400  46.7225981  85.8575301   9.8978621
  52.7044705  85.0244934  17.6026681  53.4907794  84.6064357  17.2517098
  52.9683409  85.9291026  17.7708329  52.8754782  90.4617785  12.3015337
  52.2400615  90.5352411  13.0136242  52.5452189  91.0511383  11.6234417
  58.1053132  84.9620167  18.5059659  58.8378304  84.3919384  18.7397489
  57.3492488  84.5741768  18.9466165  47.3797711  87.9237262  11.9976312
  47.2633969  87.2482165  12.6657397  47.4899971  87.4369636  11.1808465
  49.7229252  87.3847409  15.7023002  49.3587459  86.8578030  16.4135923
  50.5796368  86.9945878  15.5289487  55.6278552  78.6741742  22.9654268
  55.2961877  79.5437153  22.7415483  55.0324166  78.3578026  23.6448298
  49.3634739  82.4137309  10.6984350  49.5309141  83.2817545  11.0654821
  49.1731908  82.5764590   9.7745639  52.1210072  90.8754288  22.3650181
  51.8210795  91.7779326  22.2565988  51.7761132  90.6086471  23.2171333
  45.5722554  87.3268084  18.3986885  44.6473050  87.1944299  18.6064577
  45.8206967  88.1062304  18.8956827  55.5207216  83.3936828  20.0447618
  54.6124093  83.3252236  19.7506379  55.4694812  83.8708773  20.8729443
  49.3423960  84.8694966  11.6831017  49.2223585  85.3152017  12.5216497
  48.6476548  85.2180284  11.1244555  42.9331365  86.9701358  19.2330674
  43.0623746  87.2235837  20.1470086  42.2528816  87.5629066  18.9135329
  47.1030852  97.6398608  15.3321148  47.0254882  98.5906433  15.4109629
  46.4992495  97.2944480  15.9896075  49.5948082  84.8126473  27.9882515
  48.8181416  85.3720394  27.9785380  50.2338645  85.2983256  28.5097385
  57.3868862  81.5953266  21.8225492  56.7443242  81.8885799  21.1765286
  56.8823791  81.4806187  22.6278688  55.0409026  85.3416439  12.5111351
  55.9526882  85.5743826  12.3359049  54.5318673  85.9253484  11.9486430
  47.8494454  87.6211927  27.5500482  48.5909138  88.1596971  27.2735306
  47.1431439  88.2478215  27.7072034  53.3249794  89.7641067  26.1472644
  53.7333150  89.3223478  25.4027276  52.6027055  89.1893695  26.4006836
  49.6780864  84.7013674  23.5206201  50.5242059  85.1253088  23.6640850
  49.6179501  84.0447298  24.2144764  53.6478608  90.3242258  19.9024932
  53.0187471  90.4887972  19.2001000  53.2604270  90.7383867  20.6735897
  57.5267840  91.2596696  17.2569296  56.8418878  91.6395597  16.7066330
  57.6111689  91.8692022  17.9901244  52.8280309  82.3618042  25.1787374
  52.5841241  83.1160103  24.6421650  53.1040239  82.7403390  26.0134621
  54.7818772  88.9056655  23.8564640  54.9935667  89.5488415  23.1799021
  54.7348520  88.0718971  23.3886570  52.3845001  81.5174475  20.7601212
  51.5229480  81.8155729  21.0517949  52.4107435  81.7344874  19.8282245
  49.2006570  90.0616666  17.1675018  49.6644916  90.3404369  16.3779640
  48.9363368  89.1600110  16.9848108  46.0930651  89.6088147  20.1054781
  46.6632008  90.0375416  19.4672265  46.6838763  89.3270732  20.8038967
  48.1375456  86.1839818  13.9764583  48.8399499  86.6360862  14.4438509
  47.8056085  85.5423637  14.6044476  46.5855818  84.7751575  28.3515792
  45.9554478  85.4567856  28.5851189  46.4791906  84.6634657  27.4068930
  41.8800790  84.4423371  19.2781716  41.0899844  84.6980899  18.8021827
  42.3712037  85.2571709  19.3833757  55.8964600  91.7828610  22.0286997
  56.7182043  91.3808797  21.7469679  55.8927003  91.6796844  22.9803113
  43.8315535  84.8067950  16.2365193  43.0346699  84.9186644  16.7548689
  43.6041128  85.1454602  15.3706084  49.6621203  91.3312653  24.1847708
  49.7265636  91.7933061  25.0205879  48.9532127  90.7010018  24.3130017
  40.1638493  84.6953861  21.7096707  40.4146531  85.5800871  21.9754283
  40.6998041  84.5158463  20.9371799  63.9870593  88.1267359  18.3771969
  63.2334301  87.5574757  18.2215973  64.1218134  88.0930023  19.3242603
  49.3769221  92.9980761  14.0526688  49.2414896  93.8432297  14.4811536
  49.9179033  93.2000039  13.2892622  45.8636560  79.0772341  30.7141043
  45.4703506  78.5238539  31.3888687  46.6802701  79.3882919  31.1047561
  42.8298618  90.5156199  14.6254613  43.3423139  91.3099449  14.7760178
  43.4821331  89.8182489  14.5588214  44.6393503  93.6321955  16.7077366
  44.8160131  94.5539920  16.5198350  45.4350336  93.3180374  17.1371746
  48.7804521  80.4930220  28.3061300  49.5214235  81.0937373  28.2265762
  49.0122444  79.7507858  27.7479342  43.9245859  85.6786587  26.5839529
  43.8099375  84.7771844  26.8846628  43.0690377  85.9250284  26.2324346
  51.0037697  93.6204327  28.1827030  50.5601551  92.8340706  27.8647935
  51.6654911  93.8083478  27.5170921  45.7624818  95.1500129  22.7087709
  46.3132243  95.0217192  21.9364702  44.9236294  95.4495018  22.3582601
  53.1018935  93.9007127  26.2108431  53.0837411  94.7216008  25.7188700
  54.0238855  93.7761203  26.4358572  49.5591989  91.4151257  27.0531940
  50.0920326  90.6539545  26.8231248  49.0306070  91.1224909  27.7956094
  52.7261684  76.5211323  22.5825581  52.3825954  77.4112964  22.5064692
  53.0940647  76.3312980  21.7195166  40.7947535  88.8444853  15.4014184
  41.6322757  89.2541862  15.1847891  40.9725803  87.9044295  15.3714377
  52.6911967  86.5119934  11.0898017  52.1758590  87.2824539  11.3286404
  52.4189275  85.8385070  11.7131078  50.2759078  81.3569635  16.1483255
  49.4200674  80.9676485  15.9688894  50.6886030  81.4361595  15.2883040
  51.8058225  78.8915978  20.5474815  51.3023020  78.8546113  19.7342620
  52.0988832  79.8008721  20.6071471  48.0501111  78.9754708  19.5540996
  48.9154107  78.7797516  19.1946886  48.1178620  78.7465059  20.4810353
  57.6646241  89.2652289  13.0251190  56.8875684  88.9263448  12.5806352
  58.3437722  89.2704912  12.3506155  52.4798270  84.3847026  12.9157798
  52.1748406  84.6993175  13.7667941  53.4328712  84.4628446  12.9585131
  50.9244702  90.5437249  14.5650752  50.3966064  89.8090009  14.2523989
  50.4232205  91.3211926  14.3190720  55.9037548  88.7386270  19.6817798
  55.2461223  89.4285531  19.7697927  56.7077947  89.1282702  20.0251784
  45.6563430  81.2056916  16.9257363  46.2307182  80.9832097  16.1930556
  46.2434412  81.2745610  17.6785965  54.7143007  87.0930642  17.7321740
  55.2274889  87.7260634  18.2343449  55.3644231  86.4931838  17.3665100
  45.9833017  83.2361377  10.9453248  45.1470329  83.5736063  11.2662523
  45.8437786  83.1010356  10.0080385  47.9586097  78.0798164  15.6532433
  47.3050510  77.7647182  15.0289047  47.9166572  77.4573905  16.3792256
  49.0697302  88.3617460   7.5685725  48.1624364  88.1306713   7.7676874
  49.5668334  87.5655079   7.7559706  51.9765381  97.0714967  10.4882411
  51.3027080  97.3746664  11.0967369  52.3631203  97.8744047  10.1387868
  51.1923838  84.5680098  19.9780080  50.2746399  84.7895045  19.8201768
  51.6083981  84.6426409  19.1191788  51.9758886  85.9671514  15.1082761
  52.7230704  86.4792911  14.7989883  52.2450475  85.6455566  15.9687154
  50.2485536  88.4630054  12.0909715  49.3396755  88.1789087  12.1882185
  50.2780619  88.8829133  11.2313022  55.4804803  92.0736644  15.8600882
  55.0267130  91.2327554  15.9166073  54.8498770  92.7098042  16.1975663
  54.4237723  83.0028630  17.0901550  53.6860479  82.4906016  17.4211792
  54.6764496  82.5629012  16.2784827  53.9237742  93.9113141  16.7950701
  54.2160717  94.4718198  16.0763066  54.4336363  94.2041702  17.5503860
  54.5249350  75.7804882  17.6843319  54.8308227  74.9202245  17.3969234
  55.2501955  76.3722502  17.4842313  40.8173706  86.1835569  16.0724917
  40.6198106  85.5904929  15.3475984  40.2620370  85.8787779  16.7900856
  48.7970430  86.0758675  18.1919510  48.8519040  85.1232511  18.1161987
  47.9861632  86.2318114  18.6760809  49.9461623  90.0038798   9.4297793
  49.5081053  89.2874657   8.9703431  50.6872064  90.2314913   8.8682885
  46.7362790  84.6935735  15.9509889  45.9230655  84.9929905  16.3575081
  47.2321784  84.2991424  16.6684371  48.8871368  94.6893492  17.8844154
  48.8447546  94.9154338  16.9552686  49.8034066  94.4556866  18.0329955
  52.3337001  85.1577559  24.7824783  52.6886389  85.3849032  25.6419249
  52.9809133  85.4895936  24.1602038  58.0634738  88.2795995  15.4874112
  57.9252637  88.4697591  14.5595301  57.7070957  89.0415378  15.9442163
  46.2276864  82.2654090  21.5671124  46.8676244  82.1242849  20.8694087
  45.3954395  81.9788604  21.1909726  58.0904118  90.3472522  20.4985383
  58.5240625  90.2547811  21.3468437  58.8035699  90.3230023  19.8605399
  47.0037168  91.5656521  17.6806116  47.7977767  91.0706841  17.4788691
  46.2928861  91.0374384  17.3173822  51.8232013  93.9474616  22.0318484
  51.8769035  94.5165553  22.7996200  50.9546794  94.1176501  21.6672521
  43.3119932  85.7099602  13.7565869  42.3817520  85.6484058  13.9735831
  43.4077404  85.1875555  12.9602510  43.2305481  82.2354415  16.3444111
  43.4912298  83.1499749  16.2353271  44.0522653  81.7678858  16.4940724
  44.7030406  83.6492172  23.5142935  45.3753460  83.4409535  22.8655584
  43.8760193  83.4514258  23.0748168  58.9519667  90.3896223  23.0318269
  59.1455558  91.2942033  23.2777544  58.8520286  89.9303642  23.8656854
  50.6055978  80.2754113  25.5308596  49.9583893  80.9744063  25.4373073
  51.3756994  80.7090257  25.8984844  54.0134776  90.5402966  28.6059149
  53.8620283  90.3113517  27.6889233  54.0039456  91.4973567  28.6190494
  50.7820113  88.1134878  23.5905416  51.7112173  88.2646038  23.4174383
  50.3611143  88.2018899  22.7354062  49.5808444  92.1385543  21.3603954
  49.4419530  91.7704327  22.2329892  48.7923041  92.6533182  21.1887911
  50.1756596  97.2394639  12.7029490  50.3508352  96.7682682  13.5175113
  49.4889384  97.8660405  12.9310751  51.1313659  91.5167145  18.7492791
  50.7963492  91.4767915  19.6450441  50.6317605  90.8511861  18.2763202
  45.1057903  86.9234775  24.2745372  44.9677701  86.1915014  24.8756912
  46.0162827  86.8343676  23.9929560  54.0672851  88.8623180   9.0229851
  53.4502022  88.1370008   8.9262904  53.5989340  89.6232540   8.6796925
  47.7340204  86.6354735  23.7629052  48.4439823  85.9947927  23.7215671
  47.6909512  86.8867630  24.6855233  55.7226983  93.5722088  26.6835631
  55.6639529  92.8881308  26.0166214  56.1246501  94.3141078  26.2316257
  46.4469138  83.6219953  25.5824692  45.9106495  83.1710691  26.2346288
  45.8585847  83.7565861  24.8395156  44.7417682 100.3884002  19.4769350
  44.9814280 101.0202526  20.1548369  43.8986878 100.0372042  19.7634709
  45.8571397  83.0808604   8.1451155  44.9800863  82.9597405   7.7813402
  46.3329150  82.2894682   7.8930044  55.7244390  91.5361672  24.9149611
  54.8371169  91.1987594  25.0376010  56.2942941  90.8044703  25.1518376
  37.3773537  87.8685764  18.2392662  38.0644577  87.5547494  17.6513678
  37.2221666  88.7727128  17.9659914  42.1808259  82.7575960  22.6677686
  42.0966448  82.1501630  21.9328096  41.3590966  83.2484979  22.6687182
  49.2545543  96.1963124  21.8810854  49.1815715  97.0018096  22.3930159
  48.8122937  96.3955090  21.0558876  49.0435323  95.4334894  15.3913676
  48.2602845  95.9756575  15.4851900  49.7428068  95.9508874  15.7907917
  52.3531973  81.2429524  18.0347881  52.8500673  80.4899486  17.7148951
  51.5818955  81.2793841  17.4691090  60.2061731  86.9469889  19.6766173
  60.1951607  87.8294605  19.3060106  59.3379110  86.5941440  19.4820710
  51.7144227  96.0949958  24.0369013  52.4272199  96.7297423  23.9644914
  51.2234256  96.1913824  23.2209015  53.4361754  90.0001211  15.6086305
  52.5018033  90.1202674  15.4391009  53.6138422  89.0973678  15.3446314
  48.9366942  83.3846907  17.7619566  48.5664729  82.8317947  18.4500471
  49.4326034  82.7805040  17.2094566  56.8234305  85.8418530  16.1436339
  57.2894757  86.6746522  16.0696641  57.2741806  85.3763512  16.8481597
  46.7656140  93.8444402  24.8574584  47.4665600  94.4780885  25.0103978
  46.2951255  94.1859133  24.0970223  54.8910536  92.1862352  13.1422491
  55.1670380  92.0718946  14.0516365  54.0215035  91.7879837  13.1034664
  54.7950968  78.2099117  20.1827240  53.8814048  78.4403344  20.3509447
  55.2244069  78.2937561  21.0341272  54.5657426  86.3989009  22.6827134
  53.9128877  86.6464917  22.0279587  54.9437806  85.5853148  22.3489611
  51.5264600  96.4348703  16.7855304  51.7086995  95.6170358  17.2483057
  52.3497586  96.6516395  16.3480194  51.8606766  95.3616888  14.0470353
  52.3894532  94.8509342  13.4340515  52.1234985  95.0459418  14.9115886
  50.6144999  87.1408820  29.1693171  49.9385636  87.0402950  29.8395546
  51.4372633  86.9848034  29.6329168  42.3623859  93.3780757  21.7905686
  42.9477295  92.6324445  21.9233591  42.1648697  93.6884714  22.6742350
  45.2162514  96.4132004  16.8068129  44.5472889  96.8978132  16.3232169
  45.0775383  96.6601225  17.7211507  36.9541513  85.9486357  20.5110130
  36.9925613  85.4149948  21.3047248  36.4481806  85.4221563  19.8921107
  49.3567782  98.4475748  23.4050787  49.9086090  98.6107369  24.1699872
  49.6973976  99.0380186  22.7330812  44.3332276  80.7950898  24.0072672
  44.3973602  81.6565729  23.5950070  44.2699396  80.1824899  23.2745030
  43.8084548  82.8674030  27.6545706  44.4356587  82.4851107  28.2683230
  42.9512467  82.6488232  28.0201399  54.2078657  93.2737005  29.2599442
  54.7518561  93.8866964  28.7654396  53.6265502  93.8316584  29.7766455
  40.5850091  84.6750459  13.5864061  40.8803532  83.7661138  13.5331115
  39.6838127  84.6538199  13.2645063  52.4936170  96.3957723  20.3914469
  52.3687309  95.5947463  19.8825415  53.1515261  96.8903917  19.9028439
  44.1144338  82.7506456  19.5691610  43.3930924  83.3642424  19.4299083
  44.9037594  83.2864221  19.4908255  54.5571078  94.1966743  22.0194019
  53.6101414  94.0772095  21.9472346  54.9053851  93.3089241  22.1020281
  46.9170651  80.0860882  25.8432261  47.4405053  80.3323179  26.6058571
  46.6982985  80.9180917  25.4235399  42.3137932  82.3564557  13.7103386
  41.9850639  81.4761936  13.5278492  42.6677303  82.3012226  14.5979775
  51.5617511  93.9919460  18.2198372  51.4142474  93.0636167  18.4005942
  52.3871005  94.0139550  17.7355447  45.4279756  82.6437527  14.0778864
  45.7675828  83.1723448  13.3557472  45.8751876  82.9817933  14.8537430
  55.1651633  94.8148018  19.3063244  56.0898181  94.6090880  19.1687695
  54.9966937  94.5664420  20.2152586  48.1223196  81.0274577  23.5281932
  47.7820017  80.2282391  23.9302612  47.4162203  81.3276288  22.9558765
  48.7739668  78.1123890  21.9809255  49.5965738  77.6384368  21.8588145
  49.0177732  78.8914374  22.4807941  47.4147903  81.1412148  12.2772156
  48.1356265  81.5193401  11.7735873  46.7913207  81.8601025  12.3807134
  51.5579026  81.8457297  13.2130489  51.7742640  82.7281935  12.9119317
  51.0773093  81.4543511  12.4836131  46.2978247  84.8043011  19.7901233
  46.1522828  85.1183314  20.6825515  45.8203451  85.4227911  19.2372132
  48.1574630  81.7945559  19.8382123  48.1436199  80.8986652  19.5014421
  48.8747058  81.8016222  20.4720409  50.0100761  82.2282899  21.8835250
  49.7518538  83.1499969  21.8819581  49.4785801  81.8313333  22.5735715
  54.9546949  95.3333686  14.6625336  55.1283827  94.7680108  13.9099188
  55.4475841  96.1334581  14.4804826  40.7723909  87.3448355  22.7288895
  40.2277377  88.1208163  22.8609169  41.6503259  87.6919159  22.5708016
  47.5611526  80.6759939  15.1069693  47.6827437  79.7476585  15.3060581
  47.2713568  80.6898625  14.1948009  50.4302716  78.3614849  18.2436413
  50.4524413  78.4254182  17.2888393  50.8470775  77.5219358  18.4376919
  60.8086341  88.0970109  16.2815636  61.2517487  87.3477434  15.8834759
  59.9312851  88.0880245  15.8989368  55.9422122  94.6500450  11.7622234
  56.6373026  95.2707143  11.9809549  56.2845272  93.7995801  12.0374612
  41.5589931  86.4718251  25.6219051  40.8171667  86.6200887  26.2083682
  41.2382675  86.7326517  24.7585801  57.8413545  92.1000156  13.2909565
  58.3664869  92.4387429  12.5658885  57.7535898  91.1647171  13.1072699
  49.5033594  96.0134229  25.4199441  49.8120720  95.7683376  26.2922141
  50.3009076  96.2180868  24.9318312  49.5254206  98.1672139  17.6504818
  49.0859196  97.6748518  18.3437675  50.2762323  97.6245107  17.4096893
  42.0046545  94.3583680  17.6529446  42.8304565  94.0587452  17.2728090
  41.6540597  93.5891302  18.1019235  46.9728078  93.7110148  19.7227120
  46.3508087  93.0480853  19.4229348  47.6432945  93.7371280  19.0400767
  40.2055150  92.2770006  18.6118380  39.3687058  91.8492181  18.4302381
  40.1778795  92.4702450  19.5489171  47.0452605  82.1891936  29.3159626
  47.0940761  83.0654059  28.9337395  47.5875120  81.6469329  28.7431269
  57.5307451  92.7333059  28.5960763  56.7402995  92.7157198  28.0565262
  57.2940806  93.2721353  29.3509799  57.6505326  89.5825526  25.9093491
  57.7003331  89.4175533  26.8509014  57.5419249  88.7152785  25.5191372
  46.5341585  92.2614071  13.1985580  46.6829705  92.9449536  12.5452253
  47.3408028  92.2419162  13.7135036  54.9409088  85.5656454  27.2252798
  55.8418951  85.4262919  26.9336796  55.0157063  85.7310909  28.1650975
  49.2751894  82.9423309  26.0705984  48.4055203  83.2356875  25.7988573
  49.5111374  83.5263754  26.7913248  59.1523523  92.0022467  26.1535513
  58.8608331  92.3652448  26.9898974  58.5395654  91.2889476  25.9748845
  60.3519205  89.5675347  18.6738083  61.1866097  90.0065151  18.8375643
  60.4878334  89.0914000  17.8546329  57.4010711  87.1255082  24.6215571
  57.8764833  87.3182728  23.8134422  56.4776277  87.1814268  24.3758955
  44.2894218  88.2879249  14.2046649  44.0440260  87.3841579  14.4026859
  44.4590132  88.2896400  13.2626127  51.9790928  79.1602926  23.5871405
  52.4972872  79.8963952  23.2617893  51.6246060  79.4666919  24.4218164
  43.5589865  84.0207607  11.7032811  42.8659110  84.0951962  11.0472847
  43.3141617  83.2567950  12.2254328  52.2303522  75.5803208  19.1072301
  52.5105276  74.9126397  19.7332728  53.0154129  75.7732304  18.5946965
  50.0336990  94.7562202  10.6697328  49.4610957  95.3752389  10.2167800
  50.6069784  95.3061564  11.2037250  56.1012380  84.0020842  22.8543876
  57.0529803  84.1018940  22.8756101  55.9315831  83.2099111  23.3641961
  54.1226760  81.0876425  23.0403277  53.5276692  81.3681438  22.3449766
  53.8376456  81.5770326  23.8120018  53.2534250  95.0399352  11.8005910
  54.1864923  94.9744914  12.0038785  53.1657463  95.8755619  11.3420443
  55.8822267  94.3565222   8.7609858  55.8035898  94.0225086   9.6545615
  56.7031934  94.8486990   8.7601330  58.5800458  87.2226962  21.9686176
  58.5476778  86.2842962  22.1545860  59.1901082  87.3010998  21.2352001
  50.4183789  86.0923015   8.0113380  51.3642894  85.9629223   8.0801798
  50.0398034  85.3537677   8.4882808  58.7294946  84.0138005  22.0144459
  58.2133995  83.2296462  21.8274388  59.6134895  83.6856722  22.1790979
  56.3905673  77.7579021  17.9740272  56.1930494  77.4494109  18.8583604
  57.0005379  78.4840660  18.1038202  64.3977008  88.2842969  21.1092213
  65.1280396  88.0228257  21.6699916  63.7883953  87.5471690  21.1494281
  62.4792305  86.4250831  21.7066664  61.7525468  86.2906796  21.0983156
  62.0639592  86.7327660  22.5123382  50.3022481  90.1440761  29.4714037
  51.2225491  90.3219360  29.6654084  50.2672064  89.1996806  29.3193736
  48.6026706  84.0172991   7.9468265  47.6958161  83.7206104   8.0230979
  48.8802687  83.7202809   7.0802552  39.5204646  85.3379354  18.3967312
  39.2007431  84.4844663  18.1041686  38.9738075  85.5527933  19.1525279
  43.2984554  88.0541795  22.1136818  43.5170564  88.9858903  22.1324852
  43.7110328  87.6949770  22.8991622  50.2188772  78.5609881  14.1012507
  49.4089500  78.2156966  14.4767753  50.9073189  78.2517425  14.6900118
  52.1479320  77.6387928  15.7236803  52.7010359  78.0583381  16.3826826
  52.3849406  76.7123676  15.7659759  48.1712419  83.6275001  31.5039567
  48.0709146  84.5769358  31.4351658  47.9533961  83.2993240  30.6315637
  47.3725491  80.8759926   8.0880245  48.2344655  81.2014825   8.3476062
  47.5575835  80.0891422   7.5753310  39.3892906  88.9582266  20.3660433
  38.6956378  88.5436219  19.8530388  40.1365897  89.0002802  19.7693852
  55.5258127  79.7488453  15.2315468  54.9456796  80.4073257  14.8493520
  55.2594060  78.9265797  14.8202885  53.9761693  79.1493510  17.4336788
  54.4761472  79.2610045  16.6251107  54.6197301  78.8454563  18.0737596
  48.0343689  87.0572140  30.3204629  47.5510771  87.8572500  30.5268518
  48.1204628  87.0680085  29.3672073  41.3029649  88.8900520  18.2426448
  41.2800337  88.9888207  17.2908331  41.6130285  89.7365671  18.5643614
  43.9617027  90.9476675  22.3573063  44.9160280  90.9160617  22.2902994
  43.7629550  90.4867299  23.1723289  44.5516409  89.5177791  24.9243860
  45.3709298  90.0121870  24.9478698  44.8253217  88.6009759  24.8961428
  54.3083005  81.9088543  14.2871816  53.4208860  82.1938194  14.0692011
  54.7236994  81.7482307  13.4399093  57.6597541  81.9335064  18.0026155
  58.4357931  82.4231517  18.2750772  56.9345675  82.3593118  18.4598025
  60.0970100  82.6462683  19.0600096  60.6914591  82.4058419  18.3493404
  60.1696684  81.9269814  19.6873632  42.3167256  96.4896294  19.3743261
  42.1821723  95.7296695  18.8081259  41.8999318  97.2137194  18.9072049
  53.4526219  91.6733218   8.3819836  54.1562069  91.8783220   8.9977491
  52.7288867  92.2409980   8.6468919  54.2824029  87.4243079  14.5022106
  54.2259230  87.8811630  13.6629738  54.8352371  86.6633764  14.3244949
  58.0928835  83.2132811  15.3272226  57.8365769  82.8129447  16.1580433
  57.4681703  83.9276605  15.2022365  62.4041173  85.9528884  17.8343517
  61.8440731  86.0222074  18.6075079  61.7984676  85.7769869  17.1143013
  45.4736381  97.3865611  19.5861703  45.3568766  98.3311044  19.4840393
  44.6528828  97.0839173  19.9747502  55.3612916  92.1115747  10.4318296
  56.1958520  91.6796945  10.2495771  55.1997259  91.9397761  11.3595190
  55.0158808  88.6147860  11.7974635  54.9607612  88.4492132  10.8563079
  54.3904863  89.3223893  11.9536825  39.8051323  83.8515925  25.6236057
  40.4510187  83.3414879  26.1123283  39.5968474  84.5884606  26.1979483
  52.3304715  90.9196772  31.1228198  53.1995875  91.0937424  30.7614833
  51.8511467  91.7391189  31.0003927  48.3254934  78.1155969  11.3759954
  48.3133603  79.0597809  11.5328224  49.2178355  77.9326115  11.0819415
  46.4990896  98.0393873  22.8017632  47.4018142  98.0717483  23.1184127
  46.2728266  97.1094324  22.8163967  48.2544498  96.7924860  19.4627710
  47.3040129  96.7926721  19.3492083  48.5576984  96.0457594  18.9463745
  52.1407053  74.7098746  15.6305890  51.3739449  74.1557233  15.7762573
  52.5517758  74.7820615  16.4920042  44.1448814  80.9983542  29.7211072
  45.0080276  80.6420347  29.9314396  43.5714225  80.6597437  30.4086476
  63.9897191 102.6285398  20.5273473  64.6275601 102.5092145  19.8236813
  63.8718034 103.5766242  20.5861425  60.7986897 102.5812826  20.4634997
  60.4605409 102.4653891  19.5755532  61.6676666 102.1803991  20.4436003
  56.6573713 104.4348303  16.4531888  56.0938578 104.3438240  15.6848176
  56.5426108 103.6148207  16.9334381  61.2806680 103.7347678  26.4221203
  61.2695321 103.3400476  25.5501707  61.4427320 103.0013751  27.0154974
  54.2038145 105.9299494  19.2916109  54.9959437 105.5890319  18.8762408
  54.4434795 106.0394469  20.2118262  62.2373272 108.1019270  11.7646353
  61.5861251 108.6873351  11.3780367  63.0317635 108.6325465  11.8241391
  56.1628899 105.1908407  12.1633488  56.9359775 104.6437395  12.0246363
  56.5154298 106.0552657  12.3747949  58.0013941 106.5184790  25.3700387
  57.7103807 107.4230421  25.2547053  58.6370926 106.5601317  26.0844456
  58.9270148 103.8961638  21.9601746  59.5233721 103.6717661  21.2458709
  58.9845120 103.1546384  22.5627194  58.4995177 101.3501074   9.7951937
  58.7520697 100.8282595   9.0335400  57.5619736 101.1867219   9.8978621
  63.5438460 100.3536852  17.6026681  64.3301549  99.9356275  17.2517098
  63.8077164 101.2582944  17.7708329  63.7148537 105.7909702  12.3015337
  63.0794370 105.8644329  13.0136242  63.3845943 106.3803301  11.6234417
  68.9446887 100.2912085  18.5059659  69.6772059  99.7211302  18.7397489
  68.1886242  99.9033686  18.9466165  58.2191465 103.2529180  11.9976312
  58.1027724 102.5774083  12.6657397  58.3293725 102.7661553  11.1808465
  60.5623006 102.7139327  15.7023002  60.1981214 102.1869948  16.4135923
  61.4190122 102.3237796  15.5289487  66.4672307  94.0033659  22.9654268
  66.1355632  94.8729070  22.7415483  65.8717920  93.6869943  23.6448298
  60.2028493  97.7429226  10.6984350  60.3702896  98.6109463  11.0654821
  60.0125662  97.9056508   9.7745639  62.9603827 106.2046205  22.3650181
  62.6604550 107.1071244  22.2565988  62.6154886 105.9378388  23.2171333
  56.4116308 102.6560002  18.3986885  55.4866804 102.5236216  18.6064577
  56.6600721 103.4354221  18.8956827  66.3600970  98.7228745  20.0447618
  65.4517848  98.6544154  19.7506379  66.3088566  99.2000690  20.8729443
  60.1817714 100.1986884  11.6831017  60.0617339 100.6443935  12.5216497
  59.4870303 100.5472202  11.1244555  53.7725119 102.2993276  19.2330674
  53.9017500 102.5527755  20.1470086  53.0922570 102.8920984  18.9135329
  57.9424606 112.9690526  15.3321148  57.8648636 113.9198351  15.4109629
  57.3386250 112.6236398  15.9896075  60.4341836 100.1418391  27.9882515
  59.6575170 100.7012311  27.9785380  61.0732399 100.6275174  28.5097385
  68.2262617  96.9245184  21.8225492  67.5836997  97.2177717  21.1765286
  67.7217545  96.8098104  22.6278688  65.8802780 100.6708357  12.5111351
  66.7920636 100.9035744  12.3359049  65.3712427 101.2545401  11.9486430
  58.6888208 102.9503844  27.5500482  59.4302893 103.4888888  27.2735306
  57.9825194 103.5770133  27.7072034  64.1643548 105.0932985  26.1472644
  64.5726904 104.6515395  25.4027276  63.4420810 104.5185612  26.4006836
  60.5174618 100.0305592  23.5206201  61.3635813 100.4545005  23.6640850
  60.4573256  99.3739216  24.2144764  64.4872363 105.6534175  19.9024932
  63.8581225 105.8179890  19.2001000  64.0998025 106.0675785  20.6735897
  68.3661595 106.5888613  17.2569296  67.6812633 106.9687515  16.7066330
  68.4505444 107.1983940  17.9901244  63.6674063  97.6909960  25.1787374
  63.4234995  98.4452021  24.6421650  63.9433994  98.0695308  26.0134621
  65.6212526 104.2348572  23.8564640  65.8329421 104.8780332  23.1799021
  65.5742274 103.4010889  23.3886570  63.2238755  96.8466393  20.7601212
  62.3623234  97.1447647  21.0517949  63.2501190  97.0636792  19.8282245
  60.0400325 105.3908584  17.1675018  60.5038670 105.6696287  16.3779640
  59.7757123 104.4892028  16.9848108  56.9324406 104.9380065  20.1054781
  57.5025763 105.3667333  19.4672265  57.5232517 104.6562650  20.8038967
  58.9769211 101.5131736  13.9764583  59.6793254 101.9652780  14.4438509
  58.6449839 100.8715555  14.6044476  57.4249572 100.1043493  28.3515792
  56.7948233 100.7859773  28.5851189  57.3185660  99.9926574  27.4068930
  52.7194545  99.7715289  19.2781716  51.9293599 100.0272817  18.8021827
  53.2105792 100.5863626  19.3833757  66.7358354 107.1120528  22.0286997
  67.5575798 106.7100715  21.7469679  66.7320757 107.0088762  22.9803113
  54.6709290 100.1359868  16.2365193  53.8740453 100.2478562  16.7548689
  54.4434882 100.4746520  15.3706084  60.5014958 106.6604571  24.1847708
  60.5659390 107.1224978  25.0205879  59.7925881 106.0301936  24.3130017
  51.0032248 100.0245779  21.7096707  51.2540286 100.9092789  21.9754283
  51.5391796  99.8450381  20.9371799  74.8264347 103.4559276  18.3771969
  74.0728056 102.8866674  18.2215973  74.9611888 103.4221941  19.3242603
  60.2162975 108.3272679  14.0526688  60.0808650 109.1724214  14.4811536
  60.7572788 108.5291956  13.2892622  56.7030315  94.4064258  30.7141043
  56.3097260  93.8530457  31.3888687  57.5196455  94.7174837  31.1047561
  53.6692373 105.8448117  14.6254613  54.1816893 106.6391367  14.7760178
  54.3215085 105.1474407  14.5588214  55.4787257 108.9613873  16.7077366
  55.6553886 109.8831838  16.5198350  56.2744091 108.6472292  17.1371746
  59.6198276  95.8222138  28.3061300  60.3607989  96.4229291  28.2265762
  59.8516199  95.0799775  27.7479342  54.7639614 101.0078505  26.5839529
  54.6493129 100.1063762  26.8846628  53.9084132 101.2542202  26.2324346
  61.8431452 108.9496245  28.1827030  61.3995306 108.1632624  27.8647935
  62.5048665 109.1375396  27.5170921  56.6018573 110.4792047  22.7087709
  57.1525998 110.3509110  21.9364702  55.7630049 110.7786936  22.3582601
  63.9412690 109.2299045  26.2108431  63.9231165 110.0507926  25.7188700
  64.8632610 109.1053120  26.4358572  60.3985744 106.7443175  27.0531940
  60.9314081 105.9831463  26.8231248  59.8699825 106.4516826  27.7956094
  63.5655439  91.8503240  22.5825581  63.2219708  92.7404882  22.5064692
  63.9334401  91.6604898  21.7195166  51.6341289 104.1736771  15.4014184
  52.4716511 104.5833779  15.1847891  51.8119557 103.2336213  15.3714377
  63.5305722 101.8411852  11.0898017  63.0152345 102.6116456  11.3286404
  63.2583030 101.1676988  11.7131078  61.1152833  96.6861552  16.1483255
  60.2594429  96.2968403  15.9688894  61.5279784  96.7653513  15.2883040
  62.6451979  94.2207896  20.5474815  62.1416775  94.1838031  19.7342620
  62.9382586  95.1300638  20.6071471  58.8894865  94.3046625  19.5540996
  59.7547862  94.1089434  19.1946886  58.9572374  94.0756977  20.4810353
  68.5039996 104.5944206  13.0251190  67.7269438 104.2555366  12.5806352
  69.1831477 104.5996829  12.3506155  63.3192025  99.7138944  12.9157798
  63.0142160 100.0285093  13.7667941  64.2722467  99.7920364  12.9585131
  61.7638457 105.8729167  14.5650752  61.2359818 105.1381927  14.2523989
  61.2625959 106.6503843  14.3190720  66.7431303 104.0678187  19.6817798
  66.0854977 104.7577449  19.7697927  67.5471702 104.4574619  20.0251784
  56.4957184  96.5348833  16.9257363  57.0700936  96.3124015  16.1930556
  57.0828167  96.6037528  17.6785965  65.5536761 102.4222560  17.7321740
  66.0668643 103.0552552  18.2343449  66.2037985 101.8223756  17.3665100
  56.8226771  98.5653294  10.9453248  55.9864084  98.9027981  11.2662523
  56.6831541  98.4302274  10.0080385  58.7979852  93.4090082  15.6532433
  58.1444264  93.0939099  15.0289047  58.7560326  92.7865823  16.3792256
  59.9091057 103.6909377   7.5685725  59.0018118 103.4598631   7.7676874
  60.4062089 102.8946996   7.7559706  62.8159136 112.4006884  10.4882411
  62.1420834 112.7038581  11.0967369  63.2024958 113.2035965  10.1387868
  62.0317592  99.8972016  19.9780080  61.1140154 100.1186963  19.8201768
  62.4477736  99.9718326  19.1191788  62.8152640 101.2963431  15.1082761
  63.5624459 101.8084829  14.7989883  63.0844230 100.9747484  15.9687154
  61.0879290 103.7921972  12.0909715  60.1790509 103.5081005  12.1882185
  61.1174374 104.2121051  11.2313022  66.3198558 107.4028562  15.8600882
  65.8660885 106.5619471  15.9166073  65.6892524 108.0389960  16.1975663
  65.2631477  98.3320548  17.0901550  64.5254234  97.8197934  17.4211792
  65.5158251  97.8920929  16.2784827  64.7631497 109.2405058  16.7950701
  65.0554471 109.8010115  16.0763066  65.2730117 109.5333619  17.5503860
  65.3643104  91.1096800  17.6843319  65.6701981  90.2494163  17.3969234
  66.0895709  91.7014420  17.4842313  51.6567461 101.5127486  16.0724917
  51.4591860 100.9196847  15.3475984  51.1014125 101.2079696  16.7900856
  59.6364184 101.4050593  18.1919510  59.6912794 100.4524429  18.1161987
  58.8255386 101.5610032  18.6760809  60.7855378 105.3330716   9.4297793
  60.3474808 104.6166575   8.9703431  61.5265819 105.5606831   8.8682885
  57.5756544 100.0227652  15.9509889  56.7624410 100.3221823  16.3575081
  58.0715538  99.6283341  16.6684371  59.7265122 110.0185409  17.8844154
  59.6841301 110.2446256  16.9552686  60.6427821 109.7848784  18.0329955
  63.1730756 100.4869477  24.7824783  63.5280144 100.7140950  25.6419249
  63.8202887 100.8187854  24.1602038  68.9028493 103.6087913  15.4874112
  68.7646391 103.7989509  14.5595301  68.5464712 104.3707296  15.9442163
  57.0670619  97.5946008  21.5671124  57.7069998  97.4534767  20.8694087
  56.2348149  97.3080521  21.1909726  68.9297872 105.6764440  20.4985383
  69.3634379 105.5839729  21.3468437  69.6429453 105.6521940  19.8605399
  57.8430923 106.8948438  17.6806116  58.6371521 106.3998759  17.4788691
  57.1322615 106.3666302  17.3173822  62.6625767 109.2766534  22.0318484
  62.7162790 109.8457470  22.7996200  61.7940549 109.4468419  21.6672521
  54.1513686 101.0391520  13.7565869  53.2211274 100.9775976  13.9735831
  54.2471158 100.5167473  12.9602510  54.0699235  97.5646333  16.3444111
  54.3306053  98.4791666  16.2353271  54.8916408  97.0970776  16.4940724
  55.5424161  98.9784090  23.5142935  56.2147214  98.7701452  22.8655584
  54.7153947  98.7806176  23.0748168  69.7913422 105.7188140  23.0318269
  69.9849312 106.6233951  23.2777544  69.6914040 105.2595560  23.8656854
  61.4449733  95.6046031  25.5308596  60.7977648  96.3035981  25.4373073
  62.2150748  96.0382175  25.8984844  64.8528531 105.8694883  28.6059149
  64.7014037 105.6405435  27.6889233  64.8433210 106.8265485  28.6190494
  61.6213867 103.4426796  23.5905416  62.5505927 103.5937956  23.4174383
  61.2004897 103.5310817  22.7354062  60.4202199 107.4677460  21.3603954
  60.2813284 107.0996245  22.2329892  59.6316795 107.9825100  21.1887911
  61.0150351 112.5686557  12.7029490  61.1902106 112.0974600  13.5175113
  60.3283139 113.1952323  12.9310751  61.9707414 106.8459063  18.7492791
  61.6357247 106.8059833  19.6450441  61.4711360 106.1803779  18.2763202
  55.9451658 102.2526693  24.2745372  55.8071456 101.5206932  24.8756912
  56.8556581 102.1635593  23.9929560  64.9066606 104.1915097   9.0229851
  64.2895776 103.4661926   8.9262904  64.4383094 104.9524458   8.6796925
  58.5733959 101.9646652  23.7629052  59.2833577 101.3239845  23.7215671
  58.5303267 102.2159547  24.6855233  66.5620737 108.9014006  26.6835631
  66.5033283 108.2173226  26.0166214  66.9640256 109.6432996  26.2316257
  57.2862893  98.9511870  25.5824692  56.7500250  98.5002609  26.2346288
  56.6979601  99.0857779  24.8395156  55.5811436 115.7175920  19.4769350
  55.8208034 116.3494444  20.1548369  54.7380633 115.3663960  19.7634709
  56.6965151  98.4100522   8.1451155  55.8194618  98.2889323   7.7813402
  57.1722905  97.6186600   7.8930044  66.5638145 106.8653590  24.9149611
  65.6764923 106.5279511  25.0376010  67.1336696 106.1336621  25.1518376
  48.2167292 103.1977681  18.2392662  48.9038331 102.8839411  17.6513678
  48.0615420 104.1019046  17.9659914  53.0202014  98.0867878  22.6677686
  52.9360203  97.4793548  21.9328096  52.1984720  98.5776896  22.6687182
  60.0939298 111.5255042  21.8810854  60.0209469 112.3310014  22.3930159
  59.6516691 111.7247008  21.0558876  59.8829078 110.7626812  15.3913676
  59.0996599 111.3048492  15.4851900  60.5821823 111.2800792  15.7907917
  63.1925728  96.5721442  18.0347881  63.6894427  95.8191404  17.7148951
  62.4212709  96.6085758  17.4691090  71.0455485 102.2761807  19.6766173
  71.0345361 103.1586523  19.3060106  70.1772864 101.9233358  19.4820710
  62.5537981 111.4241876  24.0369013  63.2665954 112.0589341  23.9644914
  62.0628010 111.5205742  23.2209015  64.2755508 105.3293129  15.6086305
  63.3411787 105.4494591  15.4391009  64.4532177 104.4265596  15.3446314
  59.7760696  98.7138825  17.7619566  59.4058484  98.1609865  18.4500471
  60.2719789  98.1096958  17.2094566  67.6628060 101.1710448  16.1436339
  68.1288512 102.0038440  16.0696641  68.1135560 100.7055430  16.8481597
  57.6049895 109.1736320  24.8574584  58.3059354 109.8072803  25.0103978
  57.1345010 109.5151051  24.0970223  65.7304291 107.5154269  13.1422491
  66.0064135 107.4010864  14.0516365  64.8608790 107.1171754  13.1034664
  65.6344722  93.5391035  20.1827240  64.7207802  93.7695262  20.3509447
  66.0637824  93.6229479  21.0341272  65.4051181 101.7280927  22.6827134
  64.7522631 101.9756834  22.0279587  65.7831561 100.9145065  22.3489611
  62.3658355 111.7640620  16.7855304  62.5480749 110.9462276  17.2483057
  63.1891341 111.9808312  16.3480194  62.7000520 110.6908805  14.0470353
  63.2288287 110.1801260  13.4340515  62.9628740 110.3751336  14.9115886
  61.4538754 102.4700738  29.1693171  60.7779391 102.3694867  29.8395546
  62.2766388 102.3139952  29.6329168  53.2017613 108.7072675  21.7905686
  53.7871050 107.9616363  21.9233591  53.0042451 109.0176631  22.6742350
  56.0556268 111.7423922  16.8068129  55.3866644 112.2270050  16.3232169
  55.9169138 111.9893142  17.7211507  47.7935268 101.2778275  20.5110130
  47.8319367 100.7441866  21.3047248  47.2875561 100.7513480  19.8921107
  60.1961537 113.7767666  23.4050787  60.7479845 113.9399287  24.1699872
  60.5367730 114.3672103  22.7330812  55.1726030  96.1242815  24.0072672
  55.2367357  96.9857646  23.5950070  55.1093150  95.5116817  23.2745030
  54.6478303  98.1965948  27.6545706  55.2750341  97.8143025  28.2683230
  53.7906221  97.9780150  28.0201399  65.0472411 108.6028923  29.2599442
  65.5912315 109.2158881  28.7654396  64.4659256 109.1608501  29.7766455
  51.4243845 100.0042377  13.5864061  51.7197286  99.0953055  13.5331115
  50.5231881  99.9830116  13.2645063  63.3329924 111.7249641  20.3914469
  63.2081064 110.9239381  19.8825415  63.9909015 112.2195834  19.9028439
  54.9538092  98.0798374  19.5691610  54.2324678  98.6934341  19.4299083
  55.7431348  98.6156138  19.4908255  65.3964832 109.5258661  22.0194019
  64.4495168 109.4064012  21.9472346  65.7447606 108.6381159  22.1020281
  57.7564406  95.4152800  25.8432261  58.2798808  95.6615097  26.6058571
  57.5376739  96.2472835  25.4235399  53.1531687  97.6856475  13.7103386
  52.8244393  96.8053854  13.5278492  53.5071058  97.6304143  14.5979775
  62.4011266 109.3211377  18.2198372  62.2536228 108.3928085  18.4005942
  63.2264759 109.3431468  17.7355447  56.2673510  97.9729444  14.0778864
  56.6069583  98.5015366  13.3557472  56.7145631  98.3109851  14.8537430
  66.0045388 110.1439936  19.3063244  66.9291935 109.9382797  19.1687695
  65.8360691 109.8956337  20.2152586  58.9616951  96.3566495  23.5281932
  58.6213771  95.5574308  23.9302612  58.2555957  96.6568206  22.9558765
  59.6133423  93.4415808  21.9809255  60.4359492  92.9676286  21.8588145
  59.8571486  94.2206291  22.4807941  58.2541657  96.4704066  12.2772156
  58.9750020  96.8485319  11.7735873  57.6306961  97.1892943  12.3807134
  62.3972780  97.1749215  13.2130489  62.6136394  98.0573853  12.9119317
  61.9166847  96.7835428  12.4836131  57.1372001 100.1334928  19.7901233
  56.9916582 100.4475231  20.6825515  56.6597205 100.7519829  19.2372132
  58.9968384  97.1237476  19.8382123  58.9829953  96.2278570  19.5014421
  59.7140812  97.1308140  20.4720409  60.8494515  97.5574816  21.8835250
  60.5912293  98.4791887  21.8819581  60.3179555  97.1605251  22.5735715
  65.7940704 110.6625604  14.6625336  65.9677581 110.0972026  13.9099188
  66.2869595 111.4626498  14.4804826  51.6117664 102.6740273  22.7288895
  51.0671132 103.4500081  22.8609169  52.4897014 103.0211077  22.5708016
  58.4005280  96.0051856  15.1069693  58.5221191  95.0768503  15.3060581
  58.1107323  96.0190542  14.1948009  61.2696471  93.6906767  18.2436413
  61.2918168  93.7546100  17.2888393  61.6864530  92.8511276  18.4376919
  71.6480095 103.4262026  16.2815636  72.0911241 102.6769352  15.8834759
  70.7706605 103.4172163  15.8989368  66.7815876 109.9792368  11.7622234
  67.4766781 110.5999061  11.9809549  67.1239026 109.1287719  12.0374612
  52.3983686 101.8010169  25.6219051  51.6565422 101.9492804  26.2083682
  52.0776430 102.0618434  24.7585801  68.6807299 107.4292073  13.2909565
  69.2058624 107.7679346  12.5658885  68.5929652 106.4939089  13.1072699
  60.3427348 111.3426147  25.4199441  60.6514475 111.0975294  26.2922141
  61.1402830 111.5472786  24.9318312  60.3647960 113.4964057  17.6504818
  59.9252950 113.0040435  18.3437675  61.1156077 112.9537024  17.4096893
  52.8440299 109.6875598  17.6529446  53.6698319 109.3879369  17.2728090
  52.4934351 108.9183220  18.1019235  57.8121832 109.0402066  19.7227120
  57.1901842 108.3772771  19.4229348  58.4826699 109.0663198  19.0400767
  51.0448904 107.6061924  18.6118380  50.2080813 107.1784098  18.4302381
  51.0172550 107.7994367  19.5489171  57.8846360  97.5183854  29.3159626
  57.9334515  98.3945977  28.9337395  58.4268874  96.9761247  28.7431269
  68.3701206 108.0624977  28.5960763  67.5796749 108.0449116  28.0565262
  68.1334560 108.6013271  29.3509799  68.4899081 104.9117443  25.9093491
  68.5397086 104.7467451  26.8509014  68.3813004 104.0444702  25.5191372
  57.3735339 107.5905989  13.1985580  57.5223460 108.2741454  12.5452253
  58.1801783 107.5711079  13.7135036  65.7802843 100.8948371  27.2252798
  66.6812706 100.7554836  26.9336796  65.8550817 101.0602826  28.1650975
  60.1145648  98.2715226  26.0705984  59.2448958  98.5648792  25.7988573
  60.3505129  98.8555671  26.7913248  69.9917277 107.3314385  26.1535513
  69.7002086 107.6944366  26.9898974  69.3789409 106.6181393  25.9748845
  71.1912960 104.8967265  18.6738083  72.0259851 105.3357069  18.8375643
  71.3272089 104.4205918  17.8546329  68.2404466 102.4547000  24.6215571
  68.7158587 102.6474646  23.8134422  67.3170031 102.5106185  24.3758955
  55.1287972 103.6171167  14.2046649  54.8834014 102.7133497  14.4026859
  55.2983887 103.6188317  13.2626127  62.8184682  94.4894843  23.5871405
  63.3366626  95.2255870  23.2617893  62.4639815  94.7958836  24.4218164
  54.3983620  99.3499524  11.7032811  53.7052865  99.4243879  11.0472847
  54.1535372  98.5859868  12.2254328  63.0697276  90.9095126  19.1072301
  63.3499030  90.2418315  19.7332728  63.8547883  91.1024221  18.5946965
  60.8730745 110.0854120  10.6697328  60.3004712 110.7044307  10.2167800
  61.4463538 110.6353481  11.2037250  66.9406135  99.3312760  22.8543876
  67.8923558  99.4310857  22.8756101  66.7709585  98.5391028  23.3641961
  64.9620514  96.4168343  23.0403277  64.3670446  96.6973356  22.3449766
  64.6770211  96.9062244  23.8120018  64.0928005 110.3691270  11.8005910
  65.0258678 110.3036831  12.0038785  64.0051217 111.2047537  11.3420443
  66.7216021 109.6857140   8.7609858  66.6429653 109.3517004   9.6545615
  67.5425688 110.1778908   8.7601330  69.4194212 102.5518879  21.9686176
  69.3870533 101.6134880  22.1545860  70.0294836 102.6302916  21.2352001
  61.2577543 101.4214932   8.0113380  62.2036648 101.2921140   8.0801798
  60.8791788 100.6829594   8.4882808  69.5688701  99.3429923  22.0144459
  69.0527750  98.5588379  21.8274388  70.4528649  99.0148639  22.1790979
  67.2299428  93.0870938  17.9740272  67.0324249  92.7786027  18.8583604
  67.8399133  93.8132577  18.1038202  75.2370762 103.6134886  21.1092213
  75.9674151 103.3520174  21.6699916  74.6277708 102.8763608  21.1494281
  73.3186059 101.7542749  21.7066664  72.5919223 101.6198714  21.0983156
  72.9033346 102.0619577  22.5123382  61.1416236 105.4732678  29.4714037
  62.0619245 105.6511278  29.6654084  61.1065819 104.5288724  29.3193736
  59.4420460  99.3464909   7.9468265  58.5351916  99.0498021   8.0230979
  59.7196441  99.0494727   7.0802552  50.3598401 100.6671272  18.3967312
  50.0401185  99.8136580  18.1041686  49.8131829 100.8819850  19.1525279
  54.1378308 103.3833713  22.1136818  54.3564318 104.3150821  22.1324852
  54.5504082 103.0241688  22.8991622  61.0582526  93.8901798  14.1012507
  60.2483254  93.5448883  14.4767753  61.7466943  93.5809342  14.6900118
  62.9873074  92.9679845  15.7236803  63.5404113  93.3875299  16.3826826
  63.2243161  92.0415593  15.7659759  59.0106174  98.9566919  31.5039567
  58.9102901  99.9061276  31.4351658  58.7927716  98.6285158  30.6315637
  58.2119245  96.2051844   8.0880245  59.0738409  96.5306742   8.3476062
  58.3969589  95.4183340   7.5753310  50.2286661 104.2874184  20.3660433
  49.5350132 103.8728136  19.8530388  50.9759652 104.3294720  19.7693852
  66.3651882  95.0780370  15.2315468  65.7850551  95.7365174  14.8493520
  66.0987814  94.2557715  14.8202885  64.8155448  94.4785428  17.4336788
  65.3155226  94.5901963  16.6251107  65.4591056  94.1746481  18.0737596
  58.8737444 102.3864058  30.3204629  58.3904525 103.1864418  30.5268518
  58.9598383 102.3972003  29.3672073  52.1423403 104.2192437  18.2426448
  52.1194091 104.3180125  17.2908331  52.4524040 105.0657588  18.5643614
  54.8010781 106.2768592  22.3573063  55.7554035 106.2452535  22.2902994
  54.6023305 105.8159216  23.1723289  55.3910163 104.8469709  24.9243860
  56.2103052 105.3413787  24.9478698  55.6646971 103.9301677  24.8961428
  65.1476760  97.2380461  14.2871816  64.2602615  97.5230111  14.0692011
  65.5630749  97.0774224  13.4399093  68.4991296  97.2626982  18.0026155
  69.2751686  97.7523434  18.2750772  67.7739430  97.6885036  18.4598025
  70.9363854  97.9754601  19.0600096  71.5308345  97.7350337  18.3493404
  71.0090438  97.2561732  19.6873632  53.1561010 111.8188212  19.3743261
  53.0215478 111.0588613  18.8081259  52.7393072 112.5429112  18.9072049
  64.2919973 107.0025135   8.3819836  64.9955823 107.2075138   8.9977491
  63.5682622 107.5701897   8.6468919  65.1217783 102.7534997  14.5022106
  65.0652985 103.2103548  13.6629738  65.6746126 101.9925681  14.3244949
  68.9322589  98.5424729  15.3272226  68.6759523  98.1421364  16.1580433
  68.3075457  99.2568523  15.2022365  73.2434927 101.2820802  17.8343517
  72.6834485 101.3513991  18.6075079  72.6378430 101.1061786  17.1143013
  56.3130136 112.7157529  19.5861703  56.1962520 113.6602961  19.4840393
  55.4922582 112.4131091  19.9747502  66.2006670 107.4407665  10.4318296
  67.0352274 107.0088863  10.2495771  66.0391013 107.2689678  11.3595190
  65.8552563 103.9439778  11.7974635  65.8001366 103.7784049  10.8563079
  65.2298618 104.6515811  11.9536825  50.6445078  99.1807842  25.6236057
  51.2903941  98.6706796  26.1123283  50.4362229  99.9176524  26.1979483
  63.1698470 106.2488690  31.1228198  64.0389629 106.4229342  30.7614833
  62.6905221 107.0683107  31.0003927  59.1648688  93.4447887  11.3759954
  59.1527358  94.3889727  11.5328224  60.0572110  93.2618032  11.0819415
  57.3384650 113.3685791  22.8017632  58.2411897 113.4009401  23.1184127
  57.1122020 112.4386242  22.8163967  59.0938252 112.1216777  19.4627710
  58.1433883 112.1218639  19.3492083  59.3970738 111.3749512  18.9463745
  62.9800808  90.0390664  15.6305890  62.2133203  89.4849150  15.7762573
  63.3911512  90.1112532  16.4920042  54.9842569  96.3275459  29.7211072
  55.8474030  95.9712264  29.9314396  54.4107979  95.9889354  30.4086476
  74.8290946 117.9577316  20.5273473  75.4669355 117.8384063  19.8236813
  74.7111788 118.9058160  20.5861425  71.6380652 117.9104744  20.4634997
  71.2999163 117.7945809  19.5755532  72.5070420 117.5095909  20.4436003
  67.4967467 119.7640220  16.4531888  66.9332333 119.6730157  15.6848176
  67.3819863 118.9440125  16.9334381  72.1200435 119.0639596  26.4221203
  72.1089076 118.6692394  25.5501707  72.2821074 118.3305668  27.0154974
  65.0431899 121.2591412  19.2916109  65.8353191 120.9182237  18.8762408
  65.2828550 121.3686387  20.2118262  67.0022653 120.5200325  12.1633488
  67.7753529 119.9729312  12.0246363  67.3548052 121.3844574  12.3747949
  68.8407696 121.8476707  25.3700387  68.5497562 122.7522338  25.2547053
  69.4764680 121.8893235  26.0844456  69.7663903 119.2253556  21.9601746
  70.3627475 119.0009578  21.2458709  69.8238874 118.4838301  22.5627194
  74.3832214 115.6828770  17.6026681  75.1695303 115.2648193  17.2517098
  74.6470918 116.5874862  17.7708329  79.7840641 115.6204003  18.5059659
  80.5165813 115.0503220  18.7397489  79.0279997 115.2325603  18.9466165
  69.0585220 118.5821097  11.9976312  68.9421478 117.9066001  12.6657397
  69.1687480 118.0953471  11.1808465  71.4016761 118.0431244  15.7023002
  71.0374968 117.5161865  16.4135923  72.2583877 117.6529713  15.5289487
  77.3066061 109.3325577  22.9654268  76.9749386 110.2020988  22.7415483
  76.7111675 109.0161861  23.6448298  71.0422248 113.0721144  10.6984350
  71.2096650 113.9401380  11.0654821  70.8519417 113.2348426   9.7745639
  73.7997581 121.5338123  22.3650181  73.4998304 122.4363162  22.2565988
  73.4548641 121.2670306  23.2171333  67.2510062 117.9851920  18.3986885
  66.3260559 117.8528134  18.6064577  67.4994476 118.7646139  18.8956827
  77.1994725 114.0520663  20.0447618  76.2911602 113.9836072  19.7506379
  77.1482321 114.5292608  20.8729443  71.0211469 115.5278802  11.6831017
  70.9011094 115.9735852  12.5216497  70.3264057 115.8764119  11.1244555
  64.6118874 117.6285193  19.2330674  64.7411255 117.8819672  20.1470086
  63.9316325 118.2212901  18.9135329  71.2735591 115.4710309  27.9882515
  70.4968925 116.0304229  27.9785380  71.9126154 115.9567092  28.5097385
  79.0656371 112.2537102  21.8225492  78.4230751 112.5469635  21.1765286
  78.5611300 112.1390022  22.6278688  69.5281963 118.2795762  27.5500482
  70.2696647 118.8180806  27.2735306  68.8218948 118.9062051  27.7072034
  75.0037303 120.4224903  26.1472644  75.4120659 119.9807313  25.4027276
  74.2814564 119.8477530  26.4006836  71.3568373 115.3597509  23.5206201
  72.2029568 115.7836923  23.6640850  71.2967010 114.7031134  24.2144764
  75.3266117 120.9826093  19.9024932  74.6974980 121.1471807  19.2001000
  74.9391779 121.3967703  20.6735897  79.2055349 121.9180531  17.2569296
  78.5206387 122.2979432  16.7066330  79.2899198 122.5275858  17.9901244
  74.5067818 113.0201878  25.1787374  74.2628750 113.7743938  24.6421650
  74.7827748 113.3987225  26.0134621  76.4606281 119.5640490  23.8564640
  76.6723176 120.2072250  23.1799021  76.4136029 118.7302807  23.3886570
  74.0632510 112.1758311  20.7601212  73.2016989 112.4739564  21.0517949
  74.0894944 112.3928710  19.8282245  70.8794079 120.7200501  17.1675018
  71.3432425 120.9988204  16.3779640  70.6150877 119.8183946  16.9848108
  67.7718160 120.2671983  20.1054781  68.3419517 120.6959251  19.4672265
  68.3626272 119.9854567  20.8038967  69.8162965 116.8423654  13.9764583
  70.5187008 117.2944697  14.4438509  69.4843594 116.2007472  14.6044476
  68.2643327 115.4335410  28.3515792  67.6341987 116.1151691  28.5851189
  68.1579415 115.3218492  27.4068930  63.5588299 115.1007206  19.2781716
  62.7687353 115.3564735  18.8021827  64.0499546 115.9155544  19.3833757
  77.5752109 122.4412445  22.0286997  78.3969552 122.0392633  21.7469679
  77.5714511 122.3380680  22.9803113  65.5103044 115.4651786  16.2365193
  64.7134208 115.5770480  16.7548689  65.2828637 115.8038438  15.3706084
  71.3408712 121.9896489  24.1847708  71.4053145 122.4516896  25.0205879
  70.6319636 121.3593854  24.3130017  61.8426002 115.3537697  21.7096707
  62.0934040 116.2384707  21.9754283  62.3785550 115.1742298  20.9371799
  85.6658102 118.7851194  18.3771969  84.9121810 118.2158592  18.2215973
  85.8005643 118.7513858  19.3242603  67.5424069 109.7356176  30.7141043
  67.1491015 109.1822375  31.3888687  68.3590210 110.0466755  31.1047561
  64.5086127 121.1740034  14.6254613  65.0210648 121.9683285  14.7760178
  65.1608840 120.4766325  14.5588214  66.3181012 124.2905791  16.7077366
  66.4947640 125.2123755  16.5198350  67.1137845 123.9764210  17.1371746
  70.4592030 111.1514055  28.3061300  71.2001744 111.7521208  28.2265762
  70.6909953 110.4091693  27.7479342  65.6033368 116.3370422  26.5839529
  65.4886884 115.4355680  26.8846628  64.7477886 116.5834119  26.2324346
  72.6825206 124.2788163  28.1827030  72.2389060 123.4924541  27.8647935
  73.3442420 124.4667313  27.5170921  67.4412327 125.8083964  22.7087709
  67.9919752 125.6801028  21.9364702  66.6023803 126.1078853  22.3582601
  74.7806444 124.5590963  26.2108431  74.7624920 125.3799844  25.7188700
  75.7026364 124.4345038  26.4358572  71.2379498 122.0735092  27.0531940
  71.7707835 121.3123380  26.8231248  70.7093579 121.7808744  27.7956094
  74.4049193 107.1795158  22.5825581  74.0613463 108.0696800  22.5064692
  74.7728156 106.9896816  21.7195166  62.4735044 119.5028689  15.4014184
  63.3110266 119.9125697  15.1847891  62.6513312 118.5628131  15.3714377
  71.9546587 112.0153470  16.1483255  71.0988183 111.6260320  15.9688894
  72.3673539 112.0945431  15.2883040  73.4845734 109.5499813  20.5474815
  72.9810529 109.5129948  19.7342620  73.7776341 110.4592556  20.6071471
  69.7288620 109.6338543  19.5540996  70.5941616 109.4381352  19.1946886
  69.7966128 109.4048895  20.4810353  74.1585779 115.0430861  12.9157798
  73.8535915 115.3577011  13.7667941  75.1116221 115.1212281  12.9585131
  72.6032211 121.2021085  14.5650752  72.0753573 120.4673844  14.2523989
  72.1019714 121.9795761  14.3190720  77.5825057 119.3970105  19.6817798
  76.9248731 120.0869367  19.7697927  78.3865456 119.7866537  20.0251784
  67.3350939 111.8640751  16.9257363  67.9094691 111.6415932  16.1930556
  67.9221921 111.9329445  17.6785965  76.3930516 117.7514478  17.7321740
  76.9062398 118.3844470  18.2343449  77.0431740 117.1515673  17.3665100
  67.6620526 113.8945212  10.9453248  66.8257838 114.2319899  11.2662523
  67.5225295 113.7594192  10.0080385  69.6373606 108.7382000  15.6532433
  68.9838019 108.4231017  15.0289047  69.5954081 108.1157740  16.3792256
  72.8711347 115.2263933  19.9780080  71.9533908 115.4478880  19.8201768
  73.2871490 115.3010244  19.1191788  73.6546394 116.6255349  15.1082761
  74.4018213 117.1376746  14.7989883  73.9237984 116.3039402  15.9687154
  76.1025232 113.6612465  17.0901550  75.3647988 113.1489852  17.4211792
  76.3552005 113.2212847  16.2784827  76.2036859 106.4388717  17.6843319
  76.5095736 105.5786081  17.3969234  76.9289464 107.0306338  17.4842313
  62.4961215 116.8419404  16.0724917  62.2985615 116.2488765  15.3475984
  61.9407879 116.5371614  16.7900856  70.4757939 116.7342510  18.1919510
  70.5306548 115.7816347  18.1161987  69.6649141 116.8901949  18.6760809
  68.4150299 115.3519570  15.9509889  67.6018164 115.6513741  16.3575081
  68.9109293 114.9575259  16.6684371  70.5658877 125.3477327  17.8844154
  70.5235055 125.5738173  16.9552686  71.4821575 125.1140702  18.0329955
  74.0124510 115.8161395  24.7824783  74.3673898 116.0432868  25.6419249
  74.6596642 116.1479771  24.1602038  67.9064373 112.9237926  21.5671124
  68.5463753 112.7826685  20.8694087  67.0741904 112.6372439  21.1909726
  79.7691627 121.0056357  20.4985383  80.2028134 120.9131647  21.3468437
  80.4823208 120.9813858  19.8605399  68.6824677 122.2240356  17.6806116
  69.4765276 121.7290676  17.4788691  67.9716370 121.6958219  17.3173822
  73.5019522 124.6058452  22.0318484  73.5556544 125.1749388  22.7996200
  72.6334303 124.7760337  21.6672521  64.9907441 116.3683438  13.7565869
  64.0605029 116.3067893  13.9735831  65.0864913 115.8459391  12.9602510
  64.9092990 112.8938251  16.3444111  65.1699807 113.8083584  16.2353271
  65.7310162 112.4262693  16.4940724  66.3817915 114.3076008  23.5142935
  67.0540969 114.0993370  22.8655584  65.5547702 114.1098094  23.0748168
  80.6307176 121.0480058  23.0318269  80.8243066 121.9525869  23.2777544
  80.5307795 120.5887477  23.8656854  72.2843487 110.9337949  25.5308596
  71.6371402 111.6327898  25.4373073  73.0544503 111.3674093  25.8984844
  75.6922285 121.1986801  28.6059149  75.5407791 120.9697353  27.6889233
  75.6826965 122.1557402  28.6190494  72.4607621 118.7718714  23.5905416
  73.3899681 118.9229873  23.4174383  72.0398652 118.8602734  22.7354062
  71.2595953 122.7969378  21.3603954  71.1207039 122.4288162  22.2329892
  70.4710550 123.3117017  21.1887911  72.8101168 122.1750981  18.7492791
  72.4751001 122.1351751  19.6450441  72.3105114 121.5095697  18.2763202
  66.7845412 117.5818611  24.2745372  66.6465210 116.8498850  24.8756912
  67.6950336 117.4927511  23.9929560  69.4127713 117.2938570  23.7629052
  70.1227332 116.6531762  23.7215671  69.3697021 117.5451465  24.6855233
  77.4014492 124.2305923  26.6835631  77.3427038 123.5465144  26.0166214
  77.8034010 124.9724913  26.2316257  68.1256647 114.2803788  25.5824692
  67.5894004 113.8294526  26.2346288  67.5373355 114.4149697  24.8395156
  66.4205191 131.0467837  19.4769350  66.6601789 131.6786361  20.1548369
  65.5774387 130.6955877  19.7634709  67.5358906 113.7392439   8.1451155
  66.6588372 113.6181240   7.7813402  68.0116659 112.9478518   7.8930044
  77.4031899 122.1945507  24.9149611  76.5158678 121.8571429  25.0376010
  77.9730450 121.4628539  25.1518376  59.0561046 118.5269599  18.2392662
  59.7432086 118.2131329  17.6513678  58.9009175 119.4310964  17.9659914
  63.8595768 113.4159796  22.6677686  63.7753957 112.8085465  21.9328096
  63.0378475 113.9068814  22.6687182  70.9333052 126.8546960  21.8810854
  70.8603224 127.6601931  22.3930159  70.4910446 127.0538926  21.0558876
  74.0319482 111.9013359  18.0347881  74.5288182 111.1483322  17.7148951
  73.2606464 111.9377676  17.4691090  81.8849240 117.6053725  19.6766173
  81.8739116 118.4878440  19.3060106  81.0166619 117.2525276  19.4820710
  73.3931736 126.7533794  24.0369013  74.1059708 127.3881259  23.9644914
  72.9021765 126.8497660  23.2209015  75.1149263 120.6585046  15.6086305
  74.1805542 120.7786509  15.4391009  75.2925931 119.7557513  15.3446314
  70.6154451 114.0430742  17.7619566  70.2452238 113.4901783  18.4500471
  71.1113543 113.4388876  17.2094566  78.5021814 116.5002366  16.1436339
  78.9682266 117.3330357  16.0696641  78.9529315 116.0347347  16.8481597
  68.4443649 124.5028237  24.8574584  69.1453109 125.1364720  25.0103978
  67.9738764 124.8442969  24.0970223  76.4738477 108.8682953  20.1827240
  75.5601557 109.0987180  20.3509447  76.9031578 108.9521397  21.0341272
  76.2444935 117.0572845  22.6827134  75.5916386 117.3048752  22.0279587
  76.6225315 116.2436983  22.3489611  72.2932508 117.7992656  29.1693171
  71.6173145 117.6986785  29.8395546  73.1160142 117.6431869  29.6329168
  64.0411368 124.0364592  21.7905686  64.6264804 123.2908280  21.9233591
  63.8436206 124.3468549  22.6742350  66.8950023 127.0715840  16.8068129
  66.2260398 127.5561967  16.3232169  66.7562892 127.3185060  17.7211507
  58.6329022 116.6070192  20.5110130  58.6713122 116.0733783  21.3047248
  58.1269315 116.0805398  19.8921107  71.0355291 129.1059583  23.4050787
  71.5873599 129.2691205  24.1699872  71.3761485 129.6964021  22.7330812
  66.0119785 111.4534733  24.0072672  66.0761111 112.3149564  23.5950070
  65.9486905 110.8408735  23.2745030  65.4872057 113.5257866  27.6545706
  66.1144096 113.1434943  28.2683230  64.6299976 113.3072067  28.0201399
  75.8866166 123.9320841  29.2599442  76.4306070 124.5450799  28.7654396
  75.3053010 124.4900419  29.7766455  62.2637600 115.3334295  13.5864061
  62.5591041 114.4244973  13.5331115  61.3625636 115.3122034  13.2645063
  74.1723679 127.0541559  20.3914469  74.0474818 126.2531299  19.8825415
  74.8302770 127.5487752  19.9028439  65.7931847 113.4090291  19.5691610
  65.0718433 114.0226259  19.4299083  66.5825103 113.9448056  19.4908255
  76.2358587 124.8550579  22.0194019  75.2888923 124.7355930  21.9472346
  76.5841360 123.9673077  22.1020281  68.5958160 110.7444718  25.8432261
  69.1192562 110.9907014  26.6058571  68.3770494 111.5764753  25.4235399
  63.9925441 113.0148392  13.7103386  63.6638148 112.1345771  13.5278492
  64.3464812 112.9596061  14.5979775  73.2405020 124.6503295  18.2198372
  73.0929983 123.7220002  18.4005942  74.0658514 124.6723386  17.7355447
  67.1067265 113.3021362  14.0778864  67.4463337 113.8307283  13.3557472
  67.5539385 113.6401768  14.8537430  76.8439142 125.4731854  19.3063244
  77.7685690 125.2674715  19.1687695  76.6754446 125.2248255  20.2152586
  69.8010705 111.6858413  23.5281932  69.4607526 110.8866226  23.9302612
  69.0949712 111.9860124  22.9558765  70.4527177 108.7707725  21.9809255
  71.2753247 108.2968203  21.8588145  70.6965241 109.5498209  22.4807941
  69.0935412 111.7995984  12.2772156  69.8143774 112.1777236  11.7735873
  68.4700716 112.5184861  12.3807134  73.2366535 112.5041133  13.2130489
  73.4530149 113.3865771  12.9119317  72.7560602 112.1127346  12.4836131
  67.9765756 115.4626846  19.7901233  67.8310337 115.7767149  20.6825515
  67.4990960 116.0811746  19.2372132  69.8362139 112.4529394  19.8382123
  69.8223708 111.5570487  19.5014421  70.5534567 112.4600058  20.4720409
  71.6888270 112.8866734  21.8835250  71.4306047 113.8083805  21.8819581
  71.1573310 112.4897169  22.5735715  62.4511418 118.0032190  22.7288895
  61.9064886 118.7791998  22.8609169  63.3290768 118.3502995  22.5708016
  69.2399035 111.3343774  15.1069693  69.3614946 110.4060420  15.3060581
  68.9501077 111.3482460  14.1948009  72.1090225 109.0198685  18.2436413
  72.1311922 109.0838018  17.2888393  72.5258284 108.1803193  18.4376919
  82.4873850 118.7553944  16.2815636  82.9304996 118.0061269  15.8834759
  81.6100360 118.7464081  15.8989368  63.2377440 117.1302087  25.6219051
  62.4959176 117.2784722  26.2083682  62.9170184 117.3910352  24.7585801
  71.1821103 126.6718065  25.4199441  71.4908229 126.4267212  26.2922141
  71.9796585 126.8764703  24.9318312  71.2041715 128.8255974  17.6504818
  70.7646705 128.3332353  18.3437675  71.9549832 128.2828942  17.4096893
  63.6834054 125.0167515  17.6529446  64.5092074 124.7171287  17.2728090
  63.3328106 124.2475138  18.1019235  68.6515587 124.3693983  19.7227120
  68.0295596 123.7064689  19.4229348  69.3220454 124.3955115  19.0400767
  61.8842659 122.9353842  18.6118380  61.0474567 122.5076016  18.4302381
  61.8566304 123.1286285  19.5489171  68.7240114 112.8475772  29.3159626
  68.7728270 113.7237894  28.9337395  69.2662629 112.3053165  28.7431269
  79.2094960 123.3916895  28.5960763  78.4190504 123.3741034  28.0565262
  78.9728315 123.9305188  29.3509799  79.3292835 120.2409361  25.9093491
  79.3790840 120.0759369  26.8509014  79.2206758 119.3736620  25.5191372
  76.6196597 116.2240289  27.2252798  77.5206460 116.0846754  26.9336796
  76.6944572 116.3894744  28.1650975  70.9539403 113.6007144  26.0705984
  70.0842712 113.8940710  25.7988573  71.1898883 114.1847589  26.7913248
  80.8311032 122.6606303  26.1535513  80.5395840 123.0236283  26.9898974
  80.2183163 121.9473311  25.9748845  82.0306714 120.2259182  18.6738083
  82.8653606 120.6648987  18.8375643  82.1665843 119.7497836  17.8546329
  79.0798220 117.7838917  24.6215571  79.5552342 117.9766564  23.8134422
  78.1563786 117.8398103  24.3758955  65.9681727 118.9463084  14.2046649
  65.7227769 118.0425414  14.4026859  66.1377641 118.9480235  13.2626127
  73.6578437 109.8186761  23.5871405  74.1760380 110.5547788  23.2617893
  73.3033569 110.1250754  24.4218164  65.2377374 114.6791442  11.7032811
  64.5446619 114.7535797  11.0472847  64.9929126 113.9151786  12.2254328
  73.9091031 106.2387043  19.1072301  74.1892785 105.5710232  19.7332728
  74.6941638 106.4316139  18.5946965  77.7799889 114.6604677  22.8543876
  78.7317312 114.7602775  22.8756101  77.6103340 113.8682946  23.3641961
  75.8014269 111.7460261  23.0403277  75.2064201 112.0265273  22.3449766
  75.5163965 112.2354162  23.8120018  80.2587967 117.8810797  21.9686176
  80.2264287 116.9426798  22.1545860  80.8688591 117.9594834  21.2352001
  80.4082455 114.6721840  22.0144459  79.8921504 113.8880297  21.8274388
  81.2922404 114.3440557  22.1790979  78.0693182 108.4162856  17.9740272
  77.8718003 108.1077944  18.8583604  78.6792888 109.1424495  18.1038202
  86.0764517 118.9426804  21.1092213  86.8067905 118.6812092  21.6699916
  85.4671462 118.2055526  21.1494281  84.1579814 117.0834666  21.7066664
  83.4312977 116.9490631  21.0983156  83.7427101 117.3911495  22.5123382
  71.9809990 120.8024596  29.4714037  72.9013000 120.9803195  29.6654084
  71.9459573 119.8580642  29.3193736  61.1992155 115.9963190  18.3967312
  60.8794940 115.1428498  18.1041686  60.6525583 116.2111768  19.1525279
  64.9772063 118.7125631  22.1136818  65.1958073 119.6442739  22.1324852
  65.3897837 118.3533605  22.8991622  71.8976281 109.2193716  14.1012507
  71.0877009 108.8740801  14.4767753  72.5860698 108.9101260  14.6900118
  73.8266829 108.2971763  15.7236803  74.3797868 108.7167216  16.3826826
  74.0636915 107.3707511  15.7659759  69.8499928 114.2858837  31.5039567
  69.7496655 115.2353194  31.4351658  69.6321470 113.9577075  30.6315637
  69.0513000 111.5343762   8.0880245  69.9132164 111.8598660   8.3476062
  69.2363344 110.7475258   7.5753310  61.0680415 119.6166101  20.3660433
  60.3743887 119.2020054  19.8530388  61.8153406 119.6586638  19.7693852
  77.2045636 110.4072288  15.2315468  76.6244305 111.0657092  14.8493520
  76.9381569 109.5849633  14.8202885  75.6549202 109.8077346  17.4336788
  76.1548981 109.9193880  16.6251107  76.2984810 109.5038399  18.0737596
  69.7131198 117.7155975  30.3204629  69.2298280 118.5156336  30.5268518
  69.7992137 117.7263920  29.3672073  62.9817158 119.5484355  18.2426448
  62.9587846 119.6472042  17.2908331  63.2917794 120.3949506  18.5643614
  65.6404536 121.6060510  22.3573063  66.5947789 121.5744452  22.2902994
  65.4417059 121.1451134  23.1723289  66.2303918 120.1761626  24.9243860
  67.0496807 120.6705705  24.9478698  66.5040726 119.2593594  24.8961428
  75.9870514 112.5672378  14.2871816  75.0996369 112.8522029  14.0692011
  76.4024503 112.4066142  13.4399093  79.3385050 112.5918899  18.0026155
  80.1145440 113.0815352  18.2750772  78.6133184 113.0176954  18.4598025
  81.7757609 113.3046519  19.0600096  82.3702100 113.0642255  18.3493404
  81.8484193 112.5853649  19.6873632  63.9954765 127.1480130  19.3743261
  63.8609232 126.3880531  18.8081259  63.5786827 127.8721029  18.9072049
  75.9611538 118.0826914  14.5022106  75.9046739 118.5395466  13.6629738
  76.5139880 117.3217599  14.3244949  79.7716344 113.8716646  15.3272226
  79.5153278 113.4713282  16.1580433  79.1469212 114.5860440  15.2022365
  84.0828682 116.6112720  17.8343517  83.5228240 116.6805909  18.6075079
  83.4772185 116.4353704  17.1143013  67.1523890 128.0449447  19.5861703
  67.0356275 128.9894879  19.4840393  66.3316337 127.7423008  19.9747502
  61.4838832 114.5099760  25.6236057  62.1297696 113.9998714  26.1123283
  61.2755983 115.2468442  26.1979483  74.0092224 121.5780608  31.1228198
  74.8783384 121.7521260  30.7614833  73.5298976 122.3975024  31.0003927
  70.0042443 108.7739805  11.3759954  69.9921112 109.7181645  11.5328224
  70.8965864 108.5909950  11.0819415  68.1778405 128.6977709  22.8017632
  69.0805651 128.7301319  23.1184127  67.9515775 127.7678159  22.8163967
  69.9332007 127.4508695  19.4627710  68.9827638 127.4510557  19.3492083
  70.2364493 126.7041430  18.9463745  73.8194562 105.3682581  15.6305890
  73.0526958 104.8141068  15.7762573  74.2305267 105.4404450  16.4920042
  65.8236323 111.6567377  29.7211072  66.6867785 111.3004182  29.9314396
  65.2501734 111.3181272  30.4086476  82.9594189 134.3931513  26.4221203
  82.9482830 133.9984312  25.5501707  83.1214829 133.6597586  27.0154974
  88.1459816 124.6617495  22.9654268  87.8143141 125.5312906  22.7415483
  87.5505429 124.3453779  23.6448298  82.1129345 130.8002226  27.9882515
  81.3362679 131.3596147  27.9785380  82.7519908 131.2859009  28.5097385
  80.3675717 133.6087680  27.5500482  81.1090402 134.1472724  27.2735306
  79.6612703 134.2353969  27.7072034  82.1962127 130.6889427  23.5206201
  83.0423322 131.1128841  23.6640850  82.1360765 130.0323051  24.2144764
  85.3461572 128.3493795  25.1787374  85.1022504 129.1035856  24.6421650
  85.6221503 128.7279143  26.0134621  79.1037081 130.7627328  28.3515792
  78.4735742 131.4443609  28.5851189  78.9973169 130.6510410  27.4068930
  72.6819757 130.6829614  21.7096707  72.9327795 131.5676624  21.9754283
  73.2179305 130.5034216  20.9371799  78.3817824 125.0648094  30.7141043
  77.9884769 124.5114292  31.3888687  79.1983964 125.3758672  31.1047561
  81.2985785 126.4805973  28.3061300  82.0395498 127.0813126  28.2265762
  81.5303708 125.7383611  27.7479342  76.4427123 131.6662340  26.5839529
  76.3280638 130.7647597  26.8846628  75.5871641 131.9126037  26.2324346
  82.0773253 137.4027010  27.0531940  82.6101590 136.6415298  26.8231248
  81.5487334 137.1100662  27.7956094  85.2442948 122.5087076  22.5825581
  84.9007217 123.3988717  22.5064692  85.6121910 122.3188733  21.7195166
  80.5682374 124.9630461  19.5540996  81.4335371 124.7673269  19.1946886
  80.6359883 124.7340812  20.4810353  78.7458128 128.2529843  21.5671124
  79.3857507 128.1118602  20.8694087  77.9135658 127.9664357  21.1909726
  77.2211670 129.6367925  23.5142935  77.8934723 129.4285288  22.8655584
  76.3941456 129.4390011  23.0748168  83.1237242 126.2629866  25.5308596
  82.4765157 126.9619816  25.4373073  83.8938257 126.6966010  25.8984844
  86.5316040 136.5278719  28.6059149  86.3801546 136.2989270  27.6889233
  86.5220719 137.4849320  28.6190494  77.6239167 132.9110528  24.2745372
  77.4858965 132.1790767  24.8756912  78.5344090 132.8219429  23.9929560
  80.2521468 132.6230488  23.7629052  80.9621086 131.9823680  23.7215671
  80.2090776 132.8743383  24.6855233  78.9650402 129.6095706  25.5824692
  78.4287759 129.1586444  26.2346288  78.3767110 129.7441615  24.8395156
  74.6989523 128.7451713  22.6677686  74.6147711 128.1377383  21.9328096
  73.8772229 129.2360732  22.6687182  83.1326263 133.1284573  29.1693171
  82.4566900 133.0278703  29.8395546  83.9553897 132.9723787  29.6329168
  69.4722777 131.9362110  20.5110130  69.5106876 131.4025701  21.3047248
  68.9663070 131.4097316  19.8921107  76.8513539 126.7826651  24.0072672
  76.9154866 127.6441482  23.5950070  76.7880659 126.1700652  23.2745030
  76.3265812 128.8549783  27.6545706  76.9537850 128.4726861  28.2683230
  75.4693730 128.6363985  28.0201399  79.4351915 126.0736635  25.8432261
  79.9586317 126.3198932  26.6058571  79.2164248 126.9056670  25.4235399
  80.6404460 127.0150331  23.5281932  80.3001280 126.2158144  23.9302612
  79.9343466 127.3152041  22.9558765  81.2920932 124.0999643  21.9809255
  82.1147001 123.6260121  21.8588145  81.5358995 124.8790127  22.4807941
  82.5282024 128.2158652  21.8835250  82.2699802 129.1375722  21.8819581
  81.9967064 127.8189086  22.5735715  73.2905173 133.3324108  22.7288895
  72.7458641 134.1083916  22.8609169  74.1684522 133.6794912  22.5708016
  74.0771194 132.4594004  25.6219051  73.3352931 132.6076640  26.2083682
  73.7563939 132.7202270  24.7585801  79.5633869 128.1767689  29.3159626
  79.6122024 129.0529812  28.9337395  80.1056383 127.6345082  28.7431269
  87.4590352 131.5532207  27.2252798  88.3600215 131.4138672  26.9336796
  87.5338326 131.7186662  28.1650975  81.7933157 128.9299062  26.0705984
  80.9236467 129.2232628  25.7988573  82.0292638 129.5139507  26.7913248
  84.4972191 125.1478679  23.5871405  85.0154135 125.8839705  23.2617893
  84.1427324 125.4542672  24.4218164  86.6408023 127.0752178  23.0403277
  86.0457955 127.3557191  22.3449766  86.3557720 127.5646079  23.8120018
  82.8203745 136.1316514  29.4714037  83.7406754 136.3095113  29.6654084
  82.7853328 135.1872559  29.3193736  80.6893683 129.6150754  31.5039567
  80.5890410 130.5645111  31.4351658  80.4715225 129.2868993  30.6315637
  80.5524953 133.0447893  30.3204629  80.0692034 133.8448253  30.5268518
  80.6385892 133.0555838  29.3672073  77.0697672 135.5053544  24.9243860
  77.8890561 135.9997623  24.9478698  77.3434480 134.5885512  24.8961428
  72.3232587 129.8391678  25.6236057  72.9691450 129.3290632  26.1123283
  72.1149738 130.5760359  26.1979483  84.8485979 136.9072525  31.1228198
  85.7177138 137.0813177  30.7614833  84.3692730 137.7266942  31.0003927
  76.6630078 126.9859295  29.7211072  77.5261539 126.6296100  29.9314396
  76.0895488 126.6473190  30.4086476  39.6019173  50.0825965  13.1466509
  39.5907813  49.6878763  12.2747013  39.7639812  49.3492038  13.7400281
  36.3226434  52.8663077  12.0945693  36.0316300  53.7708708  11.9792360
  36.9583418  52.9079605  12.8089763  41.2816319  52.5524493   9.0895487
  40.9817042  53.4549531   8.9811294  40.9367378  52.2856676   9.9416640
  38.7554328  46.4896678  14.7127822  37.9787662  47.0490598  14.7030686
  39.3944891  46.9753461  15.2342692  37.0100701  49.2982132  14.2745789
  37.7515385  49.8367176  13.9980612  36.3037686  49.9248420  14.4317341
  42.4856040  51.4411272  12.8717950  42.8939396  50.9993683  12.1272583
  41.7633302  50.8663900  13.1252143  43.9425018  50.5826860  10.5809946
  44.1541914  51.2258620   9.9044327  43.8954767  49.7489176  10.1131876
  45.0570846  53.4598815   8.7532304  45.8788290  53.0579002   8.4714985
  45.0533249  53.3567049   9.7048420  38.8227450  53.0082858  10.9093014
  38.8871882  53.4703266  11.7451186  38.1138374  52.3780223  11.0375324
  40.1643944  55.2974532  14.9072337  39.7207798  54.5110911  14.5893241
  40.8261157  55.4853683  14.2416227  34.9231065  56.8270334   9.4333015
  35.4738490  56.6987397   8.6610009  34.0842541  57.1265223   9.0827908
  42.2625182  55.5777332  12.9353738  42.2443657  56.3986213  12.4434007
  43.1845102  55.4531407  13.1603879  38.7198236  53.0921462  13.7777246
  39.2526573  52.3309750  13.5476554  38.1912317  52.7995114  14.5201401
  47.2510365  52.0242727   7.2230690  47.6846871  51.9318016   8.0713744
  47.9641945  52.0000228   6.5850706  40.9838260  55.6244821   8.7563791
  41.0375282  56.1935757   9.5241507  40.1153041  55.7946706   8.3917828
  48.1125914  52.0666428   9.7563575  48.3061804  52.9712238  10.0022850
  48.0126532  51.6073847  10.5902161  43.1741023  52.2173170  15.3304456
  43.0226529  51.9883722  14.4134540  43.1645702  53.1743772  15.3435801
  44.8833230  55.2492293  13.4080938  44.8245776  54.5651513  12.7411521
  45.2852748  55.9911283  12.9561564  33.9023928  62.0654207   6.2014657
  34.1420527  62.6972731   6.8793675  33.0593125  61.7142247   6.4880016
  44.8850637  53.2131877  11.6394918  43.9977416  52.8757799  11.7621317
  45.4549188  52.4814908  11.8763683  38.4151790  57.8733329   8.6056161
  38.3421962  58.6788301   9.1175465  37.9729183  58.0725295   7.7804182
  40.8750474  57.7720163  10.7614319  41.5878446  58.4067628  10.6890221
  40.3840502  57.8684029   9.9454321  35.9262387  55.5214607  11.5819890
  36.6271847  56.1551090  11.7349285  35.4557502  55.8629338  10.8215530
  39.7751246  48.8179025  15.8938478  39.0991883  48.7173155  16.5640853
  40.5978880  48.6618239  16.3574475  38.5174029  60.1245953  10.1296094
  39.0692337  60.2877574  10.8945179  38.8580223  60.7150391   9.4576119
  43.3684903  54.9507210  15.9844748  43.9124807  55.5637169  15.4899703
  42.7871748  55.5086789  16.5011761  41.6542416  58.0727928   7.1159776
  41.5293556  57.2717668   6.6070721  42.3121508  58.5674122   6.6273746
  43.7177325  55.8736948   8.7439326  42.7707660  55.7542300   8.6717653
  44.0660098  54.9859446   8.8265587  44.3257880  56.4918223   6.0308551
  45.2504427  56.2861085   5.8933002  44.1573183  56.2434624   6.9397892
  38.6639840  57.6904434  12.1444748  38.9726967  57.4453581  13.0167448
  39.4615322  57.8951073  11.6563618  46.6913698  54.4103264  15.3206069
  45.9009242  54.3927403  14.7810569  46.4547052  54.9491558  16.0755106
  46.8111573  51.2595731  12.6338798  46.8609578  51.0945738  13.5754321
  46.7025496  50.3922990  12.2436679  44.1015335  47.2426659  13.9498105
  45.0025198  47.1033124  13.6582102  44.1763310  47.4081114  14.8896282
  48.3129770  53.6792672  12.8780820  48.0214578  54.0422653  13.7144280
  47.7001901  52.9659681  12.6994152  46.5616958  48.8025287  11.3460877
  47.0371080  48.9952933  10.5379729  45.6382523  48.8584473  11.1004261
  47.7406705  48.8997167   8.6931483  47.7083025  47.9613167   8.8791167
  48.3507328  48.9781203   7.9597308  53.5583255  49.9613173   7.8337520
  54.2886643  49.6998462   8.3945223  52.9490200  49.2241895   7.8739588
  51.6398552  48.1021036   8.4311971  50.9131715  47.9677001   7.8228462
  51.2245839  48.4097865   9.2368689  39.4628728  51.8210966  16.1959344
  40.3831738  51.9989565  16.3899390  39.4278311  50.8767011  16.0439043
  37.3318666  45.3045206  18.2284874  37.2315393  46.2539563  18.1596965
  37.1140208  44.9763445  17.3560944  37.1949936  48.7342345  17.0449936
  36.7117018  49.5342705  17.2513825  37.2810875  48.7450290  16.0917380
  41.4910962  52.5966977  17.8473505  42.3602122  52.7707629  17.4860140
  41.0117714  53.4161394  17.7249234  35.6597142  59.7164078   9.5262938
  36.5624389  59.7487688   9.8429433  35.4334512  58.7864529   9.5409274
  53.1503438  64.3055603   7.2518779  53.7881848  64.1862350   6.5482119
  53.0324281  65.2536447   7.3106731  49.9593144  64.2583031   7.1880304
  49.6211656  64.1424096   6.3000839  50.8282912  63.8574196   7.1681310
  45.8179960  66.1118508   3.1777195  45.2544825  66.0208444   2.4093483
  45.7032355  65.2918412   3.6579687  50.4412927  65.4117883  13.1466509
  50.4301568  65.0170681  12.2747013  50.6033567  64.6783955  13.7400281
  43.3644392  67.6069699   6.0161415  44.1565684  67.2660524   5.6007715
  43.6041042  67.7164674   6.9363569  51.3979519  69.7789475  -1.5108340
  50.7467498  70.3643556  -1.8974326  52.1923881  70.3095670  -1.4513303
  45.3235146  66.8678612  -1.1121206  46.0966022  66.3207599  -1.2508330
  45.6760545  67.7322862  -0.9006744  47.1620188  68.1954995  12.0945693
  46.8710054  69.1000626  11.9792360  47.7977173  68.2371522  12.8089763
  48.0876395  65.5731843   8.6847053  48.6839967  65.3487866   7.9704016
  48.1451367  64.8316589   9.2872501  52.7044706  62.0307057   4.3271987
  53.4907796  61.6126480   3.9762404  52.9683411  62.9353149   4.4953636
  52.8754784  67.4679907  -0.9739356  52.2400617  67.5414534  -0.2618451
  52.5452190  68.0573506  -1.6520277  58.1053133  61.9682290   5.2304966
  58.8378305  61.3981507   5.4642795  57.3492489  61.5803891   5.6711471
  49.7229253  64.3909532   2.4268308  49.3587460  63.8640153   3.1381230
  50.5796369  64.0008001   2.2534794  55.6278554  55.6803864   9.6899574
  55.2961879  56.5499275   9.4660789  55.0324167  55.3640148  10.3693605
  52.1210073  67.8816410   9.0895487  51.8210796  68.7841449   8.9811294
  51.7761133  67.6148593   9.9416640  45.5722555  64.3330207   5.1232192
  44.6473051  64.2006421   5.3309883  45.8206968  65.1124426   5.6202134
  55.5207217  60.3998950   6.7692924  54.6124094  60.3314359   6.4751685
  55.4694813  60.8770895   7.5974750  42.9331366  63.9763481   5.9575981
  43.0623747  64.2297960   6.8715392  42.2528817  64.5691189   5.6380636
  47.1030853  74.6460731   2.0566455  47.0254883  75.5968556   2.1354935
  46.4992497  74.3006603   2.7141381  49.5948083  61.8188596  14.7127822
  48.8181417  62.3782516  14.7030686  50.2338646  62.3045379  15.2342692
  57.3868863  58.6015389   8.5470798  56.7443244  58.8947922   7.9010593
  56.8823792  58.4868309   9.3523995  55.0409027  62.3478562  -0.7643342
  55.9526883  62.5805949  -0.9395645  54.5318674  62.9315606  -1.3268264
  47.8494455  64.6274049  14.2745789  48.5909140  65.1659093  13.9980612
  47.1431441  65.2540338  14.4317341  53.3249795  66.7703190  12.8717950
  53.7333151  66.3285600  12.1272583  52.6027056  66.1955817  13.1252143
  49.6780865  61.7075797  10.2451507  50.5242060  62.1315210  10.3886156
  49.6179503  61.0509421  10.9390070  53.6478609  67.3304380   6.6270239
  53.0187472  67.4950095   5.9246307  53.2604272  67.7445990   7.3981203
  57.5267841  68.2658818   3.9814603  56.8418880  68.6457720   3.4311636
  57.6111691  68.8754145   4.7146551  52.8280310  59.3680165  11.9032681
  52.5841242  60.1222225  11.3666957  53.1040241  59.7465513  12.7379928
  54.7818773  65.9118777  10.5809946  54.9935668  66.5550537   9.9044327
  54.7348521  65.0781094  10.1131876  52.3845002  58.5236598   7.4846519
  51.5229481  58.8217852   7.7763256  52.4107437  58.7406997   6.5527551
  49.2006571  67.0678789   3.8920324  49.6644917  67.3466491   3.1024947
  48.9363369  66.1662233   3.7093415  46.0930652  66.6150270   6.8300087
  46.6632009  67.0437538   6.1917572  46.6838764  66.3332855   7.5284273
  48.1375457  63.1901941   0.7009889  48.8399501  63.6422985   1.1683816
  47.8056086  62.5485760   1.3289782  46.5855819  61.7813698  15.0761099
  45.9554480  62.4629978  15.3096496  46.4791907  61.6696779  14.1314237
  41.8800791  61.4485494   6.0027023  41.0899845  61.7043022   5.5267134
  42.3712039  62.2633831   6.1079063  55.8964601  68.7890733   8.7532304
  56.7182045  68.3870920   8.4714985  55.8927004  68.6858967   9.7048420
  43.8315537  61.8130073   2.9610500  43.0346700  61.9248767   3.4793995
  43.6041129  62.1516725   2.0951390  49.6621204  68.3374776  10.9093014
  49.7265637  68.7995183  11.7451186  48.9532128  67.7072141  11.0375324
  40.1638494  61.7015984   8.4342014  40.4146533  62.5862994   8.6999590
  40.6998043  61.5220586   7.6617106  63.9870594  65.1329481   5.1017275
  63.2334302  64.5636879   4.9461280  64.1218135  65.0992146   6.0487910
  49.3769222  70.0042883   0.7771995  49.2414897  70.8494419   1.2056842
  49.9179035  70.2062161   0.0137928  45.8636562  56.0834463  17.4386350
  45.4703507  55.5300662  18.1133994  46.6802702  56.3945042  17.8292867
  42.8298619  67.5218322   1.3499920  43.3423140  68.3161572   1.5005484
  43.4821332  66.8244612   1.2833521  44.6393504  70.6384078   3.4322673
  44.8160132  71.5602043   3.2443657  45.4350338  70.3242497   3.8617053
  48.7804523  57.4992342  15.0306606  49.5214236  58.0999496  14.9511069
  49.0122445  56.7569980  14.4724649  43.9245861  62.6848710  13.3084836
  43.8099376  61.7833967  13.6091935  43.0690378  62.9312406  12.9569653
  51.0037698  70.6266450  14.9072337  50.5601553  69.8402829  14.5893241
  51.6654912  70.8145601  14.2416227  45.7624820  72.1562252   9.4333015
  46.3132245  72.0279315   8.6610009  44.9236295  72.4557141   9.0827908
  53.1018936  70.9069250  12.9353738  53.0837412  71.7278131  12.4434007
  54.0238857  70.7823325  13.1603879  49.5591991  68.4213379  13.7777246
  50.0920327  67.6601668  13.5476554  49.0306072  68.1287031  14.5201401
  52.7261686  53.5273445   9.3070888  52.3825955  54.4175087   9.2309999
  53.0940648  53.3375103   8.4440473  40.7947536  65.8506976   2.1259490
  41.6322758  66.2603984   1.9093198  40.9725804  64.9106418   2.0959684
  52.6911968  63.5182056  -2.1856677  52.1758592  64.2886661  -1.9468289
  52.4189277  62.8447193  -1.5623615  50.2759079  58.3631757   2.8728562
  49.4200676  57.9738608   2.6934200  50.6886031  58.4423718   2.0128347
  51.8058226  55.8978101   7.2720121  51.3023022  55.8608236   6.4587927
  52.0988833  56.8070843   7.3316778  48.0501112  55.9816830   6.2786303
  48.9154109  55.7859639   5.9192192  48.1178621  55.7527182   7.2055660
  57.6646242  66.2714411  -0.2503503  56.8875685  65.9325571  -0.6948341
  58.3437723  66.2767034  -0.9248538  52.4798271  61.3909149  -0.3596896
  52.1748407  61.7055298   0.4913248  53.4328714  61.4690568  -0.3169563
  50.9244703  67.5499372   1.2896058  50.3966065  66.8152131   0.9769296
  50.4232206  68.3274048   1.0436027  55.9037549  65.7448392   6.4063105
  55.2461224  66.4347654   6.4943233  56.7077949  66.1344824   6.7497091
  54.7143008  64.0992765   4.4567046  55.2274890  64.7322757   4.9588756
  55.3644232  63.4993961   4.0910406  51.9765382  74.0777089  -2.7872282
  51.3027081  74.3808786  -2.1787325  52.3631204  74.8806170  -3.1366825
  51.1923839  61.5742221   6.7025387  50.2746400  61.7957168   6.5447075
  51.6083983  61.6488531   5.8437094  51.9758887  62.9733636   1.8328067
  52.7230706  63.4855034   1.5235189  52.2450476  62.6517689   2.6932461
  50.2485537  65.4692177  -1.1844979  49.3396756  65.1851210  -1.0872509
  50.2780621  65.8891256  -2.0441672  55.4804804  69.0798767   2.5846189
  55.0267131  68.2389676   2.6411379  54.8498771  69.7160165   2.9220969
  54.4237724  60.0090753   3.8146856  53.6860481  59.4968139   4.1457099
  54.6764497  59.5691134   3.0030133  53.9237744  70.9175263   3.5196007
  54.2160718  71.4780320   2.8008373  54.4336364  71.2103824   4.2749166
  54.5249351  52.7867005   4.4088626  54.8308228  51.9264368   4.1214541
  55.2501956  53.3784625   4.2087620  48.7970431  63.0820798   4.9164817
  48.8519041  62.1294634   4.8407293  47.9861633  63.2380237   5.4006115
  46.7362791  61.6997857   2.6755196  45.9230656  61.9992028   3.0820388
  47.2321785  61.3053546   3.3929678  48.8871369  71.6955614   4.6089460
  48.8447548  71.9216461   3.6797992  49.8034068  71.4618989   4.7575261
  52.3337003  62.1639682  11.5070090  52.6886390  62.3911155  12.3664555
  52.9809134  62.4958059  10.8847345  58.0634740  65.2858118   2.2119419
  57.9252638  65.4759714   1.2840608  57.7070958  66.0477501   2.6687470
  46.2276866  59.2716213   8.2916431  46.8676245  59.1304972   7.5939394
  45.3954396  58.9850726   7.9155033  58.0904119  67.3534645   7.2230690
  58.5240626  67.2609934   8.0713744  58.8035700  67.3292145   6.5850706
  47.0037170  68.5718643   4.4051423  47.7977768  68.0768963   4.2033998
  46.2928862  68.0436506   4.0419129  51.8232014  70.9536739   8.7563791
  51.8769036  71.5227675   9.5241507  50.9546795  71.1238624   8.3917828
  44.7030407  60.6554295  10.2388242  45.3753461  60.4471657   9.5900891
  43.8760194  60.4576381   9.7993474  58.9519669  67.3958345   9.7563575
  59.1455559  68.3004156  10.0022850  58.8520287  66.9365764  10.5902161
  50.6055979  57.2816236  12.2553903  49.9583894  57.9806186  12.1618379
  51.3756995  57.7152380  12.6230151  54.0134777  67.5465088  15.3304456
  53.8620284  67.3175640  14.4134540  54.0039457  68.5035690  15.3435801
  50.7820114  65.1197001  10.3150723  51.7112174  65.2708160  10.1419690
  50.3611144  65.2081022   9.4599369  49.5808446  69.1447665   8.0849260
  49.4419531  68.7766450   8.9575198  48.7923042  69.6595305   7.9133218
  50.1756598  74.2456762  -0.5725203  50.3508353  73.7744805   0.2420419
  49.4889386  74.8722528  -0.3443943  51.1313661  68.5229268   5.4738098
  50.7963493  68.4830038   6.3695748  50.6317606  67.8573984   5.0008508
  45.1057905  63.9296898  10.9990679  44.9677703  63.1977137  11.6002218
  46.0162828  63.8405798  10.7174867  47.7340205  63.6416857  10.4874359
  48.4439824  63.0010050  10.4460977  47.6909513  63.8929752  11.4100540
  55.7226984  70.5784211  13.4080938  55.6639530  69.8943431  12.7411521
  56.1246502  71.3203201  12.9561564  46.4469139  60.6282075  12.3069998
  45.9106496  60.1772814  12.9591595  45.8585848  60.7627984  11.5640463
  44.7417683  77.3946125   6.2014657  44.9814281  78.0264649   6.8793675
  43.8986879  77.0434165   6.4880016  55.7244391  68.5423795  11.6394918
  54.8371170  68.2049716  11.7621317  56.2942942  67.8106826  11.8763683
  37.3773538  64.8747886   4.9637969  38.0644578  64.5609616   4.3758984
  37.2221667  65.7789251   4.6905220  42.1808261  59.7638083   9.3922993
  42.0966449  59.1563752   8.6573403  41.3590967  60.2547101   9.3932489
  49.2545545  73.2025247   8.6056161  49.1815716  74.0080218   9.1175465
  48.8122938  73.4017213   7.7804182  49.0435324  72.4397017   2.1158982
  48.2602846  72.9818697   2.2097207  49.7428069  72.9570997   2.5153224
  52.3531974  58.2491646   4.7593188  52.8500674  57.4961609   4.4394258
  51.5818956  58.2855963   4.1936397  60.2061732  63.9532012   6.4011479
  60.1951608  64.8356727   6.0305412  59.3379111  63.6003563   6.2066016
  51.7144228  73.1012081  10.7614319  52.4272200  73.7359546  10.6890221
  51.2234257  73.1975947   9.9454321  53.4361755  67.0063334   2.3331611
  52.5018034  67.1264796   2.1636315  53.6138424  66.1035800   2.0691621
  48.9366943  60.3909029   4.4864872  48.5664731  59.8380070   5.1745778
  49.4326036  59.7867163   3.9339872  56.8234306  62.8480653   2.8681645
  57.2894759  63.6808645   2.7941948  57.2741807  62.3825635   3.5726904
  46.7656142  70.8506524  11.5819890  47.4665601  71.4843007  11.7349285
  46.2951257  71.1921256  10.8215530  54.8910538  69.1924474  -0.1332203
  55.1670381  69.0781069   0.7761671  54.0215036  68.7941959  -0.1720030
  54.7950969  55.2161240   6.9072547  53.8814049  55.4465467   7.0754754
  55.2244071  55.2999684   7.7586579  54.5657428  63.4051132   9.4072441
  53.9128878  63.6527039   8.7524893  54.9437808  62.5915270   9.0734918
  51.5264602  73.4410825   3.5100611  51.7086996  72.6232481   3.9728363
  52.3497588  73.6578517   3.0725501  51.8606767  72.3679010   0.7715659
  52.3894533  71.8571465   0.1585822  52.1234987  72.0521540   1.6361192
  50.6145001  64.1470943  15.8938478  49.9385638  64.0465072  16.5640853
  51.4372635  63.9910157  16.3574475  42.3623860  70.3842880   8.5150993
  42.9477297  69.6386567   8.6478897  42.1648698  70.6946836   9.3987657
  45.2162515  73.4194127   3.5313435  44.5472890  73.9040255   3.0477475
  45.0775385  73.6663347   4.4456814  36.9541515  62.9548480   7.2355436
  36.9925614  62.4212070   8.0292554  36.4481807  62.4283685   6.6166413
  49.3567784  75.4537870  10.1296094  49.9086092  75.6169492  10.8945179
  49.6973977  76.0442308   9.4576119  44.3332277  57.8013020  10.7317978
  44.3973603  58.6627851  10.3195376  44.2699397  57.1887022   9.9990337
  43.8084549  59.8736153  14.3791013  44.4356588  59.4913230  14.9928537
  42.9512468  59.6550355  14.7446705  54.2078658  70.2799128  15.9844748
  54.7518562  70.8929086  15.4899703  53.6265503  70.8378706  16.5011761
  52.4936171  73.4019846   7.1159776  52.3687310  72.6009586   6.6070721
  53.1515262  73.8966039   6.6273746  44.1144339  59.7568578   6.2936916
  43.3930925  60.3704546   6.1544389  44.9037595  60.2926343   6.2153562
  54.5571079  71.2028866   8.7439326  53.6101415  71.0834217   8.6717653
  54.9053852  70.3151364   8.8265587  46.9170653  57.0923005  12.5677568
  47.4405054  57.3385302  13.3303877  46.6982986  57.9243040  12.1480705
  51.5617513  70.9981582   4.9443678  51.4142475  70.0698290   5.1251248
  52.3871006  71.0201673   4.4600753  55.1651634  71.8210141   6.0308551
  56.0898182  71.6153002   5.8933002  54.9966938  71.5726542   6.9397892
  48.1223198  58.0336700  10.2527238  47.7820018  57.2344513  10.6547918
  47.4162204  58.3338411   9.6804072  48.7739669  55.1186012   8.7054561
  49.5965739  54.6446491   8.5833452  49.0177733  55.8976496   9.2053248
  46.2978248  61.8105133   6.5146540  46.1522829  62.1245436   7.4070822
  45.8203452  62.4290033   5.9617439  48.1574631  58.8007681   6.5627430
  48.1436200  57.9048774   6.2259728  48.8747059  58.8078345   7.1965716
  50.0100762  59.2345021   8.6080557  49.7518540  60.1562092   8.6064887
  49.4785802  58.8375456   9.2981021  54.9546951  72.3395808   1.3870642
  55.1283828  71.7742231   0.6344495  55.4475842  73.1396703   1.2050132
  40.7723910  64.3510478   9.4534201  40.2277378  65.1270285   9.5854476
  41.6503260  64.6981282   9.2953323  50.4302717  55.3676972   4.9681720
  50.4524414  55.4316305   4.0133699  50.8470776  54.5281480   5.1622226
  60.8086342  65.1032231   3.0060942  61.2517488  64.3539557   2.6080065
  59.9312852  65.0942368   2.6234674  55.9422123  71.6562573  -1.5132459
  56.6373028  72.2769266  -1.2945145  56.2845273  70.8057924  -1.2380081
  41.5589932  63.4780374  12.3464358  40.8171668  63.6263009  12.9328989
  41.2382677  63.7388639  11.4831108  57.8413546  69.1062278   0.0154871
  58.3664870  69.4449551  -0.7095809  57.7535899  68.1709294  -0.1681994
  49.5033595  73.0196352  12.1444748  49.8120721  72.7745499  13.0167448
  50.3009077  73.2242990  11.6563618  49.5254207  75.1734262   4.3750125
  49.0859197  74.6810640   5.0682981  50.2762324  74.6307229   4.1342200
  42.0046546  71.3645803   4.3774753  42.8304566  71.0649574   3.9973396
  41.6540598  70.5953425   4.8264541  46.9728079  70.7172271   6.4472426
  46.3508088  70.0542976   6.1474654  47.6432946  70.7433403   5.7646074
  40.2055151  69.2832129   5.3363686  39.3687059  68.8554303   5.1547688
  40.1778796  69.4764572   6.2734478  47.0452607  59.1954059  16.0404932
  47.0940762  60.0716182  15.6582702  47.5875121  58.6531452  15.4676576
  57.5307452  69.7395182  15.3206069  56.7402996  69.7219321  14.7810569
  57.2940807  70.2783476  16.0755106  57.6505327  66.5887648  12.6338798
  57.7003332  66.4237656  13.5754321  57.5419251  65.7214907  12.2436679
  46.5341586  69.2676194  -0.0769113  46.6829706  69.9511658  -0.7302440
  47.3408029  69.2481284   0.4380343  54.9409090  62.5718576  13.9498105
  55.8418952  62.4325041  13.6582102  55.0157064  62.7373031  14.8896282
  49.2751895  59.9485431  12.7951291  48.4055204  60.2418997  12.5233880
  49.5111375  60.5325876  13.5158555  59.1523524  69.0084590  12.8780820
  58.8608332  69.3714570  13.7144280  58.5395655  68.2951598  12.6994152
  60.3519206  66.5737470   5.3983390  61.1866098  67.0127274   5.5620950
  60.4878335  66.0976123   4.5791636  57.4010712  64.1317205  11.3460877
  57.8764834  64.3244851  10.5379729  56.4776278  64.1876390  11.1004261
  44.2894219  65.2941372   0.9291956  44.0440261  64.3903702   1.1272166
  44.4590134  65.2958522  -0.0128566  51.9790929  56.1665048  10.3116711
  52.4972873  56.9026075   9.9863200  51.6246062  56.4729041  11.1463471
  52.2303523  52.5865331   5.8317608  52.5105277  51.9188520   6.4578035
  53.0154130  52.7794426   5.3192272  50.0336992  71.7624325  -2.6057366
  49.4610959  72.3814512  -3.0586894  50.6069785  72.3123686  -2.0717444
  56.1012381  61.0082965   9.5789183  57.0529804  61.1081062   9.6001407
  55.9315832  60.2161233  10.0887267  54.1226761  58.0938548   9.7648584
  53.5276693  58.3743561   9.0695073  53.8376458  58.5832449  10.5365325
  53.2534251  72.0461475  -1.4748783  54.1864924  71.9807036  -1.2715908
  53.1657464  72.8817742  -1.9334251  55.8822268  71.3627345  -4.5144836
  55.8035900  71.0287209  -3.6209078  56.7031935  71.8549113  -4.5153364
  58.5800459  64.2289084   8.6931483  58.5476779  63.2905085   8.8791167
  59.1901083  64.3073121   7.9597308  58.7294948  61.0200128   8.7389766
  58.2133996  60.2358584   8.5519695  59.6134896  60.6918844   8.9036285
  56.3905675  54.7641143   4.6985579  56.1930496  54.4556231   5.5828911
  57.0005380  55.4902782   4.8283508  64.3977009  65.2905091   7.8337520
  65.1280398  65.0290379   8.3945223  63.7883955  64.5533813   7.8739588
  62.4792306  63.4312954   8.4311971  61.7525470  63.2968919   7.8228462
  62.0639593  63.7389782   9.2368689  50.3022483  67.1502883  16.1959344
  51.2225492  67.3281482  16.3899390  50.2672066  66.2058929  16.0439043
  39.5204648  62.3441477   5.1212618  39.2007432  61.4906785   4.8286992
  38.9738076  62.5590055   5.8770586  43.2984555  65.0603918   8.8382125
  43.5170565  65.9921026   8.8570159  43.7110329  64.7011892   9.6236929
  48.1712420  60.6337124  18.2284874  48.0709147  61.5831481  18.1596965
  47.9533963  60.3055363  17.3560944  39.3892908  65.9644389   7.0905740
  38.6956379  65.5498341   6.5775694  40.1365899  66.0064925   6.4939159
  55.5258128  56.7550575   1.9560774  54.9456797  57.4135379   1.5738827
  55.2594061  55.9327920   1.5448192  53.9761695  56.1555633   4.1582095
  54.4761473  56.2672168   3.3496413  54.6197303  55.8516686   4.7982903
  48.0343691  64.0634263  17.0449936  47.5510772  64.8634623  17.2513825
  48.1204630  64.0742208  16.0917380  41.3029650  65.8962642   4.9671755
  41.2800338  65.9950330   4.0153638  41.6130287  66.7427793   5.2888921
  43.9617028  67.9538797   9.0818369  44.9160282  67.9222740   9.0148301
  43.7629552  67.4929421   9.8968595  44.5516410  66.5239913  11.6489167
  45.3709299  67.0183992  11.6724004  44.8253218  65.6071882  11.6206734
  54.3083006  58.9150666   1.0117122  53.4208861  59.2000316   0.7937317
  54.7236995  58.7544429   0.1644399  57.6597542  58.9397187   4.7271462
  58.4357933  59.4293639   4.9996079  56.9345677  59.3655241   5.1843331
  60.0970101  59.6524806   5.7845402  60.6914592  59.4120542   5.0738711
  60.1696685  58.9331937   6.4118939  42.3167257  73.4958417   6.0988567
  42.1821725  72.7358818   5.5326565  41.8999319  74.2199317   5.6317356
  53.4526220  68.6795340  -4.8934858  54.1562070  68.8845343  -4.2777202
  52.7288869  69.2472102  -4.6285774  54.2824030  64.4305202   1.2267413
  54.2259231  64.8873753   0.3875045  54.8352373  63.6695886   1.0490255
  58.0928836  60.2194934   2.0517532  57.8365770  59.8191569   2.8825740
  57.4681704  60.9338727   1.9267671  62.4041174  62.9591007   4.5588824
  61.8440732  63.0284196   5.3320386  61.7984677  62.7831991   3.8388320
  45.4736383  74.3927734   6.3107010  45.3568767  75.3373166   6.2085700
  44.6528829  74.0901295   6.6992809  55.3612917  69.1177870  -2.8436397
  56.1958521  68.6859068  -3.0258923  55.1997260  68.9459883  -1.9159503
  55.0158809  65.6209983  -1.4780058  54.9607613  65.4554254  -2.4191614
  54.3904865  66.3286016  -1.3217868  39.8051324  60.8578047  12.3481364
  40.4510188  60.3477001  12.8368589  39.5968475  61.5946729  12.9224789
  52.3304717  67.9258895  17.8473505  53.1995876  68.0999547  17.4860140
  51.8511468  68.7453312  17.7249234  46.4990897  75.0455996   9.5262938
  47.4018143  75.0779606   9.8429433  46.2728267  74.1156447   9.5409274
  48.2544499  73.7986982   6.1873017  47.3040130  73.7988844   6.0737389
  48.5576985  73.0519717   5.6709051  44.1448815  58.0045664  16.4456378
  45.0080277  57.6482469  16.6559703  43.5714226  57.6659559  17.1331783
  63.9897192  79.6347521   7.2518779  64.6275602  79.5154268   6.5482119
  63.8718035  80.5828365   7.3106731  60.7986899  79.5874949   7.1880304
  60.4605410  79.4716014   6.3000839  61.6676667  79.1866114   7.1681310
  56.6573714  81.4410425   3.1777195  56.0938579  81.3500362   2.4093483
  56.5426109  80.6210330   3.6579687  61.2806682  80.7409801  13.1466509
  61.2695322  80.3462599  12.2747013  61.4427321  80.0075873  13.7400281
  54.2038146  82.9361617   6.0161415  54.9959438  82.5952441   5.6007715
  54.4434796  83.0456592   6.9363569  62.2373273  85.1081393  -1.5108340
  61.5861253  85.6935473  -1.8974326  63.0317636  85.6387588  -1.4513303
  56.1628900  82.1970530  -1.1121206  56.9359776  81.6499517  -1.2508330
  56.5154299  83.0614779  -0.9006744  58.0013943  83.5246912  12.0945693
  57.7103809  84.4292543  11.9792360  58.6370927  83.5663440  12.8089763
  58.9270150  80.9023761   8.6847053  59.5233722  80.6779783   7.9704016
  58.9845121  80.1608506   9.2872501  58.4995178  78.3563196  -3.4802756
  58.7520699  77.8344717  -4.2419293  57.5619737  78.1929342  -3.3776072
  63.5438461  77.3598975   4.3271987  64.3301550  76.9418398   3.9762404
  63.8077165  78.2645067   4.4953636  63.7148538  82.7971825  -0.9739356
  63.0794371  82.8706451  -0.2618451  63.3845945  83.3865424  -1.6520277
  68.9446888  77.2974208   5.2304966  69.6772060  76.7273425   5.4642795
  68.1886244  76.9095808   5.6711471  58.2191467  80.2591302  -1.2778381
  58.1027725  79.5836206  -0.6097297  58.3293727  79.7723676  -2.0946228
  60.5623008  79.7201449   2.4268308  60.1981215  79.1932070   3.1381230
  61.4190124  79.3299918   2.2534794  66.4672308  71.0095782   9.6899574
  66.1355633  71.8791193   9.4660789  65.8717922  70.6932066  10.3693605
  60.2028495  74.7491349  -2.5770343  60.3702897  75.6171585  -2.2099872
  60.0125664  74.9118631  -3.5009054  62.9603828  83.2108328   9.0895487
  62.6604551  84.1133367   8.9811294  62.6154887  82.9440511   9.9416640
  56.4116309  79.6622125   5.1232192  55.4866806  79.5298339   5.3309883
  56.6600722  80.4416344   5.6202134  66.3600972  75.7290868   6.7692924
  65.4517849  75.6606276   6.4751685  66.3088567  76.2062813   7.5974750
  60.1817715  77.2049006  -1.5923676  60.0617341  77.6506057  -0.7538196
  59.4870304  77.5534324  -2.1510138  53.7725120  79.3055398   5.9575981
  53.9017501  79.5589877   6.8715392  53.0922572  79.8983106   5.6380636
  57.9424608  89.9752648   2.0566455  57.8648637  90.9260473   2.1354935
  57.3386251  89.6298521   2.7141381  60.4341837  77.1480514  14.7127822
  59.6575171  77.7074434  14.7030686  61.0732400  77.6337297  15.2342692
  68.2262618  73.9307306   8.5470798  67.5836998  74.2239840   7.9010593
  67.7217547  73.8160227   9.3523995  65.8802782  77.6770480  -0.7643342
  66.7920638  77.9097866  -0.9395645  65.3712429  78.2607524  -1.3268264
  58.6888210  79.9565967  14.2745789  59.4302894  80.4951011  13.9980612
  57.9825195  80.5832256  14.4317341  64.1643549  82.0995107  12.8717950
  64.5726905  81.6577518  12.1272583  63.4420811  81.5247735  13.1252143
  60.5174619  77.0367714  10.2451507  61.3635815  77.4607128  10.3886156
  60.4573257  76.3801339  10.9390070  64.4872364  82.6596298   6.6270239
  63.8581226  82.8242012   5.9246307  64.0998026  83.0737908   7.3981203
  68.3661596  83.5950736   3.9814603  67.6812634  83.9749637   3.4311636
  68.4505445  84.2046063   4.7146551  63.6674065  74.6972083  11.9032681
  63.4234997  75.4514143  11.3666957  63.9433995  75.0757430  12.7379928
  65.6212527  81.2410695  10.5809946  65.8329423  81.8842455   9.9044327
  65.5742276  80.4073012  10.1131876  63.2238756  73.8528516   7.4846519
  62.3623235  74.1509769   7.7763256  63.2501191  74.0698915   6.5527551
  60.0400326  82.3970706   3.8920324  60.5038671  82.6758409   3.1024947
  59.7757124  81.4954151   3.7093415  56.9324407  81.9442188   6.8300087
  57.5025764  82.3729456   6.1917572  57.5232519  81.6624772   7.5284273
  58.9769212  78.5193859   0.7009889  59.6793255  78.9714902   1.1683816
  58.6449840  77.8777677   1.3289782  57.4249573  77.1105615  15.0761099
  56.7948234  77.7921896  15.3096496  57.3185661  76.9988697  14.1314237
  52.7194546  76.7777411   6.0027023  51.9293600  77.0334940   5.5267134
  53.2105793  77.5925749   6.1079063  66.7358355  84.1182650   8.7532304
  67.5575799  83.7162838   8.4714985  66.7320758  84.0150885   9.7048420
  54.6709291  77.1421990   2.9610500  53.8740454  77.2540685   3.4793995
  54.4434883  77.4808643   2.0951390  60.5014959  83.6666694  10.9093014
  60.5659391  84.1287101  11.7451186  59.7925883  83.0364059  11.0375324
  51.0032249  77.0307902   8.4342014  51.2540287  77.9154912   8.6999590
  51.5391797  76.8512503   7.6617106  74.8264348  80.4621399   5.1017275
  74.0728057  79.8928797   4.9461280  74.9611890  80.4284063   6.0487910
  60.2162976  85.3334801   0.7771995  60.0808651  86.1786337   1.2056842
  60.7572789  85.5354079   0.0137928  56.7030316  71.4126381  17.4386350
  56.3097262  70.8592580  18.1133994  57.5196456  71.7236959  17.8292867
  53.6692374  82.8510239   1.3499920  54.1816894  83.6453489   1.5005484
  54.3215087  82.1536530   1.2833521  55.4787259  85.9675995   3.4322673
  55.6553887  86.8893960   3.2443657  56.2744092  85.6534415   3.8617053
  59.6198277  72.8284260  15.0306606  60.3607990  73.4291413  14.9511069
  59.8516200  72.0861898  14.4724649  54.7639615  78.0140627  13.3084836
  54.6493130  77.1125885  13.6091935  53.9084133  78.2604324  12.9569653
  61.8431453  85.9558368  14.9072337  61.3995307  85.1694746  14.5893241
  62.5048666  86.1437518  14.2416227  56.6018574  87.4854169   9.4333015
  57.1525999  87.3571233   8.6610009  55.7630050  87.7849058   9.0827908
  63.9412691  86.2361168  12.9353738  63.9231166  87.0570049  12.4434007
  64.8632611  86.1115243  13.1603879  60.3985745  83.7505297  13.7777246
  60.9314082  82.9893585  13.5476554  59.8699826  83.4578949  14.5201401
  63.5655440  68.8565363   9.3070888  63.2219709  69.7467005   9.2309999
  63.9334403  68.6667021   8.4440473  51.6341291  81.1798894   2.1259490
  52.4716513  81.5895902   1.9093198  51.8119558  80.2398336   2.0959684
  63.5305723  78.8473974  -2.1856677  63.0152346  79.6178579  -1.9468289
  63.2583031  78.1739110  -1.5623615  61.1152834  73.6923675   2.8728562
  60.2594430  73.3030525   2.6934200  61.5279786  73.7715636   2.0128347
  62.6451980  71.2270018   7.2720121  62.1416776  71.1900153   6.4587927
  62.9382587  72.1362761   7.3316778  58.8894866  71.3108748   6.2786303
  59.7547863  71.1151557   5.9192192  58.9572375  71.0819100   7.2055660
  68.5039997  81.6006329  -0.2503503  67.7269440  81.2617488  -0.6948341
  69.1831478  81.6058952  -0.9248538  63.3192026  76.7201066  -0.3596896
  63.0142162  77.0347215   0.4913248  64.2722468  76.7982486  -0.3169563
  61.7638458  82.8791290   1.2896058  61.2359819  82.1444049   0.9769296
  61.2625961  83.6565966   1.0436027  66.7431304  81.0740310   6.4063105
  66.0854978  81.7639571   6.4943233  67.5471703  81.4636742   6.7497091
  56.4957185  73.5410956   3.6502670  57.0700937  73.3186137   2.9175863
  57.0828168  73.6099650   4.4031271  65.5536763  79.4284683   4.4567046
  66.0668644  80.0614675   4.9588756  66.2037987  78.8285878   4.0910406
  56.8226773  75.5715417  -2.3301445  55.9864085  75.9090103  -2.0092170
  56.6831542  75.4364397  -3.2674308  58.7979853  70.4152205   2.3777739
  58.1444265  70.1001222   1.7534354  58.7560327  69.7927945   3.1037562
  59.9091058  80.6971500  -5.7068969  59.0018120  80.4660753  -5.5077820
  60.4062090  79.9009119  -5.5194987  62.8159137  89.4069007  -2.7872282
  62.1420836  89.7100704  -2.1787325  63.2024959  90.2098087  -3.1366825
  62.0317593  76.9034138   6.7025387  61.1140155  77.1249085   6.5447075
  62.4477737  76.9780449   5.8437094  62.8152641  78.3025554   1.8328067
  63.5624460  78.8146951   1.5235189  63.0844231  77.9809607   2.6932461
  61.0879291  80.7984095  -1.1844979  60.1790511  80.5143128  -1.0872509
  61.1174375  81.2183173  -2.0441672  66.3198559  84.4090684   2.5846189
  65.8660886  83.5681594   2.6411379  65.6892526  85.0452083   2.9220969
  65.2631478  75.3382670   3.8146856  64.5254235  74.8260056   4.1457099
  65.5158252  74.8983052   3.0030133  64.7631498  86.2467181   3.5196007
  65.0554472  86.8072238   2.8008373  65.2730119  86.5395742   4.2749166
  65.3643106  68.1158922   4.4088626  65.6701983  67.2556286   4.1214541
  66.0895711  68.7076542   4.2087620  51.6567462  78.5189609   2.7970224
  51.4591862  77.9258970   2.0721290  51.1014126  78.2141819   3.5146162
  59.6364185  78.4112715   4.9164817  59.6912795  77.4586552   4.8407293
  58.8255387  78.5672154   5.4006115  60.7855379  82.3392838  -3.8456900
  60.3474809  81.6228697  -4.3051263  61.5265820  82.5668953  -4.4071809
  57.5756545  77.0289775   2.6755196  56.7624411  77.3283946   3.0820388
  58.0715540  76.6345464   3.3929678  59.7265123  87.0247532   4.6089460
  59.6841302  87.2508378   3.6797992  60.6427822  86.7910907   4.7575261
  63.1730757  77.4931600  11.5070090  63.5280145  77.7203073  12.3664555
  63.8202888  77.8249976  10.8847345  68.9028494  80.6150035   2.2119419
  68.7646393  80.8051631   1.2840608  68.5464713  81.3769418   2.6687470
  57.0670620  74.6008131   8.2916431  57.7069999  74.4596890   7.5939394
  56.2348151  74.3142644   7.9155033  68.9297874  82.6826562   7.2230690
  69.3634380  82.5901852   8.0713744  69.6429454  82.6584063   6.5850706
  57.8430924  83.9010561   4.4051423  58.6371523  83.4060881   4.2033998
  57.1322616  83.3728424   4.0419129  62.6625769  86.2828657   8.7563791
  62.7162791  86.8519593   9.5241507  61.7940550  86.4530542   8.3917828
  54.1513688  78.0453643   0.4811176  53.2211276  77.9838098   0.6981138
  54.2471160  77.5229595  -0.3152183  54.0699237  74.5708456   3.0689417
  54.3306054  75.4853789   2.9598578  54.8916409  74.1032898   3.2186030
  55.5424162  75.9846213  10.2388242  56.2147215  75.7763575   9.5900891
  54.7153948  75.7868299   9.7993474  69.7913423  82.7250263   9.7563575
  69.9849313  83.6296074  10.0022850  69.6914041  82.2657682  10.5902161
  61.4449734  72.6108154  12.2553903  60.7977649  73.3098103  12.1618379
  62.2150749  73.0444298  12.6230151  64.8528532  82.8757006  15.3304456
  64.7014038  82.6467558  14.4134540  64.8433211  83.8327607  15.3435801
  61.6213868  80.4488919  10.3150723  62.5505928  80.6000078  10.1419690
  61.2004898  80.5372939   9.4599369  60.4202200  84.4739583   8.0849260
  60.2813286  84.1058367   8.9575198  59.6316796  84.9887222   7.9133218
  61.0150352  89.5748679  -0.5725203  61.1902108  89.1036723   0.2420419
  60.3283140  90.2014446  -0.3443943  61.9707415  83.8521186   5.4738098
  61.6357248  83.8121956   6.3695748  61.4711361  83.1865902   5.0008508
  55.9451659  79.2588816  10.9990679  55.8071457  78.5269055  11.6002218
  56.8556583  79.1697716  10.7174867  64.9066607  81.1977220  -4.2524842
  64.2895777  80.4724048  -4.3491790  64.4383095  81.9586580  -4.5957768
  58.5733960  78.9708775  10.4874359  59.2833578  78.3301967  10.4460977
  58.5303268  79.2221670  11.4100540  66.5620738  85.9076128  13.4080938
  66.5033285  85.2235349  12.7411521  66.9640257  86.6495118  12.9561564
  57.2862894  75.9573993  12.3069998  56.7500251  75.5064731  12.9591595
  56.6979602  76.0919902  11.5640463  55.5811437  92.7238042   6.2014657
  55.8208036  93.3556566   6.8793675  54.7380634  92.3726082   6.4880016
  56.6965153  75.4162644  -5.1303538  55.8194619  75.2951445  -5.4941291
  57.1722906  74.6248723  -5.3824649  66.5638146  83.8715712  11.6394918
  65.6764925  83.5341634  11.7621317  67.1336697  83.1398744  11.8763683
  48.2167293  80.2039804   4.9637969  48.9038333  79.8901534   4.3758984
  48.0615422  81.1081169   4.6905220  53.0202015  75.0930001   9.3922993
  52.9360204  74.4855670   8.6573403  52.1984721  75.5839019   9.3932489
  60.0939299  88.5317165   8.6056161  60.0209471  89.3372136   9.1175465
  59.6516692  88.7309130   7.7804182  59.8829079  87.7688935   2.1158982
  59.0996601  88.3110615   2.2097207  60.5821824  88.2862914   2.5153224
  63.1925729  73.5783564   4.7593188  63.6894428  72.8253526   4.4394258
  62.4212710  73.6147881   4.1936397  71.0455486  79.2823930   6.4011479
  71.0345363  80.1648645   6.0305412  70.1772866  78.9295481   6.2066016
  62.5537983  88.4303999  10.7614319  63.2665955  89.0651464  10.6890221
  62.0628011  88.5267865   9.9454321  64.2755510  82.3355251   2.3331611
  63.3411788  82.4556714   2.1636315  64.4532178  81.4327718   2.0691621
  59.7760698  75.7200947   4.4864872  59.4058485  75.1671988   5.1745778
  60.2719790  75.1159081   3.9339872  67.6628061  78.1772571   2.8681645
  68.1288513  79.0100562   2.7941948  68.1135561  77.7117552   3.5726904
  57.6049896  86.1798442  11.5819890  58.3059356  86.8134925  11.7349285
  57.1345011  86.5213174  10.8215530  65.7304292  84.5216392  -0.1332203
  66.0064136  84.4072987   0.7761671  64.8608791  84.1233877  -0.1720030
  65.6344724  70.5453158   6.9072547  64.7207803  70.7757384   7.0754754
  66.0637825  70.6291602   7.7586579  65.4051182  78.7343050   9.4072441
  64.7522632  78.9818957   8.7524893  65.7831562  77.9207188   9.0734918
  62.3658356  88.7702743   3.5100611  62.5480751  87.9524399   3.9728363
  63.1891342  88.9870435   3.0725501  62.7000522  87.6970928   0.7715659
  63.2288288  87.1863382   0.1585822  62.9628741  87.3813458   1.6361192
  61.4538755  79.4762861  15.8938478  60.7779392  79.3756990  16.5640853
  62.2766389  79.3202074  16.3574475  53.2017614  85.7134797   8.5150993
  53.7871051  84.9678485   8.6478897  53.0042453  86.0238754   9.3987657
  56.0556269  88.7486045   3.5313435  55.3866645  89.2332172   3.0477475
  55.9169139  88.9955265   4.4456814  47.7935269  78.2840397   7.2355436
  47.8319369  77.7503988   8.0292554  47.2875562  77.7575603   6.6166413
  60.1961538  90.7829788  10.1296094  60.7479846  90.9461410  10.8945179
  60.5367732  91.3734226   9.4576119  55.1726031  73.1304938  10.7317978
  55.2367358  73.9919769  10.3195376  55.1093152  72.5178940   9.9990337
  54.6478304  75.2028070  14.3791013  55.2750343  74.8205148  14.9928537
  53.7906223  74.9842272  14.7446705  65.0472412  85.6091046  15.9844748
  65.5912316  86.2221004  15.4899703  64.4659257  86.1670624  16.5011761
  51.4243847  77.0104500   0.3109368  51.7197288  76.1015178   0.2576421
  50.5231882  76.9892239  -0.0109630  63.3329925  88.7311764   7.1159776
  63.2081065  87.9301503   6.6070721  63.9909016  89.2257957   6.6273746
  54.9538094  75.0860496   6.2936916  54.2324679  75.6996464   6.1544389
  55.7431349  75.6218261   6.2153562  65.3964834  86.5320784   8.7439326
  64.4495169  86.4126135   8.6717653  65.7447607  85.6443282   8.8265587
  57.7564407  72.4214923  12.5677568  58.2798809  72.6677219  13.3303877
  57.5376740  73.2534957  12.1480705  53.1531688  74.6918597   0.4348693
  52.8244394  73.8115976   0.2523799  53.5071059  74.6366266   1.3225082
  62.4011267  86.3273500   4.9443678  62.2536229  85.3990207   5.1251248
  63.2264761  86.3493591   4.4600753  56.2673511  74.9791567   0.8024170
  56.6069584  75.5077488   0.0802779  56.7145632  75.3171973   1.5782737
  66.0045389  87.1502059   6.0308551  66.9291936  86.9444920   5.8933002
  65.8360692  86.9018460   6.9397892  58.9616952  73.3628618  10.2527238
  58.6213773  72.5636431  10.6547918  58.2555958  73.6630329   9.6804072
  59.6133424  70.4477930   8.7054561  60.4359493  69.9738408   8.5833452
  59.8571488  71.2268414   9.2053248  58.2541658  73.4766189  -0.9982537
  58.9750021  73.8547441  -1.5018820  57.6306963  74.1955065  -0.8947559
  62.3972781  74.1811338  -0.0624205  62.6136396  75.0635975  -0.3635376
  61.9166849  73.7897551  -0.7918563  57.1372003  77.1397051   6.5146540
  56.9916583  77.4537354   7.4070822  56.6597206  77.7581951   5.9617439
  58.9968386  74.1299599   6.5627430  58.9829954  73.2340692   6.2259728
  59.7140814  74.1370263   7.1965716  60.8494516  74.5636939   8.6080557
  60.5912294  75.4854010   8.6064887  60.3179557  74.1667374   9.2981021
  65.7940705  87.6687726   1.3870642  65.9677583  87.1034149   0.6344495
  66.2869596  88.4688621   1.2050132  51.6117665  79.6802395   9.4534201
  51.0671133  80.4562203   9.5854476  52.4897015  80.0273200   9.2953323
  58.4005282  73.0113979   1.8315000  58.5221193  72.0830625   2.0305887
  58.1107324  73.0252665   0.9193315  61.2696472  70.6968890   4.9681720
  61.2918169  70.7608223   4.0133699  61.6864531  69.8573398   5.1622226
  71.6480096  80.4324149   3.0060942  72.0911242  79.6831474   2.6080065
  70.7706607  80.4234285   2.6234674  66.7815878  86.9854491  -1.5132459
  67.4766782  87.6061183  -1.2945145  67.1239028  86.1349842  -1.2380081
  52.3983687  78.8072291  12.3464358  51.6565423  78.9554927  12.9328989
  52.0776431  79.0680557  11.4831108  68.6807301  84.4354196   0.0154871
  69.2058625  84.7741469  -0.7095809  68.5929653  83.5001211  -0.1681994
  60.3427349  88.3488270  12.1444748  60.6514476  88.1037416  13.0167448
  61.1402831  88.5534908  11.6563618  60.3647961  90.5026179   4.3750125
  59.9252952  90.0102558   5.0682981  61.1156078  89.9599147   4.1342200
  52.8440300  86.6937720   4.3774753  53.6698320  86.3941492   3.9973396
  52.4934352  85.9245343   4.8264541  57.8121834  86.0464188   6.4472426
  57.1901843  85.3834893   6.1474654  58.4826701  86.0725320   5.7646074
  51.0448905  84.6124047   5.3363686  50.2080814  84.1846221   5.1547688
  51.0172551  84.8056490   6.2734478  57.8846361  74.5245976  16.0404932
  57.9334517  75.4008099  15.6582702  58.4268875  73.9823369  15.4676576
  68.3701207  85.0687100  15.3206069  67.5796750  85.0511239  14.7810569
  68.1334561  85.6075393  16.0755106  68.4899082  81.9179566  12.6338798
  68.5397087  81.7529574  13.5754321  68.3813005  81.0506825  12.2436679
  57.3735341  84.5968112  -0.0769113  57.5223461  85.2803576  -0.7302440
  58.1801784  84.5773202   0.4380343  65.7802844  77.9010494  13.9498105
  66.6812707  77.7616959  13.6582102  65.8550819  78.0664949  14.8896282
  60.1145650  75.2777349  12.7951291  59.2448959  75.5710915  12.5233880
  60.3505130  75.8617794  13.5158555  69.9917279  84.3376508  12.8780820
  69.7002087  84.7006488  13.7144280  69.3789410  83.6243516  12.6994152
  71.1912961  81.9029387   5.3983390  72.0259852  82.3419191   5.5620950
  71.3272090  81.4268041   4.5791636  68.2404467  79.4609122  11.3460877
  68.7158588  79.6536769  10.5379729  67.3170032  79.5168308  11.1004261
  55.1287973  80.6233289   0.9291956  54.8834015  79.7195619   1.1272166
  55.2983888  80.6250440  -0.0128566  62.8184683  71.4956966  10.3116711
  63.3366627  72.2317993   9.9863200  62.4639816  71.8020959  11.1463471
  54.3983621  76.3561647  -1.5721883  53.7052866  76.4306002  -2.2281847
  54.1535373  75.5921991  -1.0500366  63.0697278  67.9157248   5.8317608
  63.3499031  67.2480437   6.4578035  63.8547884  68.1086344   5.3192272
  60.8730746  87.0916242  -2.6057366  60.3004713  87.7106429  -3.0586894
  61.4463540  87.6415604  -2.0717444  66.9406136  76.3374882   9.5789183
  67.8923559  76.4372980   9.6001407  66.7709586  75.5453151  10.0887267
  64.9620515  73.4230466   9.7648584  64.3670447  73.7035478   9.0695073
  64.6770212  73.9124366  10.5365325  64.0928006  87.3753392  -1.4748783
  65.0258679  87.3098954  -1.2715908  64.0051219  88.2109659  -1.9334251
  66.7216022  86.6919263  -4.5144836  66.6429654  86.3579126  -3.6209078
  67.5425689  87.1841031  -4.5153364  69.4194214  79.5581002   8.6931483
  69.3870534  78.6197003   8.8791167  70.0294837  79.6365039   7.9597308
  61.2577545  78.4277055  -5.2641313  62.2036649  78.2983263  -5.1952895
  60.8791789  77.6891717  -4.7871885  69.5688702  76.3492045   8.7389766
  69.0527751  75.5650502   8.5519695  70.4528651  76.0210762   8.9036285
  67.2299429  70.0933061   4.6985579  67.0324250  69.7848149   5.5828911
  67.8399135  70.8194700   4.8283508  75.2370764  80.6197009   7.8337520
  75.9674152  80.3582297   8.3945223  74.6277709  79.8825731   7.8739588
  73.3186061  78.7604871   8.4311971  72.5919224  78.6260836   7.8228462
  72.9033348  79.0681700   9.2368689  61.1416237  82.4794801  16.1959344
  62.0619247  82.6573400  16.3899390  61.1065820  81.5350846  16.0439043
  59.4420462  76.3527031  -5.3286428  58.5351917  76.0560144  -5.2523714
  59.7196443  76.0556849  -6.1952142  50.3598402  77.6733395   5.1212618
  50.0401186  76.8198703   4.8286992  49.8131830  77.8881973   5.8770586
  54.1378310  80.3895836   8.8382125  54.3564319  81.3212944   8.8570159
  54.5504083  80.0303810   9.6236929  61.0582527  70.8963921   0.8257813
  60.2483256  70.5511006   1.2013059  61.7466944  70.5871465   1.4145425
  62.9873076  69.9741968   2.4482110  63.5404114  70.3937421   3.1072133
  63.2243162  69.0477716   2.4905066  59.0106175  75.9629042  18.2284874
  58.9102902  76.9123398  18.1596965  58.7927717  75.6347280  17.3560944
  58.2119246  73.2113967  -5.1874449  59.0738410  73.5368865  -4.9278631
  58.3969590  72.4245462  -5.7001383  50.2286662  81.2936306   7.0905740
  49.5350134  80.8790259   6.5775694  50.9759653  81.3356843   6.4939159
  66.3651883  72.0842493   1.9560774  65.7850552  72.7427297   1.5738827
  66.0987815  71.2619838   1.5448192  64.8155449  71.4847551   4.1582095
  65.3155228  71.5964085   3.3496413  65.4591057  71.1808604   4.7982903
  58.8737445  79.3926180  17.0449936  58.3904527  80.1926540  17.2513825
  58.9598384  79.4034125  16.0917380  52.1423405  81.2254560   4.9671755
  52.1194093  81.3242247   4.0153638  52.4524041  82.0719711   5.2888921
  54.8010782  83.2830715   9.0818369  55.7554036  83.2514657   9.0148301
  54.6023306  82.8221339   9.8968595  55.3910165  81.8531831  11.6489167
  56.2103054  82.3475910  11.6724004  55.6646972  80.9363799  11.6206734
  65.1476761  74.2442583   1.0117122  64.2602616  74.5292234   0.7937317
  65.5630750  74.0836347   0.1644399  68.4991297  74.2689104   4.7271462
  69.2751687  74.7585557   4.9996079  67.7739431  74.6947159   5.1843331
  70.9363856  74.9816724   5.7845402  71.5308346  74.7412460   5.0738711
  71.0090439  74.2623854   6.4118939  53.1561011  88.8250335   6.0988567
  53.0215479  88.0650735   5.5326565  52.7393074  89.5491234   5.6317356
  64.2919974  84.0087258  -4.8934858  64.9955824  84.2137261  -4.2777202
  63.5682623  84.5764020  -4.6285774  65.1217785  79.7597119   1.2267413
  65.0652986  80.2165671   0.3875045  65.6746127  78.9987804   1.0490255
  68.9322590  75.5486851   2.0517532  68.6759525  75.1483487   2.8825740
  68.3075459  76.2630645   1.9267671  73.2434928  78.2882924   4.5588824
  72.6834486  78.3576114   5.3320386  72.6378432  78.1123909   3.8388320
  56.3130137  89.7219652   6.3107010  56.1962521  90.6665084   6.2085700
  55.4922583  89.4193213   6.6992809  66.2006672  84.4469787  -2.8436397
  67.0352276  84.0150986  -3.0258923  66.0391015  84.2751801  -1.9159503
  65.8552564  80.9501901  -1.4780058  65.8001368  80.7846172  -2.4191614
  65.2298619  81.6577933  -1.3217868  50.6445079  76.1869965  12.3481364
  51.2903942  75.6768919  12.8368589  50.4362230  76.9238647  12.9224789
  63.1698471  83.2550812  17.8473505  64.0389631  83.4291465  17.4860140
  62.6905223  84.0745229  17.7249234  59.1648689  70.4510010  -1.8994740
  59.1527359  71.3951850  -1.7426469  60.0572111  70.2680155  -2.1935279
  57.3384651  90.3747913   9.5262938  58.2411898  90.4071524   9.8429433
  57.1122021  89.4448364   9.5409274  59.0938253  89.1278900   6.1873017
  58.1433884  89.1280762   6.0737389  59.3970739  88.3811635   5.6709051
  62.9800809  67.0452786   2.3551197  62.2133205  66.4911273   2.5007879
  63.3911514  67.1174655   3.2165349  54.9842570  73.3337582  16.4456378
  55.8474031  72.9774387  16.6559703  54.4107981  72.9951477  17.1331783
  74.8290947  94.9639438   7.2518779  75.4669357  94.8446186   6.5482119
  74.7111790  95.9120282   7.3106731  71.6380653  94.9166867   7.1880304
  71.2999165  94.8007931   6.3000839  72.5070421  94.5158032   7.1681310
  67.4967469  96.7702343   3.1777195  66.9332334  96.6792280   2.4093483
  67.3819864  95.9502247   3.6579687  72.1200436  96.0701718  13.1466509
  72.1089077  95.6754516  12.2747013  72.2821076  95.3367791  13.7400281
  65.0431901  98.2653535   6.0161415  65.8353193  97.9244359   5.6007715
  65.2828551  98.3748510   6.9363569  67.0022655  97.5262448  -1.1121206
  67.7753531  96.9791435  -1.2508330  67.3548053  98.3906697  -0.9006744
  68.8407697  98.8538830  12.0945693  68.5497563  99.7584461  11.9792360
  69.4764682  98.8955358  12.8089763  69.7663904  96.2315679   8.6847053
  70.3627476  96.0071701   7.9704016  69.8238876  95.4900424   9.2872501
  74.3832215  92.6890892   4.3271987  75.1695304  92.2710315   3.9762404
  74.6470920  93.5936984   4.4953636  79.7840642  92.6266125   5.2304966
  80.5165814  92.0565342   5.4642795  79.0279998  92.2387726   5.6711471
  69.0585221  95.5883220  -1.2778381  68.9421479  94.9128123  -0.6097297
  69.1687481  95.1015594  -2.0946228  71.4016762  95.0493367   2.4268308
  71.0374969  94.5223988   3.1381230  72.2583878  94.6591836   2.2534794
  77.3066063  86.3387700   9.6899574  76.9749388  87.2083111   9.4660789
  76.7111676  86.0223984  10.3693605  71.0422249  90.0783267  -2.5770343
  71.2096651  90.9463503  -2.2099872  70.8519418  90.2410548  -3.5009054
  73.7997582  98.5400246   9.0895487  73.4998305  99.4425284   8.9811294
  73.4548642  98.2732429   9.9416640  67.2510064  94.9914042   5.1232192
  66.3260560  94.8590256   5.3309883  67.4994477  95.7708262   5.6202134
  77.1994726  91.0582786   6.7692924  76.2911603  90.9898194   6.4751685
  77.1482322  91.5354731   7.5974750  71.0211470  92.5340924  -1.5923676
  70.9011095  92.9797975  -0.7538196  70.3264058  92.8826242  -2.1510138
  64.6118875  94.6347316   5.9575981  64.7411256  94.8881795   6.8715392
  63.9316326  95.2275024   5.6380636  71.2735592  92.4772431  14.7127822
  70.4968926  93.0366351  14.7030686  71.9126155  92.9629214  15.2342692
  79.0656372  89.2599224   8.5470798  78.4230753  89.5531757   7.9010593
  78.5611301  89.1452144   9.3523995  69.5281964  95.2857885  14.2745789
  70.2696649  95.8242929  13.9980612  68.8218950  95.9124173  14.4317341
  75.0037304  97.4287025  12.8717950  75.4120660  96.9869436  12.1272583
  74.2814565  96.8539653  13.1252143  71.3568374  92.3659632  10.2451507
  72.2029569  92.7899045  10.3886156  71.2967012  91.7093256  10.9390070
  75.3266118  97.9888216   6.6270239  74.6974981  98.1533930   5.9246307
  74.9391781  98.4029825   7.3981203  79.2055350  98.9242654   3.9814603
  78.5206388  99.3041555   3.4311636  79.2899200  99.5337980   4.7146551
  74.5067819  90.0264000  11.9032681  74.2628751  90.7806061  11.3666957
  74.7827750  90.4049348  12.7379928  76.4606282  96.5702613  10.5809946
  76.6723177  97.2134373   9.9044327  76.4136030  95.7364929  10.1131876
  74.0632511  89.1820433   7.4846519  73.2016990  89.4801687   7.7763256
  74.0894946  89.3990832   6.5527551  70.8794080  97.7262624   3.8920324
  71.3432426  98.0050327   3.1024947  70.6150878  96.8246068   3.7093415
  67.7718161  97.2734105   6.8300087  68.3419518  97.7021374   6.1917572
  68.3626273  96.9916690   7.5284273  69.8162966  93.8485776   0.7009889
  70.5187010  94.3006820   1.1683816  69.4843595  93.2069595   1.3289782
  68.2643328  92.4397533  15.0761099  67.6341988  93.1213814  15.3096496
  68.1579416  92.3280614  14.1314237  63.5588300  92.1069329   6.0027023
  62.7687354  92.3626857   5.5267134  64.0499548  92.9217667   6.1079063
  77.5752110  99.4474568   8.7532304  78.3969554  99.0454755   8.4714985
  77.5714513  99.3442802   9.7048420  65.5103046  92.4713908   2.9610500
  64.7134209  92.5832602   3.4793995  65.2828638  92.8100560   2.0951390
  71.3408713  98.9958611  10.9093014  71.4053146  99.4579019  11.7451186
  70.6319637  98.3655976  11.0375324  61.8426003  92.3599819   8.4342014
  62.0934042  93.2446829   8.6999590  62.3785552  92.1804421   7.6617106
  85.6658103  95.7913317   5.1017275  84.9121811  95.2220715   4.9461280
  85.8005644  95.7575981   6.0487910  67.5424071  86.7418299  17.4386350
  67.1491016  86.1884497  18.1133994  68.3590211  87.0528877  17.8292867
  64.5086128  98.1802157   1.3499920  65.0210649  98.9745407   1.5005484
  65.1608841  97.4828447   1.2833521  66.3181013 101.2967913   3.4322673
  66.4947641 102.2185878   3.2443657  67.1137847 100.9826332   3.8617053
  70.4592032  88.1576178  15.0306606  71.2001745  88.7583331  14.9511069
  70.6909954  87.4153816  14.4724649  65.6033370  93.3432545  13.3084836
  65.4886885  92.4417802  13.6091935  64.7477887  93.5896242  12.9569653
  72.6825207 101.2850285  14.9072337  72.2389062 100.4986664  14.5893241
  73.3442421 101.4729436  14.2416227  67.4412329 102.8146087   9.4333015
  67.9919754 102.6863150   8.6610009  66.6023804 103.1140976   9.0827908
  74.7806445 101.5653085  12.9353738  74.7624921 102.3861966  12.4434007
  75.7026365 101.4407161  13.1603879  71.2379500  99.0797215  13.7777246
  71.7707836  98.3185503  13.5476554  70.7093581  98.7870867  14.5201401
  74.4049195  84.1857281   9.3070888  74.0613464  85.0758922   9.2309999
  74.7728157  83.9958938   8.4440473  62.4735045  96.5090811   2.1259490
  63.3110267  96.9187820   1.9093198  62.6513313  95.5690253   2.0959684
  71.9546588  89.0215593   2.8728562  71.0988185  88.6322443   2.6934200
  72.3673540  89.1007553   2.0128347  73.4845735  86.5561936   7.2720121
  72.9810531  86.5192071   6.4587927  73.7776342  87.4654679   7.3316778
  69.7288621  86.6400666   6.2786303  70.5941618  86.4443474   5.9192192
  69.7966130  86.4111017   7.2055660  74.1585780  92.0492984  -0.3596896
  73.8535916  92.3639133   0.4913248  75.1116223  92.1274404  -0.3169563
  72.6032212  98.2083207   1.2896058  72.0753574  97.4735967   0.9769296
  72.1019715  98.9857884   1.0436027  77.5825058  96.4032228   6.4063105
  76.9248733  97.0931489   6.4943233  78.3865458  96.7928660   6.7497091
  67.3350940  88.8702874   3.6502670  67.9094692  88.6478055   2.9175863
  67.9221922  88.9391568   4.4031271  76.3930517  94.7576600   4.4567046
  76.9062399  95.3906592   4.9588756  77.0431741  94.1577796   4.0910406
  67.6620527  90.9007335  -2.3301445  66.8257839  91.2382021  -2.0092170
  67.5225297  90.7656314  -3.2674308  69.6373608  85.7444122   2.3777739
  68.9838020  85.4293140   1.7534354  69.5954082  85.1219863   3.1037562
  72.8711348  92.2326056   6.7025387  71.9533909  92.4541003   6.5447075
  73.2871492  92.3072366   5.8437094  73.6546396  93.6317472   1.8328067
  74.4018215  94.1438869   1.5235189  73.9237985  93.3101524   2.6932461
  76.1025233  90.6674588   3.8146856  75.3647990  90.1551974   4.1457099
  76.3552006  90.2274970   3.0030133  76.2036860  83.4450840   4.4088626
  76.5095737  82.5848203   4.1214541  76.9289465  84.0368460   4.2087620
  62.4961216  93.8481527   2.7970224  62.2985616  93.2550887   2.0721290
  61.9407880  93.5433737   3.5146162  70.4757940  93.7404633   4.9164817
  70.5306550  92.7878469   4.8407293  69.6649142  93.8964072   5.4006115
  68.4150300  92.3581693   2.6755196  67.6018165  92.6575863   3.0820388
  68.9109294  91.9637381   3.3929678  70.5658878 102.3539450   4.6089460
  70.5235057 102.5800296   3.6797992  71.4821577 102.1202824   4.7575261
  74.0124512  92.8223517  11.5070090  74.3673899  93.0494990  12.3664555
  74.6596643  93.1541894  10.8847345  67.9064375  89.9300048   8.2916431
  68.5463754  89.7888807   7.5939394  67.0741905  89.6434562   7.9155033
  79.7691628  98.0118480   7.2230690  80.2028135  97.9193769   8.0713744
  80.4823209  97.9875981   6.5850706  68.6824679  99.2302479   4.4051423
  69.4765277  98.7352799   4.2033998  67.9716371  98.7020342   4.0419129
  73.5019523 101.6120574   8.7563791  73.5556545 102.1811511   9.5241507
  72.6334304 101.7822459   8.3917828  64.9907442  93.3745560   0.4811176
  64.0605030  93.3130016   0.6981138  65.0864914  92.8521513  -0.3152183
  64.9092991  89.9000373   3.0689417  65.1699808  90.8145706   2.9598578
  65.7310163  89.4324816   3.2186030  66.3817916  91.3138130  10.2388242
  67.0540970  91.1055493   9.5900891  65.5547703  91.1160216   9.7993474
  80.6307178  98.0542181   9.7563575  80.8243068  98.9587991  10.0022850
  80.5307796  97.5949600  10.5902161  72.2843488  87.9400071  12.2553903
  71.6371403  88.6390021  12.1618379  73.0544504  88.3736215  12.6230151
  75.6922286  98.2048923  15.3304456  75.5407793  97.9759475  14.4134540
  75.6826966  99.1619525  15.3435801  72.4607623  95.7780836  10.3150723
  73.3899683  95.9291996  10.1419690  72.0398653  95.8664857   9.4599369
  71.2595955  99.8031501   8.0849260  71.1207040  99.4350285   8.9575198
  70.4710551 100.3179140   7.9133218  72.8101170  99.1813103   5.4738098
  72.4751002  99.1413873   6.3695748  72.3105115  98.5157819   5.0008508
  66.7845414  94.5880733  10.9990679  66.6465212  93.8560972  11.6002218
  67.6950337  94.4989633  10.7174867  69.4127714  94.3000693  10.4874359
  70.1227333  93.6593885  10.4460977  69.3697022  94.5513588  11.4100540
  77.4014493 101.2368046  13.4080938  77.3427039 100.5527266  12.7411521
  77.8034011 101.9787036  12.9561564  68.1256648  91.2865911  12.3069998
  67.5894005  90.8356649  12.9591595  67.5373357  91.4211819  11.5640463
  66.4205192 108.0529960   6.2014657  66.6601790 108.6848484   6.8793675
  65.5774388 107.7018000   6.4880016  67.5358907  90.7454562  -5.1303538
  66.6588374  90.6243363  -5.4941291  68.0116660  89.9540640  -5.3824649
  77.4031900  99.2007630  11.6394918  76.5158679  98.8633552  11.7621317
  77.9730451  98.4690661  11.8763683  59.0561047  95.5331722   4.9637969
  59.7432087  95.2193452   4.3758984  58.9009176  96.4373086   4.6905220
  63.8595770  90.4221918   9.3922993  63.7753958  89.8147588   8.6573403
  63.0378476  90.9130937   9.3932489  70.9333054 103.8609082   8.6056161
  70.8603225 104.6664054   9.1175465  70.4910447 104.0601048   7.7804182
  74.0319483  88.9075482   4.7593188  74.5288183  88.1545444   4.4394258
  73.2606465  88.9439798   4.1936397  81.8849241  94.6115847   6.4011479
  81.8739117  95.4940563   6.0305412  81.0166620  94.2587398   6.2066016
  73.3931737 103.7595916  10.7614319  74.1059709 104.3943381  10.6890221
  72.9021766 103.8559782   9.9454321  75.1149264  97.6647169   2.3331611
  74.1805543  97.7848632   2.1636315  75.2925933  96.7619636   2.0691621
  70.6154452  91.0492865   4.4864872  70.2452240  90.4963905   5.1745778
  71.1113545  90.4450998   3.9339872  78.5021815  93.5064488   2.8681645
  78.9682268  94.3392480   2.7941948  78.9529316  93.0409470   3.5726904
  68.4443651 101.5090360  11.5819890  69.1453110 102.1426843  11.7349285
  67.9738766 101.8505091  10.8215530  76.4738478  85.8745075   6.9072547
  75.5601558  86.1049302   7.0754754  76.9031580  85.9583519   7.7586579
  76.2444937  94.0634967   9.4072441  75.5916387  94.3110875   8.7524893
  76.6225317  93.2499105   9.0734918  72.2932510  94.8054778  15.8938478
  71.6173147  94.7048908  16.5640853  73.1160144  94.6493992  16.3574475
  64.0411369 101.0426715   8.5150993  64.6264806 100.2970403   8.6478897
  63.8436207 101.3530672   9.3987657  66.8950024 104.0777962   3.5313435
  66.2260399 104.5624090   3.0477475  66.7562894 104.3247183   4.4456814
  58.6329024  93.6132315   7.2355436  58.6713123  93.0795906   8.0292554
  58.1269316  93.0867521   6.6166413  71.0355293 106.1121706  10.1296094
  71.5873601 106.2753327  10.8945179  71.3761486 106.7026144   9.4576119
  66.0119786  88.4596856  10.7317978  66.0761112  89.3211686  10.3195376
  65.9486906  87.8470857   9.9990337  65.4872058  90.5319988  14.3791013
  66.1144097  90.1497065  14.9928537  64.6299977  90.3134190  14.7446705
  75.8866167 100.9382963  15.9844748  76.4306071 101.5512922  15.4899703
  75.3053012 101.4962542  16.5011761  62.2637601  92.3396417   0.3109368
  62.5591042  91.4307096   0.2576421  61.3625637  92.3184157  -0.0109630
  74.1723680 104.0603681   7.1159776  74.0474819 103.2593421   6.6070721
  74.8302771 104.5549875   6.6273746  65.7931848  90.4152414   6.2936916
  65.0718434  91.0288382   6.1544389  66.5825104  90.9510179   6.2153562
  76.2358588 101.8612701   8.7439326  75.2888924 101.7418053   8.6717653
  76.5841361 100.9735199   8.8265587  68.5958162  87.7506840  12.5677568
  69.1192563  87.9969137  13.3303877  68.3770495  88.5826875  12.1480705
  63.9925443  90.0210515   0.4348693  63.6638149  89.1407894   0.2523799
  64.3464813  89.9658184   1.3225082  73.2405022 101.6565418   4.9443678
  73.0929984 100.7282125   5.1251248  74.0658515 101.6785508   4.4600753
  67.1067266  90.3083485   0.8024170  67.4463338  90.8369406   0.0802779
  67.5539386  90.6463891   1.5782737  76.8439143 102.4793976   6.0308551
  77.7685691 102.2736838   5.8933002  76.6754447 102.2310378   6.9397892
  69.8010707  88.6920535  10.2527238  69.4607527  87.8928348  10.6547918
  69.0949713  88.9922246   9.6804072  70.4527178  85.7769848   8.7054561
  71.2753248  85.3030326   8.5833452  70.6965242  86.5560332   9.2053248
  69.0935413  88.8058106  -0.9982537  69.8143775  89.1839359  -1.5018820
  68.4700717  89.5246983  -0.8947559  73.2366536  89.5103255  -0.0624205
  73.4530150  90.3927893  -0.3635376  72.7560603  89.1189469  -0.7918563
  67.9765757  92.4688968   6.5146540  67.8310338  92.7829272   7.4070822
  67.4990961  93.0873869   5.9617439  69.8362140  89.4591516   6.5627430
  69.8223709  88.5632610   6.2259728  70.5534568  89.4662180   7.1965716
  71.6888271  89.8928857   8.6080557  71.4306049  90.8145927   8.6064887
  71.1573311  89.4959291   9.2981021  62.4511419  95.0094313   9.4534201
  61.9064887  95.7854121   9.5854476  63.3290769  95.3565117   9.2953323
  69.2399036  88.3405897   1.8315000  69.3614947  87.4122543   2.0305887
  68.9501078  88.3544583   0.9193315  72.1090226  86.0260807   4.9681720
  72.1311923  86.0900140   4.0133699  72.5258285  85.1865316   5.1622226
  82.4873851  95.7616067   3.0060942  82.9304997  95.0123392   2.6080065
  81.6100361  95.7526203   2.6234674  63.2377441  94.1364209  12.3464358
  62.4959177  94.2846845  12.9328989  62.9170186  94.3972475  11.4831108
  71.1821104 103.6780187  12.1444748  71.4908230 103.4329334  13.0167448
  71.9796586 103.8826826  11.6563618  71.2041716 105.8318097   4.3750125
  70.7646706 105.3394476   5.0682981  71.9549833 105.2891065   4.1342200
  63.6834055 102.0229638   4.3774753  64.5092075 101.7233410   3.9973396
  63.3328107 101.2537260   4.8264541  68.6515588 101.3756106   6.4472426
  68.0295597 100.7126811   6.1474654  69.3220455 101.4017238   5.7646074
  61.8842660  99.9415964   5.3363686  61.0474568  99.5138139   5.1547688
  61.8566305 100.1348408   6.2734478  68.7240116  89.8537894  16.0404932
  68.7728271  90.7300017  15.6582702  69.2662630  89.3115287  15.4676576
  79.2094961 100.3979017  15.3206069  78.4190505 100.3803156  14.7810569
  78.9728316 100.9367311  16.0755106  79.3292836  97.2471484  12.6338798
  79.3790841  97.0821491  13.5754321  79.2206760  96.3798743  12.2436679
  76.6196599  93.2302412  13.9498105  77.5206461  93.0908877  13.6582102
  76.6944573  93.3956867  14.8896282  70.9539404  90.6069267  12.7951291
  70.0842713  90.9002833  12.5233880  71.1898884  91.1909712  13.5158555
  80.8311033  99.6668425  12.8780820  80.5395841 100.0298406  13.7144280
  80.2183164  98.9535434  12.6994152  82.0306715  97.2321305   5.3983390
  82.8653607  97.6711109   5.5620950  82.1665844  96.7559958   4.5791636
  79.0798221  94.7901040  11.3460877  79.5552343  94.9828686  10.5379729
  78.1563787  94.8460226  11.1004261  65.9681728  95.9525207   0.9291956
  65.7227770  95.0487537   1.1272166  66.1377643  95.9542358  -0.0128566
  73.6578438  86.8248883  10.3116711  74.1760382  87.5609910   9.9863200
  73.3033571  87.1312877  11.1463471  65.2377376  91.6853565  -1.5721883
  64.5446620  91.7597920  -2.2281847  64.9929127  90.9213908  -1.0500366
  73.9091032  83.2449166   5.8317608  74.1892786  82.5772355   6.4578035
  74.6941639  83.4378262   5.3192272  77.7799890  91.6666800   9.5789183
  78.7317313  91.7664898   9.6001407  77.6103341  90.8745069  10.0887267
  75.8014270  88.7522383   9.7648584  75.2064202  89.0327396   9.0695073
  75.5163967  89.2416284  10.5365325  80.2587968  94.8872920   8.6931483
  80.2264288  93.9488920   8.8791167  80.8688592  94.9656956   7.9597308
  80.4082457  91.6783963   8.7389766  79.8921505  90.8942420   8.5519695
  81.2922405  91.3502680   8.9036285  78.0693184  85.4224979   4.6985579
  77.8718005  85.1140067   5.5828911  78.6792889  86.1486618   4.8283508
  86.0764518  95.9488927   7.8337520  86.8067906  95.6874215   8.3945223
  85.4671463  95.2117648   7.8739588  84.1579815  94.0896789   8.4311971
  83.4312979  93.9552754   7.8228462  83.7427102  94.3973618   9.2368689
  71.9809992  97.8086719  16.1959344  72.9013001  97.9865318  16.3899390
  71.9459575  96.8642764  16.0439043  61.1992157  93.0025312   5.1212618
  60.8794941  92.1490621   4.8286992  60.6525585  93.2173891   5.8770586
  64.9772064  95.7187753   8.8382125  65.1958074  96.6504861   8.8570159
  65.3897838  95.3595728   9.6236929  71.8976282  86.2255839   0.8257813
  71.0877010  85.8802924   1.2013059  72.5860699  85.9163382   1.4145425
  73.8266830  85.3033886   2.4482110  74.3797869  85.7229339   3.1072133
  74.0636917  84.3769634   2.4905066  69.8499929  91.2920959  18.2284874
  69.7496656  92.2415316  18.1596965  69.6321471  90.9639198  17.3560944
  69.0513001  88.5405884  -5.1874449  69.9132165  88.8660783  -4.9278631
  69.2363345  87.7537380  -5.7001383  61.0680417  96.6228224   7.0905740
  60.3743888  96.2082177   6.5775694  61.8153408  96.6648760   6.4939159
  77.2045637  87.4134411   1.9560774  76.6244306  88.0719215   1.5738827
  76.9381570  86.5911755   1.5448192  75.6549204  86.8139468   4.1582095
  76.1548982  86.9256003   3.3496413  76.2984812  86.5100521   4.7982903
  69.7131199  94.7218098  17.0449936  69.2298281  95.5218458  17.2513825
  69.7992139  94.7326043  16.0917380  62.9817159  96.5546478   4.9671755
  62.9587847  96.6534165   4.0153638  63.2917796  97.4011629   5.2888921
  65.6404537  98.6122633   9.0818369  66.5947791  98.5806575   9.0148301
  65.4417061  98.1513256   9.8968595  66.2303919  97.1823749  11.6489167
  67.0496808  97.6767827  11.6724004  66.5040727  96.2655717  11.6206734
  75.9870515  89.5734501   1.0117122  75.0996370  89.8584152   0.7937317
  76.4024504  89.4128264   0.1644399  79.3385051  89.5981022   4.7271462
  80.1145442  90.0877475   4.9996079  78.6133186  90.0239076   5.1843331
  81.7757610  90.3108641   5.7845402  82.3702101  90.0704377   5.0738711
  81.8484194  89.5915772   6.4118939  63.9954766 104.1542252   6.0988567
  63.8609234 103.3942653   5.5326565  63.5786828 104.8783152   5.6317356
  75.9611539  95.0889037   1.2267413  75.9046740  95.5457588   0.3875045
  76.5139882  94.3279722   1.0490255  79.7716345  90.8778769   2.0517532
  79.5153279  90.4775405   2.8825740  79.1469213  91.5922563   1.9267671
  84.0828683  93.6174842   4.5588824  83.5228241  93.6868031   5.3320386
  83.4772186  93.4415827   3.8388320  67.1523892 105.0511569   6.3107010
  67.0356276 105.9957002   6.2085700  66.3316338 104.7485131   6.6992809
  61.4838833  91.5161883  12.3481364  62.1297697  91.0060837  12.8368589
  61.2755984  92.2530564  12.9224789  74.0092226  98.5842730  17.8473505
  74.8783385  98.7583382  17.4860140  73.5298977  99.4037147  17.7249234
  70.0042444  85.7801927  -1.8994740  69.9921114  86.7243767  -1.7426469
  70.8965866  85.5972073  -2.1935279  68.1778406 105.7039831   9.5262938
  69.0805652 105.7363441   9.8429433  67.9515776 104.7740282   9.5409274
  69.9332008 104.4570818   6.1873017  68.9827639 104.4572679   6.0737389
  70.2364494 103.7103552   5.6709051  73.8194563  82.3744704   2.3551197
  73.0526959  81.8203191   2.5007879  74.2305268  82.4466573   3.2165349
  65.8236324  88.6629500  16.4456378  66.6867786  88.3066305  16.6559703
  65.2501735  88.3243395  17.1331783  82.9594191 111.3993636  13.1466509
  82.9482831 111.0046434  12.2747013  83.1214830 110.6659709  13.7400281
  88.1459817 101.6679617   9.6899574  87.8143142 102.5375028   9.4660789
  87.5505431 101.3515901  10.3693605  82.1129346 107.8064349  14.7127822
  81.3362680 108.3658269  14.7030686  82.7519909 108.2921132  15.2342692
  80.3675719 110.6149802  14.2745789  81.1090403 111.1534846  13.9980612
  79.6612704 111.2416091  14.4317341  82.1962128 107.6951550  10.2451507
  83.0423324 108.1190963  10.3886156  82.1360766 107.0385174  10.9390070
  85.3461574 105.3555918  11.9032681  85.1022506 106.1097978  11.3666957
  85.6221504 105.7341266  12.7379928  79.1037082 107.7689451  15.0761099
  78.4735743 108.4505731  15.3096496  78.9973170 107.6572532  14.1314237
  72.6819758 107.6891737   8.4342014  72.9327796 108.5738747   8.6999590
  73.2179306 107.5096339   7.6617106  78.3817825 102.0710216  17.4386350
  77.9884771 101.5176415  18.1133994  79.1983965 102.3820795  17.8292867
  81.2985786 103.4868095  15.0306606  82.0395499 104.0875249  14.9511069
  81.5303709 102.7445733  14.4724649  76.4427124 108.6724463  13.3084836
  76.3280639 107.7709720  13.6091935  75.5871642 108.9188159  12.9569653
  82.0773254 114.4089132  13.7777246  82.6101591 113.6477421  13.5476554
  81.5487335 114.1162784  14.5201401  85.2442949  99.5149198   9.3070888
  84.9007218 100.4050840   9.2309999  85.6121912  99.3250856   8.4440473
  80.5682375 101.9692583   6.2786303  81.4335372 101.7735392   5.9192192
  80.6359884 101.7402935   7.2055660  78.7458129 105.2591966   8.2916431
  79.3857508 105.1180725   7.5939394  77.9135660 104.9726479   7.9155033
  77.2211671 106.6430048  10.2388242  77.8934724 106.4347410   9.5900891
  76.3941457 106.4452134   9.7993474  83.1237243 103.2691989  12.2553903
  82.4765158 103.9681939  12.1618379  83.8938258 103.7028133  12.6230151
  86.5316041 113.5340841  15.3304456  86.3801547 113.3051393  14.4134540
  86.5220720 114.4911443  15.3435801  77.6239168 109.9172651  10.9990679
  77.4858966 109.1852890  11.6002218  78.5344092 109.8281551  10.7174867
  80.2521469 109.6292610  10.4874359  80.9621087 108.9885803  10.4460977
  80.2090777 109.8805505  11.4100540  78.9650403 106.6157828  12.3069998
  78.4287760 106.1648567  12.9591595  78.3767111 106.7503737  11.5640463
  74.6989524 105.7513836   9.3922993  74.6147713 105.1439506   8.6573403
  73.8772230 106.2422854   9.3932489  83.1326264 110.1346696  15.8938478
  82.4566901 110.0340825  16.5640853  83.9553898 109.9785910  16.3574475
  69.4722778 108.9424233   7.2355436  69.5106878 108.4087823   8.0292554
  68.9663071 108.4159438   6.6166413  76.8513540 103.7888773  10.7317978
  76.9154867 104.6503604  10.3195376  76.7880661 103.1762775   9.9990337
  76.3265813 105.8611906  14.3791013  76.9537852 105.4788983  14.9928537
  75.4693732 105.6426108  14.7446705  79.4351916 103.0798758  12.5677568
  79.9586318 103.3261055  13.3303877  79.2164249 103.9118793  12.1480705
  80.6404461 104.0212453  10.2527238  80.3001282 103.2220266  10.6547918
  79.9343467 104.3214164   9.6804072  81.2920933 101.1061766   8.7054561
  82.1147002 100.6322244   8.5833452  81.5358996 101.8852249   9.2053248
  82.5282025 105.2220774   8.6080557  82.2699803 106.1437845   8.6064887
  81.9967066 104.8251209   9.2981021  73.2905174 110.3386231   9.4534201
  72.7458642 111.1146039   9.5854476  74.1684524 110.6857035   9.2953323
  74.0771196 109.4656127  12.3464358  73.3352932 109.6138762  12.9328989
  73.7563940 109.7264392  11.4831108  79.5633870 105.1829812  16.0404932
  79.6122026 106.0591935  15.6582702  80.1056384 104.6407205  15.4676576
  87.4590353 108.5594329  13.9498105  88.3600216 108.4200794  13.6582102
  87.5338328 108.7248784  14.8896282  81.7933159 105.9361184  12.7951291
  80.9236468 106.2294750  12.5233880  82.0292639 106.5201629  13.5158555
  84.4972192 102.1540801  10.3116711  85.0154136 102.8901828   9.9863200
  84.1427325 102.4604794  11.1463471  86.6408024 104.0814301   9.7648584
  86.0457956 104.3619314   9.0695073  86.3557721 104.5708202  10.5365325
  82.8203746 113.1378636  16.1959344  83.7406756 113.3157235  16.3899390
  82.7853329 112.1934682  16.0439043  80.6893684 106.6212877  18.2284874
  80.5890411 107.5707234  18.1596965  80.4715226 106.2931116  17.3560944
  80.5524954 110.0510016  17.0449936  80.0692036 110.8510376  17.2513825
  80.6385893 110.0617961  16.0917380  77.0697674 112.5115666  11.6489167
  77.8890563 113.0059745  11.6724004  77.3434481 111.5947635  11.6206734
  72.3232588 106.8453800  12.3481364  72.9691451 106.3352754  12.8368589
  72.1149739 107.5822482  12.9224789  84.8485980 113.9134648  17.8473505
  85.7177140 114.0875300  17.4860140  84.3692732 114.7329065  17.7249234
  76.6630079 103.9921417  16.4456378  77.5261540 103.6358222  16.6559703
  76.0895489 103.6535312  17.1331783  61.2806683  57.7471923  -0.1288184
  61.2695324  57.3524721  -1.0007680  61.4427322  57.0137996   0.4645588
  58.0013944  60.5309035  -1.1809000  57.7103810  61.4354666  -1.2962334
  58.6370928  60.5725563  -0.4664930  62.9603829  60.2170450  -4.1859206
  62.6604552  61.1195489  -4.2943399  62.6154889  59.9502634  -3.3338053
  60.4341839  54.1542636   1.4373128  59.6575173  54.7136556   1.4275993
  61.0732402  54.6399419   1.9587999  58.6888211  56.9628090   0.9991095
  59.4302895  57.5013134   0.7225919  57.9825196  57.5894378   1.1562647
  64.1643551  59.1057230  -0.4036743  64.5726907  58.6639641  -1.1482111
  63.4420812  58.5309858  -0.1502550  65.6212529  58.2472818  -2.6944747
  65.8329424  58.8904577  -3.3710366  65.5742277  57.4135134  -3.1622817
  66.7358357  61.1244773  -4.5222390  67.5575800  60.7224960  -4.8039708
  66.7320760  61.0213007  -3.5706274  60.5014960  60.6728816  -2.3661679
  60.5659393  61.1349224  -1.5303507  59.7925884  60.0426181  -2.2379369
  61.8431454  62.9620490   1.6317643  61.3995308  62.1756869   1.3138548
  62.5048668  63.1499641   0.9661534  56.6018575  64.4916292  -3.8421678
  57.1526000  64.3633355  -4.6144684  55.7630051  64.7911181  -4.1926785
  63.9412692  63.2423290  -0.3400955  63.9231168  64.0632171  -0.8320686
  64.8632612  63.1177365  -0.1150814  60.3985746  60.7567420   0.5022553
  60.9314083  59.9955708   0.2721861  59.8699827  60.4641072   1.2446707
  68.9297875  59.6888685  -6.0524003  69.3634382  59.5963974  -5.2040949
  69.6429456  59.6646185  -6.6903987  62.6625770  63.2890779  -4.5190903
  62.7162792  63.8581715  -3.7513187  61.7940551  63.4592664  -4.8836866
  69.7913424  59.7312386  -3.5191118  69.9849315  60.6358196  -3.2731843
  69.6914043  59.2719805  -2.6852533  64.8528533  59.8819128   2.0549763
  64.7014040  59.6529680   1.1379846  64.8433213  60.8389730   2.0681108
  66.5620740  62.9138251   0.1326245  66.5033286  62.2297471  -0.5343172
  66.9640258  63.6557241  -0.3193129  55.5811439  69.7300165  -7.0740036
  55.8208037  70.3618689  -6.3961018  54.7380635  69.3788205  -6.7874677
  66.5638147  60.8777835  -1.6359776  65.6764926  60.5403757  -1.5133377
  67.1336698  60.1460866  -1.3991010  60.0939300  65.5379287  -4.6698533
  60.0209472  66.3434259  -4.1579228  59.6516694  65.7371253  -5.4950511
  62.5537984  65.4366121  -2.5140374  63.2665956  66.0713586  -2.5864472
  62.0628013  65.5329987  -3.3300372  57.6049897  63.1860565  -1.6934803
  58.3059357  63.8197048  -1.5405409  57.1345012  63.5275296  -2.4539164
  61.4538756  56.4824983   2.6183784  60.7779393  56.3819113   3.2886160
  62.2766390  56.3264197   3.0819782  60.1961539  67.7891911  -3.1458600
  60.7479847  67.9523532  -2.3809514  60.5367733  68.3796349  -3.8178575
  65.0472414  62.6153168   2.7090055  65.5912318  63.2283126   2.2145010
  64.4659259  63.1732747   3.2257068  63.3329927  65.7373886  -6.1594917
  63.2081066  64.9363626  -6.6683972  63.9909018  66.2320080  -6.6480947
  65.3964835  63.5382906  -4.5315367  64.4495171  63.4188258  -4.6037041
  65.7447608  62.6505404  -4.4489106  66.0045390  64.1564181  -7.2446142
  66.9291938  63.9507043  -7.3821691  65.8360694  63.9080582  -6.3356801
  60.3427351  65.3550392  -1.1309945  60.6514477  65.1099539  -0.2587246
  61.1402833  65.5597031  -1.6191075  68.3701208  62.0749222   2.0451376
  67.5796752  62.0573361   1.5055875  68.1334563  62.6137516   2.8000413
  68.4899083  58.9241689  -0.6415895  68.5397088  58.7591696   0.2999627
  68.3813006  58.0568948  -1.0318015  65.7802845  54.9072617   0.6743411
  66.6812708  54.7679082   0.3827409  65.8550820  55.0727072   1.6141589
  69.9917280  61.3438630  -0.3973874  69.7002088  61.7068611   0.4389587
  69.3789411  60.6305638  -0.5760542  68.2404468  56.4671245  -1.9293816
  68.7158590  56.6598891  -2.7374964  67.3170034  56.5230431  -2.1750432
  69.4194215  56.5643125  -4.5823211  69.3870535  55.6259125  -4.3963527
  70.0294839  56.6427161  -5.3157386  75.2370765  57.6259131  -5.4417174
  75.9674153  57.3644420  -4.8809470  74.6277710  56.8887853  -5.4015106
  73.3186062  55.7666994  -4.8442723  72.5919225  55.6322959  -5.4526231
  72.9033349  56.0743823  -4.0386005  61.1416238  59.4856924   2.9204650
  62.0619248  59.6635523   3.1144697  61.1065821  58.5412969   2.7684350
  59.0106176  52.9691164   4.9530181  58.9102903  53.9185521   4.8842272
  58.7927718  52.6409403   4.0806251  58.8737446  56.3988303   3.7695242
  58.3904528  57.1988663   3.9759131  58.9598385  56.4096248   2.8162686
  63.1698472  60.2612935   4.5718811  64.0389632  60.4353587   4.2105446
  62.6905224  61.0807352   4.4494541  57.3384653  67.3810036  -3.7491755
  58.2411899  67.4133646  -3.4325260  57.1122023  66.4510487  -3.7345419
  74.8290948  71.9701561  -6.0235914  75.4669358  71.8508308  -6.7272574
  74.7111791  72.9182405  -5.9647962  71.6380654  71.9228989  -6.0874389
  71.2999166  71.8070054  -6.9753855  72.5070423  71.5220154  -6.1073383
  67.4967470  73.7764466 -10.0977498  66.9332335  73.6854402 -10.8661211
  67.3819865  72.9564370  -9.6175006  72.1200437  73.0763841  -0.1288184
  72.1089078  72.6816639  -1.0007680  72.2821077  72.3429913   0.4645588
  65.0431902  75.2715657  -7.2593278  65.8353194  74.9306482  -7.6746979
  65.2828552  75.3810632  -6.3391125  67.0022656  74.5324570 -14.3875899
  67.7753532  73.9853557 -14.5263023  67.3548055  75.3968820 -14.1761438
  68.8407698  75.8600953  -1.1809000  68.5497564  76.7646583  -1.2962334
  69.4764683  75.9017480  -0.4664930  69.7663905  73.2377801  -4.5907640
  70.3627478  73.0133824  -5.3050677  69.8238877  72.4962547  -3.9882192
  74.3832217  69.6953015  -8.9482706  75.1695306  69.2772438  -9.2992289
  74.6470921  70.5999107  -8.7801058  79.7840644  69.6328248  -8.0449728
  80.5165816  69.0627465  -7.8111898  79.0279999  69.2449848  -7.6043222
  71.4016763  72.0555490 -10.8486385  71.0374971  71.5286111 -10.1373464
  72.2583879  71.6653959 -11.0219900  77.3066064  63.3449822  -3.5855119
  76.9749389  64.2145233  -3.8093904  76.7111677  63.0286106  -2.9061089
  73.7997584  75.5462368  -4.1859206  73.4998307  76.4487407  -4.2943399
  73.4548643  75.2794551  -3.3338053  67.2510065  71.9976165  -8.1522502
  66.3260561  71.8652379  -7.9444810  67.4994478  72.7770384  -7.6552559
  77.1994727  68.0644908  -6.5061769  76.2911605  67.9960317  -6.8003008
  77.1482323  68.5416853  -5.6779943  64.6118876  71.6409439  -7.3178713
  64.7411257  71.8943917  -6.4039301  63.9316327  72.2337147  -7.6374058
  71.2735593  69.4834554   1.4373128  70.4968927  70.0428474   1.4275993
  71.9126156  69.9691337   1.9587999  79.0656374  66.2661347  -4.7283895
  78.4230754  66.5593880  -5.3744100  78.5611302  66.1514267  -3.9230698
  69.5281965  72.2920007   0.9991095  70.2696650  72.8305051   0.7225919
  68.8218951  72.9186296   1.1562647  75.0037305  74.4349148  -0.4036743
  75.4120661  73.9931558  -1.1482111  74.2814567  73.8601775  -0.1502550
  71.3568375  69.3721755  -3.0303186  72.2029570  69.7961168  -2.8868537
  71.2967013  68.7155379  -2.3364623  75.3266120  74.9950338  -6.6484454
  74.6974982  75.1596052  -7.3508386  74.9391782  75.4091948  -5.8773490
  79.2055352  75.9304776  -9.2940090  78.5206390  76.3103678  -9.8443057
  79.2899201  76.5400103  -8.5608143  74.5067820  67.0326123  -1.3722013
  74.2628752  67.7868183  -1.9087737  74.7827751  67.4111470  -0.5374765
  76.4606283  73.5764735  -2.6944747  76.6723178  74.2196495  -3.3710366
  76.4136031  72.7427052  -3.1622817  74.0632512  66.1882556  -5.7908175
  73.2016991  66.4863809  -5.4991437  74.0894947  66.4052955  -6.7227142
  70.8794082  74.7324746  -9.3834369  71.3432427  75.0112449 -10.1729747
  70.6150880  73.8308191  -9.5661278  67.7718163  74.2796228  -6.4454606
  68.3419520  74.7083496  -7.0837121  68.3626274  73.9978813  -5.7470420
  69.8162968  70.8547899 -12.5744804  70.5187011  71.3068942 -12.1070878
  69.4843596  70.2131718 -11.9464911  68.2643329  69.4459655   1.8006405
  67.6341990  70.1275936   2.0341802  68.1579417  69.3342737   0.8559544
  63.5588302  69.1131451  -7.2727670  62.7687356  69.3688980  -7.7487560
  64.0499549  69.9279789  -7.1675630  77.5752111  76.4536691  -4.5222390
  78.3969555  76.0516878  -4.8039708  77.5714514  76.3504925  -3.5706274
  65.5103047  69.4776031 -10.3144194  64.7134210  69.5894725  -9.7960698
  65.2828639  69.8162683 -11.1803303  71.3408715  76.0020734  -2.3661679
  71.4053147  76.4641141  -1.5303507  70.6319638  75.3718099  -2.2379369
  61.8426005  69.3661942  -4.8412680  62.0934043  70.2508952  -4.5755104
  62.3785553  69.1866543  -5.6137588  85.6658104  72.7975439  -8.1737418
  84.9121813  72.2282837  -8.3293414  85.8005645  72.7638104  -7.2266783
  67.5424072  63.7480421   4.1631656  67.1491017  63.1946620   4.8379301
  68.3590212  64.0591000   4.5538174  64.5086130  75.1864279 -11.9254774
  65.0210650  75.9807530 -11.7749209  65.1608842  74.4890570 -11.9921172
  66.3181014  78.3030036  -9.8432021  66.4947643  79.2248000 -10.0311037
  67.1137848  77.9888455  -9.4137641  70.4592033  65.1638300   1.7551913
  71.2001746  65.7645454   1.6756375  70.6909956  64.4215938   1.1969956
  65.6033371  70.3494668   0.0330143  65.4886886  69.4479925   0.3337242
  64.7477889  70.5958364  -0.3185041  72.6825209  78.2912408   1.6317643
  72.2389063  77.5048787   1.3138548  73.3442422  78.4791558   0.9661534
  67.4412330  79.8208210  -3.8421678  67.9919755  79.6925273  -4.6144684
  66.6023806  80.1203099  -4.1926785  74.7806447  78.5715208  -0.3400955
  74.7624922  79.3924089  -0.8320686  75.7026367  78.4469283  -0.1150814
  71.2379501  76.0859337   0.5022553  71.7707838  75.3247626   0.2721861
  70.7093582  75.7932989   1.2446707  74.4049196  61.1919403  -3.9683805
  74.0613465  62.0821045  -4.0444695  74.7728158  61.0021061  -4.8314220
  62.4735046  73.5152934 -11.1495203  63.3110268  73.9249942 -11.3661495
  62.6513314  72.5752376 -11.1795009  71.9546590  66.0277715 -10.4026132
  71.0988186  65.6384566 -10.5820493  72.3673541  66.1069676 -11.2626346
  73.4845736  63.5624058  -6.0034572  72.9810532  63.5254194  -6.8166767
  73.7776343  64.4716801  -5.9437915  69.7288622  63.6462788  -6.9968390
  70.5941619  63.4505597  -7.3562501  69.7966131  63.4173140  -6.0699034
  74.1585782  69.0555107 -13.6351589  73.8535917  69.3701256 -12.7841446
  75.1116224  69.1336526 -13.5924256  72.6032214  75.2145330 -11.9858635
  72.0753575  74.4798089 -12.2985398  72.1019716  75.9920006 -12.2318667
  77.5825060  73.4094350  -6.8691589  76.9248734  74.0993612  -6.7811460
  78.3865459  73.7990782  -6.5257602  76.3930518  71.7638723  -8.8187647
  76.9062400  72.3968715  -8.3165937  77.0431742  71.1639919  -9.1844287
  72.8711349  69.2388179  -6.5729306  71.9533911  69.4603126  -6.7307618
  73.2871493  69.3134489  -7.4317599  73.6546397  70.6379594 -11.4426626
  74.4018216  71.1500991 -11.7519504  73.9237987  70.3163647 -10.5822233
  76.1025234  67.6736711  -9.4607837  75.3647991  67.1614097  -9.1297594
  76.3552008  67.2337092 -10.2724560  76.2036861  60.4512963  -8.8666068
  76.5095738  59.5910326  -9.1540153  76.9289466  61.0430583  -9.0667074
  70.4757941  70.7466756  -8.3589877  70.5306551  69.7940592  -8.4347400
  69.6649143  70.9026195  -7.8748578  68.4150301  69.3643815 -10.5999498
  67.6018167  69.6637986 -10.1934306  68.9109295  68.9699504  -9.8825015
  70.5658879  79.3601572  -8.6665233  70.5235058  79.5862419  -9.5956701
  71.4821578  79.1264947  -8.5179432  74.0124513  69.8285640  -1.7684604
  74.3673901  70.0557113  -0.9090138  74.6596644  70.1604017  -2.3907349
  67.9064376  66.9362171  -4.9838263  68.5463755  66.7950930  -5.6815299
  67.0741906  66.6496684  -5.3599661  79.7691629  75.0180603  -6.0524003
  80.2028136  74.9255892  -5.2040949  80.4823210  74.9938103  -6.6903987
  68.6824680  76.2364601  -8.8703270  69.4765278  75.7414921  -9.0720695
  67.9716372  75.7082464  -9.2335565  73.5019524  78.6182697  -4.5190903
  73.5556547  79.1873633  -3.7513187  72.6334306  78.7884582  -4.8836866
  66.3817918  68.3200253  -3.0366451  67.0540971  68.1117615  -3.6853803
  65.5547704  68.1222339  -3.4761219  80.6307179  75.0604303  -3.5191118
  80.8243069  75.9650114  -3.2731843  80.5307797  74.6011722  -2.6852533
  72.2843490  64.9462194  -1.0200791  71.6371405  65.6452144  -1.1136314
  73.0544505  65.3798338  -0.6524542  75.6922288  75.2111046   2.0549763
  75.5407794  74.9821598   1.1379846  75.6826967  76.1681648   2.0681108
  72.4607624  72.7842959  -2.9603971  73.3899684  72.9354118  -3.1335004
  72.0398654  72.8726980  -3.8155324  71.2595956  76.8093623  -5.1905433
  71.1207041  76.4412408  -4.3179495  70.4710552  77.3241263  -5.3621475
  72.8101171  76.1875226  -7.8016595  72.4751004  76.1475996  -6.9058946
  72.3105117  75.5219942  -8.2746185  66.7845415  71.5942856  -2.2764014
  66.6465213  70.8623095  -1.6752475  67.6950338  71.5051756  -2.5579827
  69.4127716  71.3062815  -2.7880335  70.1227334  70.6656007  -2.8293716
  69.3697024  71.5575710  -1.8654154  77.4014494  78.2430169   0.1326245
  77.3427040  77.5589389  -0.5343172  77.8034013  78.9849159  -0.3193129
  68.1256650  68.2928033  -0.9684695  67.5894007  67.8418772  -0.3163099
  67.5373358  68.4273942  -1.7114231  66.4205193  85.0592082  -7.0740036
  66.6601791  85.6910607  -6.3961018  65.5774390  84.7080123  -6.7874677
  77.4031902  76.2069753  -1.6359776  76.5158680  75.8695674  -1.5133377
  77.9730453  75.4752784  -1.3991010  59.0561049  72.5393844  -8.3116724
  59.7432088  72.2255574  -8.8995709  58.9009177  73.4435209  -8.5849473
  63.8595771  67.4284041  -3.8831701  63.7753960  66.8209710  -4.6181291
  63.0378477  67.9193059  -3.8822204  70.9333055  80.8671205  -4.6698533
  70.8603226  81.6726176  -4.1579228  70.4910448  81.0663171  -5.4950511
  74.0319485  65.9137604  -8.5161506  74.5288184  65.1607567  -8.8360435
  73.2606466  65.9501921  -9.0818296  81.8849242  71.6177970  -6.8743214
  81.8739118  72.5002685  -7.2449281  81.0166621  71.2649521  -7.0688677
  73.3931738  80.7658039  -2.5140374  74.1059711  81.4005504  -2.5864472
  72.9021767  80.8621905  -3.3300372  75.1149265  74.6709292 -10.9423082
  74.1805544  74.7910754 -11.1118378  75.2925934  73.7681758 -11.2063072
  70.6154453  68.0554987  -8.7889821  70.2452241  67.5026028  -8.1008915
  71.1113546  67.4513121  -9.3414821  78.5021817  70.5126611 -10.4073048
  78.9682269  71.3454603 -10.4812745  78.9529317  70.0471592  -9.7027790
  68.4443652  78.5152482  -1.6934803  69.1453111  79.1488965  -1.5405409
  67.9738767  78.8567214  -2.4539164  76.4738479  62.8807198  -6.3682147
  75.5601559  63.1111425  -6.1999940  76.9031581  62.9645642  -5.5168114
  76.2444938  71.0697090  -3.8682253  75.5916388  71.3172997  -4.5229800
  76.6225318  70.2561228  -4.2019775  72.2932511  71.8116901   2.6183784
  71.6173148  71.7111030   3.2886160  73.1160145  71.6556115   3.0819782
  64.0411370  78.0488837  -4.7603700  64.6264807  77.3032525  -4.6275796
  63.8436208  78.3592794  -3.8767036  66.8950025  81.0840085  -9.7441258
  66.2260401  81.5686212 -10.2277218  66.7562895  81.3309305  -8.8297879
  58.6329025  70.6194438  -6.0399257  58.6713124  70.0858028  -5.2462139
  58.1269318  70.0929643  -6.6588280  71.0355294  83.1183828  -3.1458600
  71.5873602  83.2815450  -2.3809514  71.3761487  83.7088266  -3.8178575
  66.0119787  65.4658978  -2.5436715  66.0761114  66.3273809  -2.9559317
  65.9486907  64.8532980  -3.2764356  65.4872060  67.5382111   1.1036319
  66.1144098  67.1559188   1.7173844  64.6299978  67.3196313   1.4692012
  75.8866168  77.9445086   2.7090055  76.4306072  78.5575044   2.2145010
  75.3053013  78.5024664   3.2257068  74.1723681  81.0665804  -6.1594917
  74.0474821  80.2655544  -6.6683972  74.8302772  81.5611997  -6.6480947
  65.7931849  67.4214536  -6.9817777  65.0718435  68.0350504  -7.1210304
  66.5825105  67.9572301  -7.0601131  76.2358589  78.8674824  -4.5315367
  75.2888925  78.7480175  -4.6037041  76.5841363  77.9797322  -4.4489106
  68.5958163  64.7568963  -0.7077125  69.1192565  65.0031259   0.0549184
  68.3770496  65.5888998  -1.1273988  73.2405023  78.6627540  -8.3311015
  73.0929985  77.7344248  -8.1503445  74.0658516  78.6847631  -8.8153940
  76.8439145  79.4856099  -7.2446142  77.7685692  79.2798960  -7.3821691
  76.6754448  79.2372500  -6.3356801  69.8010708  65.6982658  -3.0227455
  69.4607528  64.8990471  -2.6206775  69.0949714  65.9984369  -3.5950622
  70.4527180  62.7831970  -4.5700132  71.2753249  62.3092449  -4.6921242
  70.6965243  63.5622454  -4.0701446  67.9765758  69.4751091  -6.7608153
  67.8310339  69.7891394  -5.8683872  67.4990962  70.0935991  -7.3137255
  69.8362141  66.4653639  -6.7127264  69.8223710  65.5694732  -7.0494966
  70.5534569  66.4724303  -6.0788978  71.6888272  66.8990979  -4.6674136
  71.4306050  67.8208050  -4.6689806  71.1573312  66.5021414  -3.9773672
  62.4511421  72.0156435  -3.8220492  61.9064889  72.7916243  -3.6900218
  63.3290771  72.3627240  -3.9801371  72.1090228  63.0322930  -8.3072974
  72.1311925  63.0962263  -9.2620994  72.5258287  62.1927438  -8.1132468
  82.4873852  72.7678189 -10.2693751  82.9304998  72.0185515 -10.6674628
  81.6100362  72.7588326 -10.6520019  63.2377443  71.1426332  -0.9290335
  62.4959179  71.2908967  -0.3425705  62.9170187  71.4034597  -1.7923586
  71.1821105  80.6842310  -1.1309945  71.4908232  80.4391457  -0.2587246
  71.9796587  80.8888948  -1.6191075  71.2041717  82.8380220  -8.9004569
  70.7646708  82.3456598  -8.2071712  71.9549834  82.2953187  -9.1412493
  63.6834056  79.0291760  -8.8979941  64.5092076  78.7295532  -9.2781297
  63.3328108  78.2599383  -8.4490152  68.6515589  78.3818229  -6.8282267
  68.0295599  77.7188934  -7.1280039  69.3220456  78.4079361  -7.5108619
  61.8842661  76.9478087  -7.9391007  61.0474570  76.5200261  -8.1207006
  61.8566307  77.1410530  -7.0020216  68.7240117  66.8600017   2.7650239
  68.7728272  67.7362140   2.3828009  69.2662631  66.3177410   2.1921882
  79.2094963  77.4041140   2.0451376  78.4190506  77.3865279   1.5055875
  78.9728317  77.9429434   2.8000413  79.3292838  74.2533606  -0.6415895
  79.3790843  74.0883614   0.2999627  79.2206761  73.3860865  -1.0318015
  76.6196600  70.2364534   0.6743411  77.5206463  70.0970999   0.3827409
  76.6944574  70.4018989   1.6141589  70.9539405  67.6131389  -0.4803402
  70.0842715  67.9064955  -0.7520814  71.1898886  68.1971834   0.2403861
  80.8311034  76.6730548  -0.3973874  80.5395843  77.0360528   0.4389587
  80.2183166  75.9597556  -0.5760542  82.0306717  74.2383428  -7.8771304
  82.8653608  74.6773232  -7.7133743  82.1665846  73.7622081  -8.6963058
  79.0798223  71.7963162  -1.9293816  79.5552344  71.9890809  -2.7374964
  78.1563788  71.8522348  -2.1750432  65.9681729  72.9587330 -12.3462738
  65.7227771  72.0549660 -12.1482527  66.1377644  72.9604480 -13.2883260
  73.6578439  63.8311006  -2.9637982  74.1760383  64.5672033  -3.2891493
  73.3033572  64.1374999  -2.1291223  73.9091033  60.2511289  -7.4437085
  74.1892787  59.5834478  -6.8176659  74.6941640  60.4440384  -7.9562422
  77.7799892  68.6728923  -3.6965510  78.7317315  68.7727020  -3.6753286
  77.6103342  67.8807191  -3.1867426  75.8014271  65.7584506  -3.5106109
  75.2064203  66.0389519  -4.2059621  75.5163968  66.2478407  -2.7389368
  80.2587969  71.8935042  -4.5823211  80.2264290  70.9551043  -4.3963527
  80.8688593  71.9719079  -5.3157386  80.4082458  68.6846086  -4.5364927
  79.8921507  67.9004542  -4.7234999  81.2922406  68.3564802  -4.3718408
  78.0693185  62.4287101  -8.5769115  77.8718006  62.1202189  -7.6925783
  78.6792890  63.1548740  -8.4471185  86.0764519  72.9551049  -5.4417174
  86.8067908  72.6936337  -4.8809470  85.4671465  72.2179771  -5.4015106
  84.1579816  71.0958912  -4.8442723  83.4312980  70.9614877  -5.4526231
  83.7427103  71.4035740  -4.0386005  71.9809993  74.8148841   2.9204650
  72.9013002  74.9927440   3.1144697  71.9459576  73.8704887   2.7684350
  61.1992158  70.0087435  -8.1542075  60.8794942  69.1552743  -8.4467701
  60.6525586  70.2236013  -7.3984108  64.9772065  72.7249876  -4.4372568
  65.1958075  73.6566984  -4.4184535  65.3897839  72.3657850  -3.6517765
  69.8499931  68.2983082   4.9530181  69.7496658  69.2477439   4.8842272
  69.6321473  67.9701321   4.0806251  61.0680418  73.6290347  -6.1848953
  60.3743889  73.2144299  -6.6978999  61.8153409  73.6710883  -6.7815534
  77.2045639  64.4196533 -11.3193919  76.6244308  65.0781337 -11.7015867
  76.9381571  63.5973878 -11.7306502  75.6549205  63.8201591  -9.1172599
  76.1548983  63.9318126  -9.9258280  76.2984813  63.5162644  -8.4771790
  69.7131201  71.7280221   3.7695242  69.2298282  72.5280581   3.9759131
  69.7992140  71.7388165   2.8162686  62.9817160  73.5608600  -8.3082938
  62.9587848  73.6596288  -9.2601055  63.2917797  74.4073751  -7.9865772
  65.6404538  75.6184755  -4.1936324  66.5947792  75.5868698  -4.2606392
  65.4417062  75.1575379  -3.3786098  66.2303920  74.1885871  -1.6265526
  67.0496809  74.6829950  -1.6030689  66.5040728  73.2717840  -1.6547959
  75.9870517  66.5796624 -12.2637571  75.0996372  66.8646274 -12.4817376
  76.4024506  66.4190387 -13.1110294  79.3385053  66.6043145  -8.5483232
  80.1145443  67.0939597  -8.2758615  78.6133187  67.0301199  -8.0911362
  81.7757611  67.3170764  -7.4909291  82.3702102  67.0766500  -8.2015983
  81.8484195  66.5977894  -6.8635755  63.9954767  81.1604375  -7.1766126
  63.8609235  80.4004776  -7.7428128  63.5786829  81.8845275  -7.6437337
  75.9611540  72.0951160 -12.0487281  75.9046742  72.5519711 -12.8879648
  76.5139883  71.3341844 -12.2264438  79.7716346  67.8840891 -11.2237161
  79.5153280  67.4837527 -10.3928954  79.1469214  68.5984685 -11.3487022
  84.0828684  70.6236965  -8.7165870  83.5228242  70.6930154  -7.9434308
  83.4772187  70.4477949  -9.4366374  67.1523893  82.0573692  -6.9647684
  67.0356277  83.0019124  -7.0668993  66.3316339  81.7547253  -6.5761884
  61.4838835  68.5224005  -0.9273329  62.1297698  68.0122959  -0.4386104
  61.2755986  69.2592687  -0.3529904  74.0092227  75.5904853   4.5718811
  74.8783386  75.7645505   4.2105446  73.5298978  76.4099270   4.4494541
  68.1778407  82.7101954  -3.7491755  69.0805654  82.7425564  -3.4325260
  67.9515777  81.7802405  -3.7345419  69.9332009  81.4632940  -7.0881676
  68.9827640  81.4634802  -7.2017304  70.2364495  80.7165675  -7.6045642
  65.8236326  65.6691622   3.1701685  66.6867787  65.3128427   3.3805009
  65.2501736  65.3305517   3.8577089  82.9594192  88.4055758  -0.1288184
  82.9482833  88.0108557  -1.0007680  83.1214831  87.6721831   0.4645588
  88.1459818  78.6741740  -3.5855119  87.8143143  79.5437151  -3.8093904
  87.5505432  78.3578024  -2.9061089  82.1129348  84.8126472   1.4373128
  81.3362682  85.3720392   1.4275993  82.7519911  85.2983255   1.9587999
  80.3675720  87.6211925   0.9991095  81.1090404  88.1596969   0.7225919
  79.6612705  88.2478214   1.1562647  82.1962130  84.7013672  -3.0303186
  83.0423325  85.1253086  -2.8868537  82.1360767  84.0447296  -2.3364623
  85.3461575  82.3618041  -1.3722013  85.1022507  83.1160101  -1.9087737
  85.6221505  82.7403388  -0.5374765  79.1037084  84.7751573   1.8006405
  78.4735744  85.4567854   2.0341802  78.9973172  84.6634655   0.8559544
  72.6819759  84.6953860  -4.8412680  72.9327797  85.5800870  -4.5755104
  73.2179307  84.5158461  -5.6137588  78.3817826  79.0772339   4.1631656
  77.9884772  78.5238538   4.8379301  79.1983967  79.3882917   4.5538174
  81.2985787  80.4930218   1.7551913  82.0395501  81.0937371   1.6756375
  81.5303710  79.7507856   1.1969956  76.4427125  85.6786585   0.0330143
  76.3280641  84.7771843   0.3337242  75.5871643  85.9250282  -0.3185041
  82.0773255  91.4151255   0.5022553  82.6101592  90.6539543   0.2721861
  81.5487336  91.1224907   1.2446707  85.2442950  76.5211321  -3.9683805
  84.9007220  77.4112963  -4.0444695  85.6121913  76.3312979  -4.8314220
  80.5682377  78.9754706  -6.9968390  81.4335373  78.7797515  -7.3562501
  80.6359885  78.7465058  -6.0699034  78.7458130  82.2654089  -4.9838263
  79.3857510  82.1242848  -5.6815299  77.9135661  81.9788602  -5.3599661
  77.2211672  83.6492171  -3.0366451  77.8934726  83.4409533  -3.6853803
  76.3941459  83.4514257  -3.4761219  83.1237244  80.2754112  -1.0200791
  82.4765159  80.9744061  -1.1136314  83.8938260  80.7090256  -0.6524542
  86.5316042  90.5402964   2.0549763  86.3801549  90.3113515   1.1379846
  86.5220722  91.4973565   2.0681108  77.6239169  86.9234774  -2.2764014
  77.4858967  86.1915012  -1.6752475  78.5344093  86.8343674  -2.5579827
  80.2521470  86.6354733  -2.7880335  80.9621089  85.9947925  -2.8293716
  80.2090778  86.8867628  -1.8654154  78.9650404  83.6219951  -0.9684695
  78.4287761  83.1710689  -0.3163099  78.3767112  83.7565860  -1.7114231
  74.6989525  82.7575959  -3.8831701  74.6147714  82.1501628  -4.6181291
  73.8772232  83.2484977  -3.8822204  83.1326265  87.1408819   2.6183784
  82.4566902  87.0402948   3.2886160  83.9553899  86.9848032   3.0819782
  69.4722779  85.9486355  -6.0399257  69.5106879  85.4149946  -5.2462139
  68.9663072  85.4221561  -6.6588280  76.8513542  80.7950896  -2.5436715
  76.9154868  81.6565727  -2.9559317  76.7880662  80.1824898  -3.2764356
  76.3265814  82.8674028   1.1036319  76.9537853  82.4851106   1.7173844
  75.4693733  82.6488230   1.4692012  79.4351917  80.0860881  -0.7077125
  79.9586319  80.3323177   0.0549184  79.2164251  80.9180915  -1.1273988
  80.6404462  81.0274576  -3.0227455  80.3001283  80.2282389  -2.6206775
  79.9343469  81.3276287  -3.5950622  81.2920934  78.1123888  -4.5700132
  82.1147004  77.6384366  -4.6921242  81.5358998  78.8914372  -4.0701446
  82.5282027  82.2282897  -4.6674136  82.2699804  83.1499968  -4.6689806
  81.9967067  81.8313331  -3.9773672  73.2905175  87.3448353  -3.8220492
  72.7458643  88.1208161  -3.6900218  74.1684525  87.6919158  -3.9801371
  74.0771197  86.4718249  -0.9290335  73.3352933  86.6200885  -0.3425705
  73.7563941  86.7326515  -1.7923586  79.5633871  82.1891934   2.7650239
  79.6122027  83.0654057   2.3828009  80.1056386  81.6469327   2.1921882
  87.4590354  85.5656452   0.6743411  88.3600217  85.4262917   0.3827409
  87.5338329  85.7310907   1.6141589  81.7933160  82.9423307  -0.4803402
  80.9236469  83.2356873  -0.7520814  82.0292640  83.5263752   0.2403861
  84.4972194  79.1602924  -2.9637982  85.0154137  79.8963951  -3.2891493
  84.1427326  79.4666917  -2.1291223  86.6408026  81.0876423  -3.5106109
  86.0457958  81.3681436  -4.2059621  86.3557722  81.5770324  -2.7389368
  82.8203747  90.1440759   2.9204650  83.7406757  90.3219358   3.1144697
  82.7853330  89.1996804   2.7684350  80.6893685  83.6274999   4.9530181
  80.5890412  84.5769356   4.8842272  80.4715227  83.2993238   4.0806251
  80.5524955  87.0572138   3.7695242  80.0692037  87.8572498   3.9759131
  80.6385894  87.0680083   2.8162686  77.0697675  89.5177789  -1.6265526
  77.8890564  90.0121868  -1.6030689  77.3434483  88.6009757  -1.6547959
  72.3232589  83.8515923  -0.9273329  72.9691453  83.3414877  -0.4386104
  72.1149740  84.5884605  -0.3529904  84.8485981  90.9196770   4.5718811
  85.7177141  91.0937423   4.2105446  84.3692733  91.7391187   4.4494541
  76.6630080  80.9983540   3.1701685  77.5261542  80.6420345   3.3805009
  76.0895491  80.6597435   3.8577089  82.9594193  65.4117881 -13.4042877
  82.9482834  65.0170679 -14.2762374  83.1214833  64.6783954 -12.8109106
  82.1129349  61.8188594 -11.8381565  81.3362683  62.3782514 -11.8478700
  82.7519912  62.3045377 -11.3166695  80.3675721  64.6274048 -12.2763598
  81.1090406  65.1659092 -12.5528774  79.6612707  65.2540336 -12.1192046
  82.0773257  68.4213378 -12.7732140  82.6101593  67.6601666 -13.0032832
  81.5487338  68.1287029 -12.0307986  86.5316043  67.5465086 -11.2204931
  86.3801550  67.3175638 -12.1374847  86.5220723  68.5035688 -11.2073586
  83.1326267  64.1470941 -10.6570909  82.4566904  64.0465071  -9.9868534
  83.9553901  63.9910155 -10.1934912  87.4590356  62.5718575 -12.6011282
  88.3600218  62.4325039 -12.8927284  87.5338330  62.7373029 -11.6613105
  82.8203749  67.1502882 -10.3550043  83.7406758  67.3281481 -10.1609996
  82.7853332  66.2058927 -10.5070344  80.6893686  60.6337122  -8.3224513
  80.5890413  61.5831479  -8.3912422  80.4715228  60.3055361  -9.1948443
  80.5524956  64.0634261  -9.5059451  80.0692038  64.8634621  -9.2995562
  80.6385896  64.0742206 -10.4592007  84.8485983  67.9258893  -8.7035882
  85.7177142  68.0999545  -9.0649247  84.3692734  68.7453310  -8.8260153
   3.9084356 123.2849964  58.3323736   4.6409528 122.7149181  58.5661566
   3.1523712 122.8971565  58.7730242   1.4309776 116.9971538  62.7918345
   1.0993101 117.8666949  62.5679560   0.8355390 116.6807822  63.4712375
   1.3238440 121.7166625  59.8711695   0.4155317 121.6482033  59.5770456
   1.2726035 122.1938570  60.6993520   3.1900086 119.9183063  61.6489569
   2.5474466 120.2115596  61.0029363   2.6855015 119.8035983  62.4542765
   0.3280574 114.1034679  57.5107396   0.6339451 113.2432042  57.2233311
   1.0533179 114.6952299  57.3106390   1.9043604 122.3250639  62.6807953
   2.8561027 122.4248737  62.7020178   1.7347054 121.5328907  63.1906038
   4.5326170 122.3367802  61.8408536   4.0165219 121.5526259  61.6538465
   5.4166119 122.0086519  62.0055056   2.1936897 116.0808818  57.8004349
   1.9961718 115.7723906  58.6847681   2.8036603 116.8070456  57.9302279
   8.2823529 124.7480628  61.5330741   7.5556692 124.6136593  60.9247233
   7.8670816 125.0557457  62.3387459   1.3289351 118.0718250  55.0579545
   0.7488020 118.7303054  54.6757597   1.0625284 117.2495594  54.6466962
   3.4628765 120.2564861  57.8290232   4.2389155 120.7461313  58.1014849
   2.7376899 120.6822915  58.2862102   5.9001324 120.9692480  58.8864173
   6.4945814 120.7288216  58.1757481   5.9727907 120.2499611  59.5137709
   3.8960059 121.5362608  55.1536303   3.6396993 121.1359243  55.9844510
   3.2712927 122.2506402  55.0286442   8.2072396 124.2758681  57.6607594
   7.6471954 124.3451870  58.4339156   7.6015900 124.0999666  56.9407090
   3.9084357 100.2912087  45.0569043   4.6409529  99.7211304  45.2906872
   3.1523713  99.9033687  45.4975548   1.4309778  94.0033661  49.5163651
   1.0993102  94.8729072  49.2924866   0.8355391  93.6869945  50.1957682
   1.3238441  98.7228747  46.5957001   0.4155318  98.6544156  46.3015762
   1.2726037  99.2000692  47.4238827   3.1900087  96.9245186  48.3734875
   2.5474468  97.2177719  47.7274670   2.6855016  96.8098106  49.1788072
   0.8440251 100.6708359  39.0620735   1.7558107 100.9035746  38.8868432
   0.3349898 101.2545403  38.4995813   3.3299065 106.5888615  43.8078680
   2.6450103 106.9687516  43.2575713   3.4142914 107.1983942  44.5410628
   0.5849997 104.2348574  50.4074023   0.7966892 104.8780334  49.7308404
   0.5379745 103.4010891  49.9395953   1.6995825 107.1120530  48.5796381
   2.5213268 106.7100717  48.2979062   1.6958228 107.0088764  49.5312497
   9.7901818 103.4559278  44.9281352   9.0365526 102.8866676  44.7725357
   9.9249359 103.4221943  45.8751987   3.4677466 104.5944208  39.5760574
   2.6906909 104.2555367  39.1315736   4.1468947 104.5996831  38.9015539
   1.7068773 104.0678189  46.2327182   1.0492448 104.7577451  46.3207310
   2.5109172 104.4574621  46.5761168   0.5174232 102.4222562  44.2831123
   1.0306114 103.0552554  44.7852833   1.1675456 101.8223757  43.9174483
   1.2836028 107.4028563  42.4110266   0.8298355 106.5619473  42.4675456
   0.6529995 108.0389962  42.7485046   0.3280575  91.1096801  44.2352703
   0.6339452  90.2494165  43.9478618   1.0533180  91.7014422  44.0351697
   3.8665963 103.6087915  42.0383496   3.7283862 103.7989511  41.1104685
   3.5102182 104.3707297  42.4951547   3.8935343 105.6764442  47.0494767
   4.3271850 105.5839731  47.8977821   4.6066924 105.6521942  46.4114783
   4.7550892 105.7188142  49.5827652   4.9486783 106.6233953  49.8286927
   4.6551511 105.2595561  50.4166238   1.5258208 108.9014008  53.2345015
   1.4670754 108.2173228  52.5675598   1.9277726 109.6432998  52.7825641
   1.5275615 106.8653591  51.4658995   0.6402394 106.5279513  51.5885394
   2.0974166 106.1336623  51.7027760   6.0092956 102.2761809  46.2275556
   5.9982832 103.1586524  45.8569489   5.1410335 101.9233360  46.0330093
   2.6265530 101.1710450  42.6945722   3.0925982 102.0038441  42.6206025
   3.0773031 100.7055431  43.3990981   0.9682858 110.1439938  45.8572628
   1.8929406 109.9382799  45.7197079   0.7998162 109.8956339  46.7661969
   0.7578174 110.6625605  41.2134719   0.9315052 110.0972028  40.4608572
   1.2507066 111.4626500  41.0314209   6.6117566 103.4262028  42.8325019
   7.0548712 102.6769353  42.4344142   5.7344076 103.4172165  42.4498751
   1.7453347 109.9792370  38.3131618   2.4404252 110.5999062  38.5318932
   2.0876497 109.1287721  38.5883996   3.6444770 107.4292075  39.8418948
   4.1696094 107.7679348  39.1168269   3.5567123 106.4939091  39.6582083
   3.3338676 108.0624979  55.1470146   2.5434220 108.0449118  54.6074646
   3.0972031 108.6013273  55.9019183   3.4536551 104.9117445  52.4602875
   3.5034556 104.7467453  53.4018398   3.3450474 104.0444704  52.0700756
   0.7440314 100.8948373  53.7762182   1.6450176 100.7554838  53.4846179
   0.8188288 101.0602828  54.7160359   4.9554748 107.3314387  52.7044897
   4.6639556 107.6944367  53.5408357   4.3426879 106.6181395  52.5258229
   6.1550430 104.8967267  45.2247467   6.9897322 105.3357071  45.3885027
   6.2909559 104.4205920  44.4055713   3.2041936 102.4547001  51.1724955
   3.6796058 102.6474648  50.3643806   2.2807502 102.5106187  50.9268338
   1.9043605  99.3312761  49.4053260   2.8561028  99.4310859  49.4265484
   1.7347056  98.5391030  49.9151344   1.6853492 109.6857142  35.3119241
   1.6067123 109.3517005  36.2054999   2.5063159 110.1778910  35.3110713
   4.3831683 102.5518881  48.5195560   4.3508003 101.6134882  48.7055244
   4.9932307 102.6302918  47.7861385   4.5326171  99.3429925  48.5653843
   4.0165220  98.5588381  48.3783772   5.4166120  99.0148641  48.7300362
   2.1936898  93.0870940  44.5249656   1.9961720  92.7786028  45.4092988
   2.8036604  93.8132579  44.6547585  10.2008233 103.6134888  47.6601597
  10.9311621 103.3520176  48.2209300   9.5915178 102.8763610  47.7003665
   8.2823530 101.7542751  48.2576048   7.5556694 101.6198716  47.6492539
   7.8670817 102.0619579  49.0632766   1.3289352  95.0780372  41.7824851
   0.7488021  95.7365176  41.4002904   1.0625285  94.2557717  41.3712269
   3.4628766  97.2626984  44.5535539   4.2389156  97.7523436  44.8260156
   2.7376900  97.6885038  45.0107408   5.9001325  97.9754603  45.6109479
   6.4945816  97.7350339  44.9002788   5.9727909  97.2561733  46.2383016
   3.8960060  98.5424730  41.8781609   3.6396994  98.1421366  42.7089817
   3.2712928  99.2568524  41.7531748   8.2072398 101.2820804  44.3852901
   7.6471956 101.3513993  45.1584463   7.6015901 101.1061788  43.6652397
   1.1644141 107.4407666  36.9827680   1.9989745 107.0088865  36.8005154
   1.0028484 107.2689680  37.9104574   9.7928416 117.9577318  47.0782856
  10.4306826 117.8384065  46.3746196   9.6749259 118.9058162  47.1370808
   6.6018122 117.9104746  47.0144381   6.2636634 117.7945810  46.1264916
   7.4707891 117.5095911  46.9945387   2.4604938 119.7640222  43.0041272
   1.8969803 119.6730159  42.2357560   2.3457333 118.9440127  43.4843764
   7.0837905 119.0639597  52.9730586   7.0726546 118.6692396  52.1011090
   7.2458545 118.3305670  53.5664358   3.8045166 121.8476709  51.9209770
   3.5135032 122.7522340  51.8056437   4.4402151 121.8893237  52.6353840
   4.7301373 119.2253558  48.5111130   5.3264946 119.0009580  47.7968093
   4.7876345 118.4838303  49.1136578   9.3469685 115.6828771  44.1536064
  10.1332774 115.2648195  43.8026481   9.6108389 116.5874864  44.3217713
   9.5179762 121.1201622  38.8524721   8.8825595 121.1936248  39.5645626
   9.1877168 121.7095221  38.1743800  14.7478112 115.6204005  45.0569043
  15.4803284 115.0503221  45.2906872  13.9917467 115.2325605  45.4975548
   4.0222690 118.5821099  38.5485696   3.9058949 117.9066002  39.2166780
   4.1324950 118.0953473  37.7317849   6.3654231 118.0431246  42.2532385
   6.0012439 117.5161867  42.9645307   7.2221347 117.6529715  42.0798871
  12.2703532 109.3325579  49.5163651  11.9386857 110.2020990  49.2924866
  11.6749145 109.0161863  50.1957682   6.0059718 113.0721146  37.2493734
   6.1734121 113.9401382  37.6164205   5.8156887 113.2348428  36.3255023
   8.7635052 121.5338125  48.9159564   8.4635775 122.4363164  48.8075371
   8.4186111 121.2670308  49.7680717   2.2147533 117.9851922  44.9496269
   1.2898030 117.8528136  45.1573960   2.4631946 118.7646141  45.4466211
  12.1632195 114.0520665  46.5957001  11.2549073 113.9836073  46.3015762
  12.1119791 114.5292610  47.4238827   5.9848939 115.5278803  38.2340401
   5.8648564 115.9735854  39.0725881   5.2901528 115.8764121  37.6753939
   6.2373061 115.4710310  54.5391899   5.4606395 116.0304231  54.5294763
   6.8763624 115.9567093  55.0606769  14.0293842 112.2537103  48.3734875
  13.3868222 112.5469636  47.7274670  13.5248770 112.1390024  49.1788072
  11.6834005 116.0000277  39.0620735  12.5951862 116.2327663  38.8868432
  11.1743652 116.5837321  38.4995813   4.4919433 118.2795764  54.1009866
   5.2334118 118.8180808  53.8244689   3.7856419 118.9062053  54.2581418
   9.9674773 120.4224904  52.6982027  10.3758129 119.9807315  51.9536660
   9.2452035 119.8477532  52.9516220   6.3205843 115.3597511  50.0715584
   7.1667038 115.7836925  50.2150233   6.2604481 114.7031135  50.7654147
  10.2903588 120.9826095  46.4534316   9.6612450 121.1471809  45.7510384
   9.9029250 121.3967705  47.2245280  14.1692820 121.9180533  43.8078680
  13.4843858 122.2979434  43.2575713  14.2536669 122.5275859  44.5410628
   9.4705288 113.0201879  51.7296758   9.2266220 113.7743940  51.1931034
   9.7465219 113.3987227  52.5644005  11.4243751 119.5640492  50.4074023
  11.6360646 120.2072252  49.7308404  11.3773499 118.7302808  49.9395953
   9.0269980 112.1758312  47.3110596   8.1654459 112.4739566  47.6027333
   9.0532415 112.3928711  46.3791628   5.8431550 120.7200503  43.7184401
   6.3069895 120.9988206  42.9289024   5.5788348 119.8183948  43.5357492
   2.7355631 120.2671985  46.6564164   3.3056988 120.6959253  46.0181649
   3.3263743 119.9854569  47.3548350   4.7800436 116.8423655  40.5273966
   5.4824479 117.2944699  40.9947893   4.4481064 116.2007474  41.1553859
   3.2280797 115.4335412  54.9025176   2.5979458 116.1151693  55.1360573
   3.1216885 115.3218494  53.9578314  12.5389579 122.4412447  48.5796381
  13.3607023 122.0392635  48.2979062  12.5351982 122.3380681  49.5312497
   6.3046183 121.9896491  50.7357091   6.3690615 122.4516898  51.5715263
   5.5957107 121.3593855  50.8639401  20.6295572 118.7851196  44.9281352
  19.8759281 118.2158594  44.7725357  20.7643113 118.7513860  45.8751987
   6.0194200 123.6564598  40.6036072   5.8839875 124.5016134  41.0320919
   6.5604013 123.8583876  39.8402005   2.5061540 109.7356178  57.2650427
   2.1128485 109.1822376  57.9398071   3.3227680 110.0466756  57.6556944
   5.4229501 111.1514057  54.8570683   6.1639214 111.7521210  54.7775146
   5.6547424 110.4091695  54.2988726   7.6462677 124.2788165  54.7336414
   7.2026531 123.4924543  54.4157318   8.3079890 124.4667315  54.0680304
   9.7443915 124.5590964  52.7617815   9.7262390 125.3799846  52.2698084
  10.6663835 124.4345040  52.9867956   6.2016969 122.0735094  53.6041323
   6.7345306 121.3123382  53.3740631   5.6731050 121.7808746  54.3465478
   9.3686664 107.1795160  49.1334965   9.0250933 108.0696802  49.0574076
   9.7365626 106.9896818  48.2704550   9.3336947 117.1703771  37.6407400
   8.8183570 117.9408376  37.8795788   9.0614255 116.4968907  38.2640462
   6.9184058 112.0153472  42.6992639   6.0625654 111.6260322  42.5198277
   7.3311009 112.0945433  41.8392424   8.4483204 109.5499815  47.0984198
   7.9448000 109.5129950  46.2852004   8.7413811 110.4592558  47.1580855
   4.6926090 109.6338545  46.1050380   5.5579087 109.4381353  45.7456269
   4.7603599 109.4048897  47.0319737  14.3071221 119.9236126  39.5760574
  13.5300663 119.5847285  39.1315736  14.9862702 119.9288749  38.9015539
   9.1223250 115.0430863  39.4667181   8.8173385 115.3577012  40.3177325
  10.0753692 115.1212283  39.5094514   7.5669682 121.2021086  41.1160135
   7.0391043 120.4673846  40.8033373   7.0657184 121.9795763  40.8700104
  12.5462528 119.3970107  46.2327182  11.8886202 120.0869368  46.3207310
  13.3502927 119.7866539  46.5761168   2.2988409 111.8640753  43.4766747
   2.8732161 111.6415934  42.7439940   2.8859392 111.9329447  44.2295348
  11.3567986 117.7514480  44.2831123  11.8699868 118.3844471  44.7852833
  12.0069210 117.1515675  43.9174483   2.6257996 113.8945214  37.4962632
   1.7895309 114.2319900  37.8171907   2.4862766 113.7594194  36.5589769
   4.6011077 108.7382002  42.2041816   3.9475489 108.4231019  41.5798431
   4.5591551 108.1157742  42.9301639   7.8348817 115.2263935  46.5289464
   6.9171379 115.4478882  46.3711152   8.2508961 115.3010246  45.6701171
   8.6183865 116.6255351  41.6592144   9.3655684 117.1376748  41.3499266
   8.8875455 116.3039404  42.5196538   6.8910515 119.1213892  38.6419098
   5.9821734 118.8372924  38.7391568   6.9205599 119.5412970  37.7822405
  12.1229783 122.7320481  42.4110266  11.6692110 121.8911391  42.4675456
  11.4923749 123.3681879  42.7485046  11.0662702 113.6612467  43.6410933
  10.3285459 113.1489853  43.9721176  11.3189476 113.2212849  42.8294210
  10.5662722 124.5696978  43.3460084  10.8585696 125.1302035  42.6272450
  11.0761342 124.8625539  44.1013243  11.1674329 106.4388719  44.2352703
  11.4733206 105.5786083  43.9478618  11.8926934 107.0306339  44.0351697
   5.4395409 116.7342512  44.7428894   5.4944019 115.7816349  44.6671370
   4.6286611 116.8901951  45.2270192   3.3787769 115.3519572  42.5019273
   2.5655635 115.6513742  42.9084465   3.8746763 114.9575261  43.2193755
   8.9761981 115.8161396  51.3334167   9.3311369 116.0432870  52.1928632
   9.6234112 116.1479773  50.7111422  14.7059718 118.9379832  42.0383496
  14.5677616 119.1281428  41.1104685  14.3495937 119.6999215  42.4951547
   2.8701844 112.9237927  48.1180508   3.5101223 112.7826687  47.4203471
   2.0379374 112.6372441  47.7419110  14.7329097 121.0056359  47.0494767
  15.1665604 120.9131648  47.8977821  15.4460678 120.9813860  46.4114783
   3.6462148 122.2240358  44.2315500   4.4402746 121.7290678  44.0298075
   2.9353840 121.6958221  43.8683206   8.4656992 124.6058453  48.5827868
   8.5194015 125.1749390  49.3505584   7.5971774 124.7760338  48.2181905
   1.3455386 114.3076010  50.0652319   2.0178439 114.0993372  49.4164968
   0.5185172 114.1098096  49.6257551  15.5944647 121.0480060  49.5827652
  15.7880537 121.9525870  49.8286927  15.4945265 120.5887479  50.4166238
   7.2480958 110.9337951  52.0817980   6.6008873 111.6327900  51.9882456
   8.0181973 111.3674094  52.4494228  10.6559756 121.1986803  55.1568533
  10.5045262 120.9697354  54.2398617  10.6464435 122.1557404  55.1699878
   7.4245092 118.7718715  50.1414800   8.3537152 118.9229875  49.9683767
   7.0036122 118.8602736  49.2863446   6.2233424 122.7969380  47.9113337
   6.0844510 122.4288164  48.7839275   5.4348020 123.3117019  47.7397295
   7.7738639 122.1750983  45.3002175   7.4388472 122.1351753  46.1959825
   7.2742585 121.5095698  44.8272585   1.7482883 117.5818613  50.8254756
   1.6102681 116.8498851  51.4266295   2.6587806 117.4927513  50.5438944
  10.7097831 119.5207017  35.5739235  10.0927001 118.7953845  35.4772287
  10.2414319 120.2816377  35.2306309   4.3765184 117.2938572  50.3138436
   5.0864802 116.6531764  50.2725054   4.3334492 117.5451467  51.2364617
  12.3651962 124.2305925  53.2345015  12.3064508 123.5465145  52.5675598
  12.7671481 124.9724915  52.7825641   3.0894118 114.2803790  52.1334075
   2.5531475 113.8294528  52.7855672   2.5010826 114.4149699  51.3904540
  12.3669370 122.1945509  51.4658995  11.4796148 121.8571431  51.5885394
  12.9367921 121.4628540  51.7027760   8.9956953 111.9013361  44.5857265
   9.4925652 111.1483323  44.2658335   8.2243934 111.9377678  44.0200474
  16.8486710 117.6053727  46.2275556  16.8376586 118.4878442  45.8569489
  15.9804090 117.2525277  46.0330093  10.0786733 120.6585048  42.1595688
   9.1443012 120.7786511  41.9900393  10.2563402 119.7557515  41.8955698
   5.5791921 114.0430744  44.3128949   5.2089709 113.4901784  45.0009855
   6.0751014 113.4388877  43.7603949  13.4659285 116.5002368  42.6945722
  13.9319737 117.3330359  42.6206025  13.9166785 116.0347349  43.3990981
  11.5335516 122.8446189  39.6931874  11.8095360 122.7302783  40.6025748
  10.6640015 122.4463674  39.6544047  11.4375947 108.8682954  46.7336624
  10.5239027 109.0987181  46.9018831  11.8669049 108.9521399  47.5850656
  11.2082406 117.0572846  49.2336518  10.5553856 117.3048754  48.5788970
  11.5862786 116.2436985  48.8998995   7.2569979 117.7992658  55.7202555
   6.5810616 117.6986787  56.3904930   8.0797613 117.6431871  56.1838552
   0.9757255 111.4534735  50.5582055   1.0398582 112.3149566  50.1459453
   0.9124375 110.8408736  49.8254414  10.8503636 123.9320842  55.8108825
  11.3943540 124.5450801  55.3163780  10.2690481 124.4900421  56.3275838
  11.1996058 124.8550581  48.5703403  10.2526393 124.7355932  48.4981730
  11.5478831 123.9673079  48.6529664   3.5595631 110.7444719  52.3941645
   4.0830033 110.9907016  53.1567954   3.3407964 111.5764754  51.9744782
   8.2042491 124.6503297  44.7707755   8.0567453 123.7220004  44.9515325
   9.0295984 124.6723388  44.2864830   2.0704735 113.3021364  40.6288247
   2.4100808 113.8307285  39.9066856   2.5176856 113.6401770  41.4046814
  11.8076613 125.4731856  45.8572628  12.7323160 125.2674717  45.7197079
  11.6391916 125.2248257  46.7661969   4.7648176 111.6858415  50.0791315
   4.4244996 110.8866228  50.4811995   4.0587182 111.9860125  49.5068149
   5.4164648 108.7707727  48.5318638   6.2390717 108.2968205  48.4097529
   5.6602711 109.5498211  49.0317325   4.0572882 111.7995985  38.8281540
   4.7781245 112.1777238  38.3245257   3.4338186 112.5184862  38.9316518
   8.2004005 112.5041134  39.7639872   8.4167620 113.3865772  39.4628701
   7.7198072 112.1127348  39.0345514   2.9403227 115.4626848  46.3410617
   2.7947807 115.7767151  47.2334899   2.4628430 116.0811748  45.7881516
   4.7999609 112.4529396  46.3891507   4.7861178 111.5570489  46.0523805
   5.5172038 112.4600059  47.0229793   6.6525740 112.8866736  48.4344634
   6.3943518 113.8083807  48.4328964   6.1210780 112.4897170  49.1245098
  11.5971929 125.9917523  41.2134719  11.7708806 125.4263945  40.4608572
  12.0900820 126.7918418  41.0314209   4.2036505 111.3343776  41.6579077
   4.3252417 110.4060422  41.8569964   3.9138548 111.3482462  40.7457392
   7.0727696 109.0198686  44.7945797   7.0949393 109.0838019  43.8397776
   7.4895755 108.1803195  44.9886303  17.4511320 118.7553946  42.8325019
  17.8942466 118.0061271  42.4344142  16.5737830 118.7464082  42.4498751
  12.5847101 125.3084287  38.3131618  13.2798006 125.9290980  38.5318932
  12.9270252 124.4579639  38.5883996  14.4838524 122.7583993  39.8418948
  15.0089849 123.0971266  39.1168269  14.3960877 121.8231008  39.6582083
   3.6877585 112.8475773  55.8669009   3.7365740 113.7237896  55.4846779
   4.2300099 112.3053166  55.2940653  14.1732431 123.3916897  55.1470146
  13.3827974 123.3741035  54.6074646  13.9365785 123.9305190  55.9019183
  14.2930306 120.2409363  52.4602875  14.3428311 120.0759370  53.4018398
  14.1844229 119.3736622  52.0700756  11.5834068 116.2240291  53.7762182
  12.4843931 116.0846756  53.4846179  11.6582043 116.3894746  54.7160359
   5.9176873 113.6007146  52.6215368   5.0480183 113.8940712  52.3497957
   6.1536354 114.1847591  53.3422632  15.7948502 122.6606304  52.7044897
  15.5033311 123.0236285  53.5408357  15.1820634 121.9473313  52.5258229
  16.9944185 120.2259184  45.2247467  17.8291076 120.6648988  45.3885027
  17.1303314 119.7497837  44.4055713  14.0435691 117.7838919  51.1724955
  14.5189812 117.9766565  50.3643806  13.1201256 117.8398105  50.9268338
   8.6215907 109.8186763  50.1380788   9.1397851 110.5547790  49.8127277
   8.2671040 110.1250756  50.9727548   8.8728501 106.2387045  45.6581685
   9.1530255 105.5710234  46.2842112   9.6579108 106.4316141  45.1456349
  12.7437360 114.6604679  49.4053260  13.6954783 114.7602777  49.4265484
  12.5740810 113.8682948  49.9151344  10.7651739 111.7460262  49.5912661
  10.1701671 112.0265275  48.8959150  10.4801436 112.2354163  50.3629402
  12.5247246 125.0149060  35.3119241  12.4460878 124.6808923  36.2054999
  13.3456913 125.5070827  35.3110713  15.2225437 117.8810799  48.5195560
  15.1901758 116.9426800  48.7055244  15.8326061 117.9594836  47.7861385
   7.0608768 116.7506852  34.5622764   8.0067873 116.6213060  34.6311182
   6.6823013 116.0121514  35.0392192  15.3719926 114.6721842  48.5653843
  14.8558975 113.8880299  48.3783772  16.2559874 114.3440559  48.7300362
  13.0330653 108.4162858  44.5249656  12.8355474 108.1077946  45.4092988
  13.6430358 109.1424497  44.6547585  21.0401987 118.9426806  47.6601597
  21.7705376 118.6812094  48.2209300  20.4308933 118.2055528  47.7003665
  19.1217284 117.0834668  48.2576048  18.3950448 116.9490633  47.6492539
  18.7064571 117.3911497  49.0632766   6.9447461 120.8024598  56.0223421
   7.8650470 120.9803197  56.2163467   6.9097044 119.8580643  55.8703120
   6.8613751 109.2193718  40.6521890   6.0514480 108.8740803  41.0277136
   7.5498168 108.9101262  41.2409502   8.7904299 108.2971765  42.2746187
   9.3435338 108.7167218  42.9336210   9.0274386 107.3707513  42.3169143
   4.8137399 114.2858838  58.0548951   4.7134126 115.2353195  57.9861042
   4.5958941 113.9577077  57.1825021   4.0150470 111.5343763  34.6389628
   4.8769634 111.8598662  34.8985446   4.2000814 110.7475259  34.1262694
  12.1683107 110.4072290  41.7824851  11.5881776 111.0657094  41.4002904
  11.9019039 109.5849634  41.3712269  10.6186673 109.8077348  43.9846172
  11.1186451 109.9193882  43.1760490  11.2622281 109.5038400  44.6246980
   4.6768669 117.7155977  56.8714013   4.1935750 118.5156337  57.0777902
   4.7629608 117.7263922  55.9181457   0.6042006 121.6060512  48.9082446
   1.5585260 121.5744454  48.8412378   0.4054530 121.1451136  49.7232672
   1.1941388 120.1761628  51.4753244   2.0134277 120.6705707  51.4988081
   1.4678196 119.2593596  51.4470811  10.9507985 112.5672380  40.8381199
  10.0633840 112.8522031  40.6201394  11.3661974 112.4066144  39.9908476
  14.3022521 112.5918901  44.5535539  15.0782911 113.0815354  44.8260156
  13.5770655 113.0176955  45.0107408  16.7395079 113.3046520  45.6109479
  17.3339570 113.0642256  44.9002788  16.8121663 112.5853651  46.2383016
  10.9249008 118.0826916  41.0531490  10.8684210 118.5395468  40.2139122
  11.4777351 117.3217601  40.8754332  14.7353814 113.8716648  41.8781609
  14.4790748 113.4713284  42.7089817  14.1106682 114.5860442  41.7531748
  19.0466152 116.6112721  44.3852901  18.4865710 116.6805911  45.1584463
  18.4409655 116.4353706  43.6652397  12.0037895 122.7699584  36.9827680
  12.8383499 122.3380783  36.8005154  11.8422238 122.5981598  37.9104574
  11.6583788 119.2731697  38.3484019  11.6032591 119.1075969  37.4072463
  11.0329843 119.9807730  38.5046209   8.9729695 121.5780609  57.6737582
   9.8420854 121.7521262  57.3124217   8.4936446 122.3975026  57.5513311
   4.9679913 108.7739806  37.9269337   4.9558583 109.7181646  38.0837608
   5.8603335 108.5909952  37.6328798   8.7832033 105.3682583  42.1815274
   8.0164428 104.8141070  42.3271956   9.1942738 105.4404452  43.0429426
  25.5871866 130.9495922  45.0569043  26.3197038 130.3795139  45.2906872
  24.8311222 130.5617523  45.4975548  23.1097287 124.6617496  49.5163651
  22.7780611 125.5312907  49.2924866  22.5142900 124.3453780  50.1957682
  23.0025950 129.3812583  46.5957001  22.0942827 129.3127991  46.3015762
  22.9513546 129.8584528  47.4238827  24.8687596 127.5829021  48.3734875
  24.2261976 127.8761554  47.7274670  24.3642525 127.4681941  49.1788072
  20.3099043 128.3493797  51.7296758  20.0659975 129.1035858  51.1931034
  20.5858973 128.7279145  52.5644005  19.8663735 127.5050230  47.3110596
  19.0048214 127.8031484  47.6027333  19.8926169 127.7220629  46.3791628
  13.3455294 125.0648096  57.2650427  12.9522240 124.5114294  57.9398071
  14.1621435 125.3758674  57.6556944  16.2623255 126.4805975  54.8570683
  17.0032969 127.0813128  54.7775146  16.4941178 125.7383612  54.2988726
  20.2080418 122.5087078  49.1334965  19.8644688 123.3988719  49.0574076
  20.5759381 122.3188735  48.2704550  17.7577812 127.3445389  42.6992639
  16.9019408 126.9552240  42.5198277  18.1704764 127.4237350  41.8392424
  19.2876959 124.8791733  47.0984198  18.7841754 124.8421868  46.2852004
  19.5807566 125.7884475  47.1580855  15.5319845 124.9630462  46.1050380
  16.3972841 124.7673271  45.7456269  15.5997354 124.7340814  47.0319737
  13.1382164 127.1932670  43.4766747  13.7125916 126.9707852  42.7439940
  13.7253146 127.2621365  44.2295348  15.4404831 124.0673919  42.2041816
  14.7869244 123.7522936  41.5798431  15.3985306 123.4449660  42.9301639
  21.9056457 128.9904385  43.6410933  21.1679213 128.4781771  43.9721176
  22.1583230 128.5504766  42.8294210  22.0068084 121.7680637  44.2352703
  22.3126961 120.9078000  43.9478618  22.7320689 122.3598257  44.0351697
  18.0874712 126.2629868  52.0817980  17.4402627 126.9619818  51.9882456
  18.8575728 126.6966012  52.4494228  19.8350707 127.2305279  44.5857265
  20.3319407 126.4775241  44.2658335  19.0637689 127.2669595  44.0200474
  22.2769702 124.1974872  46.7336624  21.3632782 124.4279099  46.9018831
  22.7062803 124.2813316  47.5850656  14.3989385 126.0736637  52.3941645
  14.9223787 126.3198934  53.1567954  14.1801719 126.9056672  51.9744782
  15.6041930 127.0150332  50.0791315  15.2638751 126.2158145  50.4811995
  14.8980937 127.3152043  49.5068149  16.2558402 124.0999645  48.5318638
  17.0784472 123.6260123  48.4097529  16.4996466 124.8790128  49.0317325
  19.0397760 127.8333052  39.7639872  19.2561374 128.7157690  39.4628701
  18.5591827 127.4419266  39.0345514  15.6393364 127.7821313  46.3891507
  15.6254933 126.8862407  46.0523805  16.3565792 127.7891977  47.0229793
  15.0430260 126.6635694  41.6579077  15.1646171 125.7352340  41.8569964
  14.7532302 126.6774380  40.7457392  17.9121450 124.3490604  44.7945797
  17.9343147 124.4129937  43.8397776  18.3289509 123.5095113  44.9886303
  19.4609662 125.1478680  50.1380788  19.9791606 125.8839707  49.8127277
  19.1064794 125.4542674  50.9727548  19.7122256 121.5678963  45.6581685
  19.9924010 120.9002152  46.2842112  20.4972863 121.7608058  45.1456349
  23.5831114 129.9896597  49.4053260  24.5348537 130.0894694  49.4265484
  23.4134565 129.1974865  49.9151344  21.6045494 127.0752180  49.5912661
  21.0095426 127.3557193  48.8959150  21.3195190 127.5646081  50.3629402
  26.2113680 130.0013760  48.5653843  25.6952729 129.2172217  48.3783772
  27.0953629 129.6732477  48.7300362  23.8724407 123.7454776  44.5249656
  23.6749228 123.4369864  45.4092988  24.4824113 124.4716414  44.6547585
  29.9611039 132.4126586  48.2576048  29.2344203 132.2782551  47.6492539
  29.5458326 132.7203415  49.0632766  17.7007506 124.5485636  40.6521890
  16.8908234 124.2032721  41.0277136  18.3891923 124.2393179  41.2409502
  19.6298054 123.6263682  42.2746187  20.1829093 124.0459136  42.9336210
  19.8668140 122.6999431  42.3169143  14.8544225 126.8635681  34.6389628
  15.7163389 127.1890579  34.8985446  15.0394569 126.0767177  34.1262694
  23.0076861 125.7364208  41.7824851  22.4275530 126.3949012  41.4002904
  22.7412794 124.9141552  41.3712269  21.4580427 125.1369265  43.9846172
  21.9580206 125.2485800  43.1760490  22.1016035 124.8330318  44.6246980
  21.7901739 127.8964298  40.8381199  20.9027594 128.1813949  40.6201394
  22.2055728 127.7358061  39.9908476  25.1416275 127.9210819  44.5535539
  25.9176665 128.4107271  44.8260156  24.4164409 128.3468873  45.0107408
  27.5788834 128.6338438  45.6109479  28.1733325 128.3934174  44.9002788
  27.6515418 127.9145569  46.2383016  25.5747569 129.2008566  41.8781609
  25.3184503 128.8005201  42.7089817  24.9500437 129.9152360  41.7531748
  29.8859907 131.9404639  44.3852901  29.3259465 132.0097828  45.1584463
  29.2803410 131.7645624  43.6652397  15.8073668 124.1031724  37.9269337
  15.7952337 125.0473564  38.0837608  16.6997089 123.9201870  37.6328798
  19.6225787 120.6974501  42.1815274  18.8558183 120.1432987  42.3271956
  20.0336492 120.7696370  43.0429426   3.9084358  77.2974210  31.7814349
   4.6409530  76.7273426  32.0152179   3.1523714  76.9095810  32.2220855
   1.4309779  71.0095784  36.2408958   1.0993104  71.8791195  36.0170173
   0.8355392  70.6932068  36.9202988   1.3238442  75.7290870  33.3202308
   0.4155319  75.6606278  33.0261069   1.2726038  76.2062815  34.1484134
   3.1900089  73.9307308  35.0980182   2.5474469  74.2239841  34.4519977
   2.6855017  73.8160229  35.9033379   0.8440252  77.6770481  25.7866041
   1.7558108  77.9097868  25.6113739   0.3349899  78.2607526  25.2241120
   3.3299066  83.5950738  30.5323987   2.6450105  83.9749639  29.9821020
   3.4142916  84.2046064  31.2655934   0.5849998  81.2410697  37.1319330
   0.7966893  81.8842457  36.4553711   0.5379746  80.4073013  36.6641260
   1.6995826  84.1182652  35.3041687   2.5213270  83.7162839  35.0224369
   1.6958229  84.0150886  36.2557803   9.7901819  80.4621401  31.6526659
   9.0365527  79.8928799  31.4970663   9.9249360  80.4284065  32.5997294
   3.4677467  81.6006331  26.3005880   2.6906910  81.2617490  25.8561042
   4.1468948  81.6058954  25.6260845   1.7068774  81.0740312  32.9572488
   1.0492449  81.7639573  33.0452617   2.5109174  81.4636744  33.3006475
   0.5174233  79.4284685  31.0076430   1.0306115  80.0614676  31.5098140
   1.1675457  78.8285880  30.6419790   1.2836029  84.4090686  29.1355573
   0.8298356  83.5681596  29.1920763   0.6529996  85.0452084  29.4730353
   0.3280576  68.1158924  30.9598009   0.6339453  67.2556287  30.6723924
   1.0533181  68.7076544  30.7597003   3.8665965  80.6150037  28.7628802
   3.7283863  80.8051633  27.8349991   3.5102183  81.3769420  29.2196853
   3.8935344  82.6826564  33.7740074   4.3271851  82.5901853  34.6223128
   4.6066925  82.6584065  33.1360090   4.7550894  82.7250265  36.3072959
   4.9486784  83.6296075  36.5532234   4.6551512  82.2657684  37.1411544
   1.5258209  85.9076130  39.9590322   1.4670755  85.2235350  39.2920905
   1.9277727  86.6495120  39.5070948   1.5275616  83.8715714  38.1904301
   0.6402395  83.5341636  38.3130700   2.0974167  83.1398745  38.4273067
   6.0092957  79.2823931  32.9520863   5.9982833  80.1648647  32.5814796
   5.1410336  78.9295482  32.7575400   2.6265531  78.1772572  29.4191029
   3.0925984  79.0100564  29.3451332   3.0773032  77.7117554  30.1236287
   0.9682859  87.1502060  32.5817935   1.8929407  86.9444922  32.4442386
   0.7998163  86.9018462  33.4907276   0.7578176  87.6687728  27.9380026
   0.9315053  87.1034150  27.1853879   1.2507067  88.4688623  27.7559516
   6.6117567  80.4324151  29.5570326   7.0548713  79.6831476  29.1589449
   5.7344077  80.4234287  29.1744058   1.7453348  86.9854492  25.0376924
   2.4404253  87.6061185  25.2564239   2.0876498  86.1349844  25.3129302
   3.6444771  84.4354198  26.5664255   4.1696095  84.7741471  25.8413575
   3.5567124  83.5001213  26.3827390   3.3338677  85.0687101  41.8715453
   2.5434221  85.0511240  41.3319952   3.0972032  85.6075395  42.6264490
   3.4536552  81.9179568  39.1848182   3.5034557  81.7529575  40.1263704
   3.3450476  81.0506827  38.7946062   0.7440315  77.9010496  40.5007488
   1.6450178  77.7616961  40.2091486   0.8188289  78.0664951  41.4405666
   4.9554749  84.3376509  39.4290203   4.6639558  84.7006490  40.2653664
   4.3426880  83.6243518  39.2503535   6.1550432  81.9029389  31.9492773
   6.9897323  82.3419193  32.1130334   6.2909560  81.4268042  31.1301019
   3.2041937  79.4609124  37.8970261   3.6796059  79.6536770  37.0889113
   2.2807503  79.5168310  37.6513645   1.9043606  76.3374884  36.1298567
   2.8561029  76.4372982  36.1510791   1.7347057  75.5453153  36.6396651
   1.6853493  86.6919264  22.0364548   1.6067125  86.3579128  22.9300306
   2.5063160  87.1841032  22.0356020   4.3831684  79.5581004  35.2440866
   4.3508004  78.6197004  35.4300550   4.9932308  79.6365040  34.5106691
   4.5326173  76.3492047  35.2899150   4.0165221  75.5650504  35.1029078
   5.4166121  76.0210764  35.4545669   2.1936900  70.0933063  31.2494962
   1.9961721  69.7848151  32.1338294   2.8036605  70.8194702  31.3792892
  10.2008234  80.6197011  34.3846903  10.9311623  80.3582299  34.9454607
   9.5915180  79.8825733  34.4248971   8.2823531  78.7604873  34.9821354
   7.5556695  78.6260838  34.3737846   7.8670818  79.0681702  35.7878072
   1.3289353  72.0842495  28.5070158   0.7488022  72.7427299  28.1248210
   1.0625286  71.2619839  28.0957575   3.4628768  74.2689106  31.2780845
   4.2389158  74.7585559  31.5505462   2.7376902  74.6947160  31.7352715
   5.9001326  74.9816725  32.3354786   6.4945817  74.7412461  31.6248094
   5.9727910  74.2623856  32.9628322   3.8960061  75.5486853  28.6026916
   3.6396995  75.1483489  29.4335123   3.2712929  76.2630647  28.4777055
   8.2072399  78.2882926  31.1098207   7.6471957  78.3576116  31.8829769
   7.6015902  78.1123911  30.3897703   1.1644142  84.4469789  23.7072986
   1.9989746  84.0150988  23.5250461   1.0028485  84.2751803  24.6349881
   9.7928417  94.9639440  33.8028163  10.4306827  94.8446188  33.0991503
   9.6749260  95.9120284  33.8616115   6.6018124  94.9166868  33.7389688
   6.2636635  94.8007933  32.8510222   7.4707892  94.5158033  33.7190694
   2.4604939  96.7702345  29.7286579   1.8969804  96.6792282  28.9602866
   2.3457334  95.9502249  30.2089071   7.0837907  96.0701720  39.6975893
   7.0726547  95.6754518  38.8256397   7.2458546  95.3367793  40.2909665
   3.8045168  98.8538832  38.6455077   3.5135034  99.7584463  38.5301743
   4.4402152  98.8955359  39.3599147   4.7301375  96.2315680  35.2356437
   5.3264947  96.0071703  34.5213400   4.7876346  95.4900426  35.8381885
   9.3469686  92.6890894  30.8781371  10.1332775  92.2710317  30.5271788
   9.6108390  93.5936986  31.0463019   9.5179763  98.1263744  25.5770028
   8.8825596  98.1998371  26.2890932   9.1877170  98.7157343  24.8989107
  14.7478113  92.6266127  31.7814349  15.4803285  92.0565344  32.0152179
  13.9917469  92.2387728  32.2220855   4.0222692  95.5883222  25.2731003
   3.9058950  94.9128125  25.9412087   4.1324952  95.1015596  24.4563156
   6.3654233  95.0493369  28.9777692   6.0012440  94.5223990  29.6890613
   7.2221349  94.6591838  28.8044177  12.2703533  86.3387701  36.2408958
  11.9386858  87.2083112  36.0170173  11.6749147  86.0223985  36.9202988
   6.0059720  90.0783268  23.9739040   6.1734122  90.9463505  24.3409511
   5.8156889  90.2410550  23.0500330   8.7635053  98.5400247  35.6404871
   8.4635776  99.4425286  35.5320678   8.4186112  98.2732431  36.4926024
   2.2147534  94.9914044  31.6741575   1.2898031  94.8590258  31.8819267
   2.4631948  95.7708263  32.1711518  12.1632197  91.0582788  33.3202308
  11.2549074  90.9898196  33.0261069  12.1119792  91.5354732  34.1484134
   5.9848941  92.5340926  24.9585707   5.8648566  92.9797977  25.7971188
   5.2901529  92.8826244  24.3999245   6.2373062  92.4772433  41.2637205
   5.4606396  93.0366353  41.2540070   6.8763625  92.9629216  41.7852076
  14.0293843  89.2599226  35.0980182  13.3868223  89.5531759  34.4519977
  13.5248772  89.1452146  35.9033379  11.6834007  93.0062399  25.7866041
  12.5951863  93.2389786  25.6113739  11.1743654  93.5899443  25.2241120
   4.4919435  95.2857886  40.8255172   5.2334119  95.8242930  40.5489996
   3.7856420  95.9124175  40.9826724   9.9674774  97.4287027  39.4227334
  10.3758130  96.9869437  38.6781966   9.2452036  96.8539654  39.6761527
   6.3205844  92.3659634  36.7960891   7.1667040  92.7899047  36.9395540
   6.2604482  91.7093258  37.4899454  10.2903589  97.9888218  33.1779623
   9.6612451  98.1533932  32.4755691   9.9029251  98.4029827  33.9490587
  14.1692821  98.9242655  30.5323987  13.4843859  99.3041557  29.9821020
  14.2536670  99.5337982  31.2655934   9.4705290  90.0264002  38.4542064
   9.2266222  90.7806063  37.9176340   9.7465220  90.4049350  39.2889312
  11.4243752  96.5702614  37.1319330  11.6360648  97.2134374  36.4553711
  11.3773501  95.7364931  36.6641260   9.0269981  89.1820435  34.0355902
   8.1654460  89.4801689  34.3272640   9.0532416  89.3990834  33.1036935
   5.8431551  97.7262626  30.4429708   6.3069896  98.0050329  29.6534330
   5.5788349  96.8246070  30.2602799   2.7355632  97.2734107  33.3809471
   3.3056989  97.7021376  32.7426956   3.3263744  96.9916692  34.0793657
   4.7800437  93.8485778  27.2519273   5.4824480  94.3006822  27.7193199
   4.4481065  93.2069597  27.8799166   3.2280798  92.4397535  41.6270482
   2.5979459  93.1213815  41.8605879   3.1216886  92.3280616  40.6823621
  12.5389580  99.4474570  35.3041687  13.3607024  99.0454757  35.0224369
  12.5351983  99.3442804  36.2557803   6.3046184  98.9958613  37.4602398
   6.3690616  99.4579020  38.2960570   5.5957108  98.3655978  37.5884708
  20.6295573  95.7913318  31.6526659  19.8759282  95.2220716  31.4970663
  20.7643115  95.7575983  32.5997294   6.0194202 100.6626721  27.3281378
   5.8839876 101.5078256  27.7566226   6.5604014 100.8645998  26.5647312
   2.5061541  86.7418300  43.9895733   2.1128487  86.1884499  44.6643378
   3.3227681  87.0528879  44.3802251   5.4229502  88.1576180  41.5815990
   6.1639216  88.7583333  41.5020452   5.6547425  87.4153817  41.0234033
   7.6462678 101.2850287  41.4581720   7.2026532 100.4986666  41.1402625
   8.3079891 101.4729438  40.7925611   2.4049799 102.8146089  35.9842399
   2.9557224 102.6863152  35.2119393   1.5661275 103.1140978  35.6337292
   9.7443916 101.5653087  39.4863122   9.7262391 102.3861968  38.9943391
  10.6663836 101.4407162  39.7113263   6.2016970  99.0797217  40.3286630
   6.7345307  98.3185505  40.0985938   5.6731051  98.7870868  41.0710784
   9.3686665  84.1857283  35.8580272   9.0250934  85.0758924  35.7819382
   9.7365628  83.9958940  34.9949857   9.3336948  94.1765894  24.3652707
   8.8183571  94.9470498  24.6041094   9.0614256  93.5031030  24.9885768
   6.9184059  89.0215594  29.4237945   6.0625655  88.6322445  29.2443584
   7.3311011  89.1007555  28.5637731   8.4483205  86.5561938  33.8229505
   7.9448001  86.5192073  33.0097310   8.7413812  87.4654680  33.8826162
   4.6926091  86.6400667  32.8295687   5.5579088  86.4443476  32.4701576
   4.7603600  86.4111019  33.7565043  14.3071222  96.9298248  26.3005880
  13.5300665  96.5909408  25.8561042  14.9862703  96.9350871  25.6260845
   9.1223251  92.0492986  26.1912488   8.8173387  92.3639135  27.0422631
  10.0753693  92.1274406  26.2339821   7.5669683  98.2083209  27.8405442
   7.0391044  97.4735969  27.5278679   7.0657186  98.9857885  27.5945410
  12.5462529  96.4032230  32.9572488  11.8886203  97.0931491  33.0452617
  13.3502928  96.7928661  33.3006475   2.2988410  88.8702875  30.2012053
   2.8732162  88.6478057  29.4685246   2.8859393  88.9391570  30.9540655
  11.3567988  94.7576602  31.0076430  11.8699869  95.3906594  31.5098140
  12.0069212  94.1577798  30.6419790   2.6257998  90.9007336  24.2207939
   1.7895310  91.2382023  24.5417213   2.4862767  90.7656316  23.2835076
   4.6011078  85.7444124  28.9287123   3.9475491  85.4293141  28.3043738
   4.5591552  85.1219865  29.6546946   7.8348819  92.2326058  33.2534771
   6.9171380  92.4541005  33.0956459   8.2508962  92.3072368  32.3946478
   8.6183866  93.6317473  28.3837451   9.3655685  94.1438871  28.0744573
   8.8875456  93.3101526  29.2441844   6.8910516  96.1276014  25.3664405
   5.9821736  95.8435047  25.4636875   6.9205600  96.5475093  24.5067712
  12.1229784  99.7382604  29.1355573  11.6692111  98.8973514  29.1920763
  11.4923751 100.3744002  29.4730353  11.0662703  90.6674590  30.3656240
  10.3285460  90.1551976  30.6966483  11.3189477  90.2274971  29.5539517
  10.5662723 101.5759100  30.0705391  10.8585697 102.1364157  29.3517756
  11.0761344 101.8687661  30.8258550  11.1674331  83.4450842  30.9598009
  11.4733208  82.5848205  30.6723924  11.8926936  84.0368462  30.7597003
   5.4395411  93.7404635  31.4674200   5.4944020  92.7878471  31.3916677
   4.6286613  93.8964074  31.9515499   3.3787770  92.3581695  29.2264579
   2.5655636  92.6575865  29.6329771   3.8746765  91.9637383  29.9439062
   5.5296348 102.3539451  31.1598844   5.4872527 102.5800298  30.2307376
   6.4459047 102.1202826  31.3084645   8.9761982  92.8223519  38.0579473
   9.3311370  93.0494992  38.9173939   9.6234113  93.1541896  37.4356728
  14.7059719  95.9441955  28.7628802  14.5677618  96.1343551  27.8349991
  14.3495938  96.7061338  29.2196853   2.8701845  89.9300050  34.8425814
   3.5101225  89.7888809  34.1448778   2.0379376  89.6434563  34.4664416
  14.7329099  98.0118482  33.7740074  15.1665605  97.9193771  34.6223128
  15.4460679  97.9875982  33.1360090   3.6462149  99.2302480  30.9560807
   4.4402748  98.7352801  30.7543382   2.9353841  98.7020344  30.5928512
   8.4656994 101.6120576  35.3073174   8.5194016 102.1811512  36.0750890
   7.5971775 101.7822461  34.9427211   1.3455387  91.3138132  36.7897626
   2.0178440  91.1055494  36.1410274   0.5185173  91.1160218  36.3502858
  15.5944648  98.0542183  36.3072959  15.7880538  98.9587993  36.5532234
  15.4945266  97.5949602  37.1411544   7.2480959  87.9400073  38.8063286
   6.6008874  88.6390023  38.7127763   8.0181974  88.3736217  39.1739535
  10.6559757  98.2048925  41.8813840  10.5045263  97.9759477  40.9643923
  10.6464436  99.1619527  41.8945185   7.4245093  95.7780838  36.8660106
   8.3537153  95.9291998  36.6929073   7.0036123  95.8664859  36.0108753
   6.2233425  99.8031502  34.6358644   6.0844511  99.4350287  35.5084582
   5.4348021 100.3179142  34.4642602   7.7738640  99.1813105  32.0247482
   7.4388473  99.1413875  32.9205131   7.2742586  98.5157821  31.5517892
   1.7482884  94.5880735  37.5500063   1.6102682  93.8560974  38.1511602
   2.6587808  94.4989635  37.2684251  10.7097832  96.5269139  22.2984541
  10.0927003  95.8015968  22.2017594  10.2414320  97.2878500  21.9551616
   4.3765185  94.3000694  37.0383742   5.0864803  93.6593887  36.9970361
   4.3334493  94.5513589  37.9609923  12.3651964 101.2368048  39.9590322
  12.3064510 100.5527268  39.2920905  12.7671482 101.9787038  39.5070948
   3.0894119  91.2865912  38.8579382   2.5531476  90.8356651  39.5100978
   2.5010827  91.4211821  38.1149846  12.3669371  99.2007632  38.1904301
  11.4796150  98.8633554  38.3130700  12.9367922  98.4690663  38.4273067
   5.8970524 103.8609084  35.1565544   5.8240696 104.6664056  35.6684849
   5.4547917 104.0601050  34.3313566   5.6860304 103.0980854  28.6668366
   4.9027826 103.6402534  28.7606591   6.3853049 103.6154834  29.0662607
   8.9956954  88.9075484  31.3102571   9.4925653  88.1545446  30.9903642
   8.2243935  88.9439800  30.7445781  16.8486711  94.6115849  32.9520863
  16.8376588  95.4940565  32.5814796  15.9804091  94.2587400  32.7575400
   8.3569208 103.7595918  37.3123703   9.0697180 104.3943383  37.2399605
   7.8659236 103.8559784  36.4963705  10.0786735  97.6647171  28.8840995
   9.1443013  97.7848633  28.7145699  10.2563403  96.7619638  28.6201005
   5.5791923  91.0492867  31.0374256   5.2089710  90.4963907  31.7255162
   6.0751015  90.4451000  30.4849256  13.4659286  93.5064490  29.4191029
  13.9319738  94.3392482  29.3451332  13.9166786  93.0409472  30.1236287
   3.4081121 101.5090362  38.1329274   4.1090581 102.1426845  38.2858668
   2.9376236 101.8505093  37.3724913  11.5335517  99.8508311  26.4177181
  11.8095361  99.7364906  27.3271055  10.6640016  99.4525796  26.3789354
  11.4375949  85.8745077  33.4581930  10.5239029  86.1049304  33.6264137
  11.8669050  85.9583521  34.3095963  11.2082407  94.0634969  35.9581824
  10.5553857  94.3110877  35.3034277  11.5862787  93.2499107  35.6244302
   8.1689581 104.0994662  30.0609995   8.3511976 103.2816318  30.5237747
   8.9922567 104.3162354  29.6234885   8.5031747 103.0262847  27.3225043
   9.0319513 102.5155302  26.7095205   8.7659966 102.7105378  28.1870576
   7.2569980  94.8054780  42.4447861   6.5810617  94.7048909  43.1150237
   8.0797614  94.6493994  42.9083859   5.9992763 106.1121708  36.6805477
   6.5511071 106.2753329  37.4454563   6.3398957 106.7026145  36.0085502
   0.9757256  88.4596857  37.2827362   1.0398583  89.3211688  36.8704760
   0.9124377  87.8470859  36.5499721  10.8503637 100.9382965  42.5354132
  11.3943541 101.5512923  42.0409087  10.2690482 101.4962543  43.0521145
   9.1361150 104.0603683  33.6669160   9.0112290 103.2593423  33.1580105
   9.7940242 104.5549876  33.1783130  11.1996059 101.8612703  35.2948710
  10.2526394 101.7418054  35.2227036  11.5478832 100.9735201  35.3774971
   3.5595632  87.7506842  39.1186952   4.0830034  87.9969139  39.8813261
   3.3407965  88.5826877  38.6990089   8.2042492 101.6565419  31.4953062
   8.0567455 100.7282127  31.6760632   9.0295986 101.6785510  31.0110137
   2.0704736  90.3083486  27.3533554   2.4100809  90.8369408  26.6312162
   2.5176857  90.6463893  28.1292121  11.8076614 102.4793978  32.5817935
  12.7323161 102.2736839  32.4442386  11.6391917 102.2310379  33.4907276
   4.7648177  88.6920537  36.8036622   4.4244998  87.8928350  37.2057302
   4.0587183  88.9922248  36.2313455   5.4164649  85.7769850  35.2563945
   6.2390718  85.3030328  35.1342835   5.6602713  86.5560333  35.7562631
   4.0572884  88.8058108  25.5526847   4.7781246  89.1839361  25.0490564
   3.4338188  89.5246985  25.6561825   8.2004006  89.5103257  26.4885179
   8.4167621  90.3927895  26.1874007   7.7198074  89.1189470  25.7590821
   2.9403228  92.4688970  33.0655924   2.7947808  92.7829273  33.9580205
   2.4628431  93.0873871  32.5126822   4.7999611  89.4591518  33.1136813
   4.7861179  88.5632612  32.7769111   5.5172039  89.4662182  33.7475099
   6.6525741  89.8928858  35.1589941   6.3943519  90.8145929  35.1574271
   6.1210782  89.4959293  35.8490405  11.5971930 102.9979646  27.9380026
  11.7708808 102.4326068  27.1853879  12.0900821 103.7980540  27.7559516
   4.2036507  88.3405899  28.3824383   4.3252418  87.4122545  28.5815271
   3.9138549  88.3544584  27.4702699   7.0727697  86.0260809  31.5191103
   7.0949394  86.0900142  30.5643083   7.4895756  85.1865318  31.7131609
  17.4511321  95.7616069  29.5570326  17.8942467  95.0123394  29.1589449
  16.5737832  95.7526205  29.1744058  12.5847103 102.3146410  25.0376924
  13.2798007 102.9353103  25.2564239  12.9270253 101.4641761  25.3129302
  14.4838526  99.7646116  26.5664255  15.0089850 100.1033388  25.8413575
  14.3960878  98.8293131  26.3827390   6.1458574 103.6780189  38.6954132
   6.4545701 103.4329336  39.5676831   6.9434056 103.8826828  38.2073002
   6.1679186 105.8318099  30.9259508   5.7284177 105.3394477  31.6192365
   6.9187303 105.2891066  30.6851584   3.6153059 101.3756108  32.9981810
   2.9933068 100.7126813  32.6984038   4.2857926 101.4017240  32.3155458
   3.6877586  89.8537896  42.5914316   3.7365742  90.7300019  42.2092086
   4.2300100  89.3115289  42.0185959  14.1732432 100.3979019  41.8715453
  13.3827976 100.3803158  41.3319952  13.9365786 100.9367313  42.6264490
  14.2930307  97.2471486  39.1848182  14.3428312  97.0821493  40.1263704
  14.1844230  96.3798745  38.7946062  11.5834069  93.2302414  40.5007488
  12.4843932  93.0908878  40.2091486  11.6582044  93.3956868  41.4405666
   5.9176875  90.6069268  39.3460675   5.0480184  90.9002834  39.0743263
   6.1536355  91.1909713  40.0667938  15.7948504  99.6668427  39.4290203
  15.5033312 100.0298408  40.2653664  15.1820635  98.9535435  39.2503535
  16.9944186  97.2321307  31.9492773  17.8291077  97.6711111  32.1130334
  17.1303315  96.7559960  31.1301019  14.0435692  94.7901042  37.8970261
  14.5189814  94.9828688  37.0889113  13.1201257  94.8460227  37.6513645
   8.6215908  86.8248885  36.8626095   9.1397852  87.5609912  36.5372584
   8.2671041  87.1312879  37.6972854   8.8728503  83.2449168  32.3826992
   9.1530256  82.5772357  33.0087418   9.6579110  83.4378263  31.8701655
  12.7437361  91.6666802  36.1298567  13.6954784  91.7664899  36.1510791
  12.5740811  90.8745070  36.6396651  10.7651740  88.7522385  36.3157968
  10.1701673  89.0327398  35.6204456  10.4801437  89.2416286  37.0874709
   9.8959231 102.7045312  25.0760600  10.8289904 102.6390873  25.2793476
   9.8082444 103.5401579  24.6175133  12.5247248 102.0211182  22.0364548
  12.4460879 101.6871046  22.9300306  13.3456914 102.5132950  22.0356020
  15.2225439  94.8872921  35.2440866  15.1901759  93.9488922  35.4300550
  15.8326062  94.9656958  34.5106691   7.0608770  93.7568974  21.2868070
   8.0067874  93.6275183  21.3556488   6.6823015  93.0183636  21.7637499
  15.3719927  91.6783965  35.2899150  14.8558976  90.8942422  35.1029078
  16.2559876  91.3502681  35.4545669  13.0330654  85.4224980  31.2494962
  12.8355475  85.1140069  32.1338294  13.6430360  86.1486619  31.3792892
  21.0401989  95.9488928  34.3846903  21.7705377  95.6874216  34.9454607
  20.4308934  95.2117650  34.4248971  19.1217286  94.0896791  34.9821354
  18.3950449  93.9552756  34.3737846  18.7064573  94.3973619  35.7878072
   6.9447462  97.8086721  42.7468727   7.8650472  97.9865320  42.9408774
   6.9097045  96.8642766  42.5948427   6.8613752  86.2255841  27.3767197
   6.0514481  85.8802925  27.7522443   7.5498169  85.9163384  27.9654809
   8.7904301  85.3033887  28.9991494   9.3435339  85.7229341  29.6581517
   9.0274387  84.3769635  29.0414450   4.8137400  91.2920961  44.7794258
   4.7134127  92.2415318  44.7106349   4.5958942  90.9639200  43.9070328
   4.0150471  88.5405886  21.3634935   4.8769635  88.8660784  21.6230752
   4.2000816  87.7537382  20.8508001  12.1683108  87.4134412  28.5070158
  11.5881777  88.0719217  28.1248210  11.9019041  86.5911757  28.0957575
  10.6186674  86.8139470  30.7091478  11.1186453  86.9256005  29.9005797
  11.2622282  86.5100523  31.3492287   4.6768670  94.7218100  43.5959319
   4.1935752  95.5218460  43.8023208   4.7629609  94.7326045  42.6426763
   0.6042008  98.6122635  35.6327753   1.5585261  98.5806577  35.5657685
   0.4054531  98.1513258  36.4477979   1.1941390  97.1823751  38.1998551
   2.0134279  97.6767829  38.2233388   1.4678197  96.2655719  38.1716118
  10.9507986  89.5734503  27.5626506  10.0633841  89.8584153  27.3446701
  11.3661975  89.4128266  26.7153783  14.3022522  89.5981024  31.2780845
  15.0782912  90.0877476  31.5505462  13.5770656  90.0239078  31.7352715
  16.7395081  90.3108643  32.3354786  17.3339571  90.0704379  31.6248094
  16.8121664  89.5915774  32.9628322  10.9249010  95.0889039  27.7776796
  10.8684211  95.5457590  26.9384429  11.4777352  94.3279723  27.5999639
  14.7353816  90.8778771  28.6026916  14.4790750  90.4775406  29.4335123
  14.1106684  91.5922565  28.4777055  19.0466153  93.6174844  31.1098207
  18.4865711  93.6868033  31.8829769  18.4409657  93.4415829  30.3897703
   2.1161362 105.0511571  32.8616393   1.9993746 105.9957004  32.7595084
   1.2953808 104.7485133  33.2502193  12.0037897  99.7761707  23.7072986
  12.8383501  99.3442905  23.5250461  11.8422240  99.6043720  24.6349881
  11.6583789  96.2793820  25.0729325  11.6032593  96.1138091  24.1317770
  11.0329844  96.9869853  25.2291515   8.9729696  98.5842732  44.3982888
   9.8420856  98.7583384  44.0369523   8.4936448  99.4037149  44.2758618
   4.9679914  85.7801929  24.6514644   4.9558584  86.7243769  24.8082915
   5.8603336  85.5972074  24.3574105   3.1415876 105.7039833  36.0772322
   4.0443123 105.7363443  36.3938817   2.9153246 104.7740284  36.0918658
   4.8969478 104.4570819  32.7382401   3.9465109 104.4572681  32.6246773
   5.2001964 103.7103554  32.2218435   8.7832034  82.3744706  28.9060581
   8.0164430  81.8203192  29.0517263   9.1942739  82.4466574  29.7674732
  20.6322172 110.2931358  33.8028163  21.2700582 110.1738105  33.0991503
  20.5143015 111.2412202  33.8616115  17.4411878 110.2458786  33.7389688
  17.1030390 110.1299851  32.8510222  18.3101646 109.8449951  33.7190694
  13.2998694 112.0994262  29.7286579  12.7363559 112.0084199  28.9602866
  13.1851089 111.2794167  30.2089071  17.9231661 111.3993638  39.6975893
  17.9120302 111.0046436  38.8256397  18.0852301 110.6659710  40.2909665
  10.8463126 113.5945454  32.5670799  11.6384418 113.2536279  32.1517098
  11.0859776 113.7040429  33.4872952  14.6438922 114.1830749  38.6455077
  14.3528788 115.0876380  38.5301743  15.2795907 114.2247277  39.3599147
  15.5695129 111.5607598  35.2356437  16.1658701 111.3363620  34.5213400
  15.6270101 110.8192343  35.8381885  20.1863440 108.0182812  30.8781371
  20.9726530 107.6002235  30.5271788  20.4502145 108.9228904  31.0463019
  20.3573518 113.4555662  25.5770028  19.7219351 113.5290289  26.2890932
  20.0270924 114.0449261  24.8989107  25.5871867 107.9558045  31.7814349
  26.3197039 107.3857262  32.0152179  24.8311223 107.5679645  32.2220855
  14.8616446 110.9175139  25.2731003  14.7452704 110.2420043  25.9412087
  14.9718706 110.4307513  24.4563156  17.2047987 110.3785286  28.9777692
  16.8406194 109.8515907  29.6890613  18.0615103 109.9883755  28.8044177
  23.1097288 101.6679619  36.2408958  22.7780613 102.5375030  36.0170173
  22.5142901 101.3515903  36.9202988  16.8453474 105.4075186  23.9739040
  17.0127876 106.2755422  24.3409511  16.6550643 105.5702468  23.0500330
  19.6028807 113.8692165  35.6404871  19.3029530 114.7717204  35.5320678
  19.2579867 113.6024348  36.4926024  13.0541289 110.3205962  31.6741575
  12.1291785 110.1882176  31.8819267  13.3025702 111.1000181  32.1711518
  23.0025951 106.3874705  33.3202308  22.0942828 106.3190114  33.0261069
  22.9513547 106.8646650  34.1484134  16.8242695 107.8632844  24.9585707
  16.7042320 108.3089894  25.7971188  16.1295283 108.2118161  24.3999245
  10.4150100 109.9639235  32.5085364  10.5442481 110.2173714  33.4224776
   9.7347551 110.5566943  32.1890019  17.0766817 107.8064351  41.2637205
  16.3000151 108.3658271  41.2540070  17.7157380 108.2921134  41.7852076
  24.8687598 104.5891144  35.0980182  24.2261978 104.8823677  34.4519977
  24.3642526 104.4744064  35.9033379  22.5227761 108.3354317  25.7866041
  23.4345617 108.5681704  25.6113739  22.0137408 108.9191361  25.2241120
  15.3313189 110.6149804  40.8255172  16.0727874 111.1534848  40.5489996
  14.6250175 111.2416093  40.9826724  20.8068529 112.7578945  39.4227334
  21.2151885 112.3161355  38.6781966  20.0845790 112.1831572  39.6761527
  17.1599599 107.6951551  36.7960891  18.0060794 108.1190965  36.9395540
  17.0998237 107.0385176  37.4899454  21.1297343 113.3180135  33.1779623
  20.5006206 113.4825849  32.4755691  20.7423006 113.7321745  33.9490587
  25.0086575 114.2534573  30.5323987  24.3237614 114.6333474  29.9821020
  25.0930425 114.8629900  31.2655934  20.3099044 105.3555920  38.4542064
  20.0659976 106.1097980  37.9176340  20.5858975 105.7341267  39.2889312
  22.2637507 111.8994532  37.1319330  22.4754402 112.5426292  36.4553711
  22.2167255 111.0656849  36.6641260  19.8663736 104.5112353  34.0355902
  19.0048215 104.8093606  34.3272640  19.8926171 104.7282752  33.1036935
  16.6825305 113.0554543  30.4429708  17.1463651 113.3342246  29.6534330
  16.4182103 112.1537988  30.2602799  13.5749386 112.6026025  33.3809471
  14.1450743 113.0313293  32.7426956  14.1657498 112.3208610  34.0793657
  15.6194191 109.1777696  27.2519273  16.3218235 109.6298739  27.7193199
  15.2874820 108.5361515  27.8799166  14.0674553 107.7689452  41.6270482
  13.4373214 108.4505733  41.8605879  13.9610641 107.6572534  40.6823621
   9.3619525 107.4361248  32.5536407   8.5718579 107.6918777  32.0776517
   9.8530773 108.2509586  32.6588447  23.3783335 114.7766488  35.3041687
  24.2000779 114.3746675  35.0224369  23.3745738 114.6734722  36.2557803
  11.3134271 107.8005828  29.5119883  10.5165434 107.9124522  30.0303379
  11.0859863 108.1392480  28.6460774  17.1439938 114.3250531  37.4602398
  17.2084371 114.7870938  38.2960570  16.4350862 113.6947896  37.5884708
   7.6457228 107.6891739  34.9851397   7.8965267 108.5738749  35.2508973
   8.1816777 107.5096340  34.2126489  31.4689328 111.1205236  31.6526659
  30.7153036 110.5512634  31.4970663  31.6036869 111.0867900  32.5997294
  16.8587956 115.9918638  27.3281378  16.7233631 116.8370174  27.7566226
  17.3997769 116.1937916  26.5647312  13.3455296 102.0710218  43.9895733
  12.9522241 101.5176417  44.6643378  14.1621436 102.3820797  44.3802251
  16.2623257 103.4868097  41.5815990  17.0032970 104.0875250  41.5020452
  16.4941179 102.7445735  41.0234033  11.4064595 108.6724465  39.8594220
  11.2918110 107.7709722  40.1601319  10.5509112 108.9188161  39.5079036
  18.4856432 116.6142205  41.4581720  18.0420287 115.8278583  41.1402625
  19.1473646 116.8021355  40.7925611  13.2443554 118.1438006  35.9842399
  13.7950979 118.0155070  35.2119393  12.4055029 118.4432895  35.6337292
  20.5837670 116.8945005  39.4863122  20.5656146 117.7153886  38.9943391
  21.5057591 116.7699080  39.7113263  17.0410725 114.4089134  40.3286630
  17.5739061 113.6477422  40.0985938  16.5124806 114.1162786  41.0710784
  20.2080420  99.5149200  35.8580272  19.8644689 100.4050842  35.7819382
  20.5759382  99.3250858  34.9949857  20.1730702 109.5057811  24.3652707
  19.6577326 110.2762416  24.6041094  19.9008011 108.8322947  24.9885768
  17.7577813 104.3507512  29.4237945  16.9019410 103.9614362  29.2443584
  18.1704765 104.4299473  28.5637731  19.2876960 101.8853855  33.8229505
  18.7841756 101.8483991  33.0097310  19.5807567 102.7946598  33.8826162
  15.5319846 101.9692585  32.8295687  16.3972843 101.7735394  32.4701576
  15.5997355 101.7402937  33.7565043  25.1464976 112.2590166  26.3005880
  24.3694419 111.9201325  25.8561042  25.8256457 112.2642789  25.6260845
  19.9617005 107.3784903  26.1912488  19.6567141 107.6931053  27.0422631
  20.9147448 107.4566323  26.2339821  18.4063437 113.5375127  27.8405442
  17.8784799 112.8027886  27.5278679  17.9050940 114.3149803  27.5945410
  23.3856283 111.7324147  32.9572488  22.7279958 112.4223409  33.0452617
  24.1896683 112.1220579  33.3006475  13.1382165 104.1994793  30.2012053
  13.7125917 103.9769974  29.4685246  13.7253147 104.2683487  30.9540655
  22.1961742 110.0868520  31.0076430  22.7093624 110.7198512  31.5098140
  22.8462966 109.4869715  30.6419790  13.4651752 106.2299254  24.2207939
  12.6289064 106.5673941  24.5417213  13.3256522 106.0948234  23.2835076
  15.4404833 101.0736042  28.9287123  14.7869245 100.7585059  28.3043738
  15.3985307 100.4511782  29.6546946  18.6742573 107.5617975  33.2534771
  17.7565134 107.7832922  33.0956459  19.0902717 107.6364286  32.3946478
  19.4577621 108.9609391  28.3837451  20.2049440 109.4730788  28.0744573
  19.7269210 108.6393444  29.2441844  17.7304271 111.4567932  25.3664405
  16.8215490 111.1726965  25.4636875  17.7599355 111.8767010  24.5067712
  22.9623538 115.0674521  29.1355573  22.5085865 114.2265431  29.1920763
  22.3317505 115.7035920  29.4730353  21.9056458 105.9966507  30.3656240
  21.1679215 105.4843894  30.6966483  22.1583231 105.5566889  29.5539517
  21.4056478 116.9051018  30.0705391  21.6979452 117.4656075  29.3517756
  21.9155098 117.1979579  30.8258550  22.0068085  98.7742759  30.9598009
  22.3126962  97.9140123  30.6723924  22.7320690  99.3660380  30.7597003
   8.2992441 109.1773446  29.3479607   8.1016841 108.5842807  28.6230674
   7.7439105 108.8725656  30.0655546  16.2789165 109.0696552  31.4674200
  16.3337775 108.1170389  31.3916677  15.4680367 109.2255992  31.9515499
  14.2181525 107.6873612  29.2264579  13.4049390 107.9867783  29.6329771
  14.7140519 107.2929301  29.9439062  16.3690103 117.6831369  31.1598844
  16.3266282 117.9092215  30.2307376  17.2852802 117.4494744  31.3084645
  19.8155737 108.1515437  38.0579473  20.1705124 108.3786910  38.9173939
  20.4627868 108.4833813  37.4356728  25.5453474 111.2733873  28.7628802
  25.4071372 111.4635469  27.8349991  25.1889692 112.0353255  29.2196853
  13.7095600 105.2591968  34.8425814  14.3494979 105.1180727  34.1448778
  12.8773130 104.9726481  34.4664416  25.5722853 113.3410400  33.7740074
  26.0059360 113.2485689  34.6223128  26.2854434 113.3167900  33.1360090
  14.4855904 114.5594398  30.9560807  15.2796502 114.0644718  30.7543382
  13.7747596 114.0312261  30.5928512  19.3050748 116.9412494  35.3073174
  19.3587770 117.5103430  36.0750890  18.4365529 117.1114379  34.9427211
  10.7938667 108.7037480  27.0320559   9.8636255 108.6421935  27.2490522
  10.8896139 108.1813433  26.2357201  10.7124216 105.2292293  29.6198801
  10.9731033 106.1437626  29.5107962  11.5341388 104.7616735  29.7695414
  12.1849141 106.6430050  36.7897626  12.8572195 106.4347412  36.1410274
  11.3578928 106.4452136  36.3502858  26.4338403 113.3834100  36.3072959
  26.6274293 114.2879911  36.5532234  26.3339021 112.9241519  37.1411544
  18.0874713 103.2691991  38.8063286  17.4402628 103.9681940  38.7127763
  18.8575729 103.7028135  39.1739535  21.4953511 113.5340843  41.8813840
  21.3439018 113.3051395  40.9643923  21.4858191 114.4911444  41.8945185
  18.2638848 111.1072756  36.8660106  19.1930908 111.2583915  36.6929073
  17.8429878 111.1956776  36.0108753  17.0627180 115.1323420  34.6358644
  16.9238265 114.7642205  35.5084582  16.2741776 115.6471060  34.4642602
  18.6132395 114.5105023  32.0247482  18.2782227 114.4705793  32.9205131
  18.1136340 113.8449739  31.5517892  12.5876639 109.9172653  37.5500063
  12.4496437 109.1852892  38.1511602  13.4981562 109.8281553  37.2684251
  21.5491586 111.8561057  22.2984541  20.9320757 111.1307885  22.2017594
  21.0808075 112.6170417  21.9551616  15.2158939 109.6292612  37.0383742
  15.9258558 108.9885804  36.9970361  15.1728248 109.8805507  37.9609923
  23.2045718 116.5659965  39.9590322  23.1458264 115.8819186  39.2920905
  23.6065236 117.3078956  39.5070948  13.9287873 106.6157830  38.8579382
  13.3925230 106.1648569  39.5100978  13.3404582 106.7503739  38.1149846
  23.2063125 114.5299549  38.1904301  22.3189904 114.1925471  38.3130700
  23.7761676 113.7982581  38.4273067   9.6626995 105.7513838  35.9432376
   9.5785183 105.1439507  35.2082786   8.8409701 106.2422856  35.9441873
  16.7364279 119.1901002  35.1565544  16.6634450 119.9955973  35.6684849
  16.2941672 119.3892968  34.3313566  16.5254058 118.4272772  28.6668366
  15.7421580 118.9694452  28.7606591  17.2246803 118.9446751  29.0662607
  19.8350708 104.2367401  31.3102571  20.3319408 103.4837364  30.9903642
  19.0637690 104.2731718  30.7445781  27.6880466 109.9407767  32.9520863
  27.6770342 110.8232482  32.5814796  26.8197845 109.5879318  32.7575400
  19.1962962 119.0887836  37.3123703  19.9090934 119.7235301  37.2399605
  18.7052991 119.1851702  36.4963705  20.9180489 112.9939088  28.8840995
  19.9836768 113.1140551  28.7145699  21.0957158 112.0911555  28.6201005
  16.4185677 106.3784784  31.0374256  16.0483465 105.8255825  31.7255162
  16.9144770 105.7742918  30.4849256  24.3053040 108.8356408  29.4191029
  24.7713493 109.6684399  29.3451332  24.7560541 108.3701389  30.1236287
  14.2474876 116.8382279  38.1329274  14.9484335 117.4718762  38.2858668
  13.7769991 117.1797011  37.3724913  22.3729272 115.1800229  26.4177181
  22.6489115 115.0656824  27.3271055  21.5033770 114.7817714  26.3789354
  22.2769703 101.2036995  33.4581930  21.3632783 101.4341222  33.6264137
  22.7062805 101.2875439  34.3095963  22.0476162 109.3926887  35.9581824
  21.3947612 109.6402794  35.3034277  22.4256542 108.5791025  35.6244302
  19.0083336 119.4286580  30.0609995  19.1905730 118.6108236  30.5237747
  19.8316322 119.6454272  29.6234885  19.3425501 118.3554765  27.3225043
  19.8713268 117.8447220  26.7095205  19.6053721 118.0397295  28.1870576
  18.0963735 110.1346698  42.4447861  17.4204372 110.0340827  43.1150237
  18.9191369 109.9785912  42.9083859   9.8442594 116.3718634  35.0660377
  10.4296031 115.6262322  35.1988281   9.6467432 116.6822591  35.9497041
   4.4360249 108.9424235  33.7864820   4.4744348 108.4087825  34.5801938
   3.9300541 108.4159440  33.1675797  16.8386518 121.4413625  36.6805477
  17.3904826 121.6045247  37.4454563  17.1792711 122.0318063  36.0085502
  11.8151011 103.7888775  37.2827362  11.8792337 104.6503606  36.8704760
  11.7518131 103.1762777  36.5499721  11.2903283 105.8611908  40.9300396
  11.9175322 105.4788985  41.5437921  10.4331202 105.6426110  41.2956089
  21.6897392 116.2674883  42.5354132  22.2337296 116.8804841  42.0409087
  21.1084237 116.8254461  43.0521145  19.9754905 119.3895601  33.6669160
  19.8506044 118.5885341  33.1580105  20.6333996 119.8841794  33.1783130
  11.5963073 105.7444333  32.8446300  10.8749659 106.3580301  32.7053773
  12.3856329 106.2802098  32.7662946  22.0389813 117.1904621  35.2948710
  21.0920149 117.0709972  35.2227036  22.3872586 116.3027119  35.3774971
  14.3989387 103.0798760  39.1186952  14.9223788 103.3261056  39.8813261
  14.1801720 103.9118795  38.6990089   9.7956668 105.3502434  26.9858076
   9.4669374 104.4699813  26.8033182  10.1496038 105.2950103  27.8734466
  19.0436247 116.9857337  31.4953062  18.8961209 116.0574044  31.6760632
  19.8689740 117.0077428  31.0110137  12.9098491 105.6375404  27.3533554
  13.2494563 106.1661325  26.6312162  13.3570611 105.9755810  28.1292121
  22.6470368 117.8085896  32.5817935  23.5716916 117.6028757  32.4442386
  22.4785672 117.5602297  33.4907276  15.6041932 104.0212455  36.8036622
  15.2638752 103.2220268  37.2057302  14.8980938 104.3214166  36.2313455
  16.2558404 101.1061767  35.2563945  17.0784473 100.6322245  35.1342835
  16.4996467 101.8852251  35.7562631  14.8966638 104.1350026  25.5526847
  15.6175001 104.5131279  25.0490564  14.2731942 104.8538903  25.6561825
  19.0397761 104.8395175  26.4885179  19.2561375 105.7219813  26.1874007
  18.5591828 104.4481388  25.7590821  13.7796982 107.7980888  33.0655924
  13.6341563 108.1121191  33.9580205  13.3022186 108.4165788  32.5126822
  15.6393365 104.7883436  33.1136813  15.6254934 103.8924529  32.7769111
  16.3565793 104.7954100  33.7475099  17.4919496 105.2220776  35.1589941
  17.2337274 106.1437847  35.1574271  16.9604536 104.8251211  35.8490405
  22.4365685 118.3271563  27.9380026  22.6102562 117.7617986  27.1853879
  22.9294576 119.1272458  27.7559516   8.2542644 110.3386232  36.0043585
   7.7096113 111.1146040  36.1363859   9.1321994 110.6857037  35.8462706
  15.0430261 103.6697816  28.3824383  15.1646172 102.7414462  28.5815271
  14.7532303 103.6836502  27.4702699  17.9121451 101.3552727  31.5191103
  17.9343148 101.4192060  30.5643083  18.3289510 100.5157235  31.7131609
  28.2905076 111.0907986  29.5570326  28.7336222 110.3415311  29.1589449
  27.4131586 111.0818123  29.1744058  23.4240857 117.6438328  25.0376924
  24.1191762 118.2645020  25.2564239  23.7664007 116.7933679  25.3129302
   9.0408666 109.4656129  38.8973742   8.2990402 109.6138764  39.4838372
   8.7201411 109.7264394  38.0340491  25.3232280 115.0938033  26.5664255
  25.8483604 115.4325306  25.8413575  25.2354633 114.1585049  26.3827390
  16.9852329 119.0072107  38.6954132  17.2939455 118.7621254  39.5676831
  17.7827811 119.2118745  38.2073002  17.0072941 121.1610016  30.9259508
  16.5677931 120.6686395  31.6192365  17.7581058 120.6182984  30.6851584
  14.4546813 116.7048026  32.9981810  13.8326822 116.0418731  32.6984038
  15.1251680 116.7309157  32.3155458  14.5271341 105.1829814  42.5914316
  14.5759496 106.0591936  42.2092086  15.0693855 104.6407207  42.0185959
  25.0126186 115.7270937  41.8715453  24.2221730 115.7095076  41.3319952
  24.7759541 116.2659231  42.6264490  25.1324061 112.5763403  39.1848182
  25.1822066 112.4113411  40.1263704  25.0237985 111.7090662  38.7946062
  22.4227824 108.5594331  40.5007488  23.3237686 108.4200796  40.2091486
  22.4975798 108.7248786  41.4405666  16.7570629 105.9361186  39.3460675
  15.8873938 106.2294752  39.0743263  16.9930109 106.5201631  40.0667938
  26.6342258 114.9960345  39.4290203  26.3427066 115.3590325  40.2653664
  26.0214389 114.2827353  39.2503535  27.8337940 112.5613224  31.9492773
  28.6684832 113.0003029  32.1130334  27.9697069 112.0851878  31.1301019
  24.8829446 110.1192959  37.8970261  25.3583568 110.3120606  37.0889113
  23.9595012 110.1752145  37.6513645  19.4609663 102.1540803  36.8626095
  19.9791607 102.8901830  36.5372584  19.1064796 102.4604796  37.6972854
  19.7122257  98.5741085  32.3826992  19.9924011  97.9064275  33.0087418
  20.4972864  98.7670181  31.8701655  23.5831115 106.9958719  36.1298567
  24.5348538 107.0956817  36.1510791  23.4134566 106.2036988  36.6396651
  21.6045495 104.0814303  36.3157968  21.0095427 104.3619315  35.6204456
  21.3195192 104.5708204  37.0874709  20.7352985 118.0337229  25.0760600
  21.6683659 117.9682791  25.2793476  20.6476198 118.8693496  24.6175133
  23.3641002 117.3503100  22.0364548  23.2854634 117.0162963  22.9300306
  24.1850669 117.8424868  22.0356020  26.0619193 110.2164839  35.2440866
  26.0295513 109.2780840  35.4300550  26.6719817 110.2948876  34.5106691
  17.9002524 109.0860892  21.2868070  18.8461629 108.9567100  21.3556488
  17.5216769 108.3475554  21.7637499  26.2113682 107.0075883  35.2899150
  25.6952730 106.2234339  35.1029078  27.0953630 106.6794599  35.4545669
  23.8724409 100.7516898  31.2494962  23.6749230 100.4431986  32.1338294
  24.4824114 101.4778537  31.3792892  31.8795743 111.2780846  34.3846903
  32.6099132 111.0166134  34.9454607  31.2702689 110.5409568  34.4248971
  29.9611040 109.4188709  34.9821354  29.2344204 109.2844673  34.3737846
  29.5458327 109.7265537  35.7878072  17.7841217 113.1378638  42.7468727
  18.7044226 113.3157237  42.9408774  17.7490800 112.1934684  42.5948427
   7.0023382 108.3317232  31.6722002   6.6826166 107.4782540  31.3796376
   6.4556810 108.5465810  32.4279969  10.7803289 111.0479673  35.3891509
  10.9989299 111.9796781  35.4079542  11.1929063 110.6887647  36.1746312
  17.7007507 101.5547758  27.3767197  16.8908235 101.2094843  27.7522443
  18.3891924 101.2455302  27.9654809  19.6298055 100.6325805  28.9991494
  20.1829094 101.0521258  29.6581517  19.8668142  99.7061553  29.0414450
  15.6531154 106.6212879  44.7794258  15.5527881 107.5707236  44.7106349
  15.4352697 106.2931118  43.9070328  14.8544226 103.8697804  21.3634935
  15.7163390 104.1952702  21.6230752  15.0394570 103.0829300  20.8508001
   6.8711642 111.9520143  33.6415124   6.1775113 111.5374096  33.1285078
   7.6184633 111.9940680  33.0448543  23.0076862 102.7426330  28.5070158
  22.4275531 103.4011134  28.1248210  22.7412795 101.9203675  28.0957575
  21.4580429 102.1431388  30.7091478  21.9580207 102.2547922  29.9005797
  22.1016037 101.8392441  31.3492287  15.5162425 110.0510017  43.5959319
  15.0329506 110.8510378  43.8023208  15.6023364 110.0617962  42.6426763
   8.7848384 111.8838397  31.5181139   8.7619072 111.9826084  30.5663022
   9.0949021 112.7303548  31.8398305  11.4435762 113.9414552  35.6327753
  12.3979016 113.9098495  35.5657685  11.2448286 113.4805176  36.4477979
  12.0335144 112.5115668  38.1998551  12.8528033 113.0059747  38.2233388
  12.3071952 111.5947636  38.1716118  21.7901740 104.9026421  27.5626506
  20.9027595 105.1876071  27.3446701  22.2055729 104.7420184  26.7153783
  25.1416276 104.9272942  31.2780845  25.9176667 105.4169394  31.5505462
  24.4164411 105.3530996  31.7352715  27.5788835 105.6400561  32.3354786
  28.1733326 105.3996297  31.6248094  27.6515419 104.9207691  32.9628322
  21.7642764 110.4180956  27.7776796  21.7077965 110.8749508  26.9384429
  22.3171107 109.6571641  27.5999639  25.5747570 106.2070688  28.6026916
  25.3184504 105.8067324  29.4335123  24.9500438 106.9214482  28.4777055
  29.8859908 108.9466762  31.1098207  29.3259466 109.0159951  31.8829769
  29.2803411 108.7707746  30.3897703  12.9555117 120.3803489  32.8616393
  12.8387501 121.3248921  32.7595084  12.1347563 120.0777050  33.2502193
  22.8431651 115.1053624  23.7072986  23.6777255 114.6734823  23.5250461
  22.6815994 114.9335638  24.6349881  22.4977543 111.6085738  25.0729325
  22.4426347 111.4430009  24.1317770  21.8723599 112.3161771  25.2291515
   7.2870058 106.8453802  38.8990748   7.9328922 106.3352756  39.3877973
   7.0787209 107.5822484  39.4734173  19.8123451 113.9134650  44.3982888
  20.6814610 114.0875302  44.0369523  19.3330202 114.7329066  44.2758618
  15.8073669 101.1093847  24.6514644  15.7952339 102.0535687  24.8082915
  16.6997091 100.9263992  24.3574105  13.9809631 121.0331751  36.0772322
  14.8836878 121.0655361  36.3938817  13.7547001 120.1032202  36.0918658
  15.7363233 119.7862737  32.7382401  14.7858864 119.7864599  32.6246773
  16.0395719 119.0395472  32.2218435  19.6225788  97.7036623  28.9060581
  18.8558184  97.1495110  29.0517263  20.0336493  97.7758492  29.7674732
  11.6267549 103.9921419  42.9965762  12.4899011 103.6358224  43.2069086
  11.0532960 103.6535314  43.6841166  31.4715926 125.6223276  33.8028163
  32.1094336 125.5030023  33.0991503  31.3536769 126.5704119  33.8616115
  28.2805633 125.5750704  33.7389688  27.9424144 125.4591768  32.8510222
  29.1495401 125.1741869  33.7190694  24.1392448 127.4286180  29.7286579
  23.5757313 127.3376117  28.9602866  24.0244843 126.6086084  30.2089071
  28.7625416 126.7285555  39.6975893  28.7514056 126.3338354  38.8256397
  28.9246055 125.9951628  40.2909665  21.6856880 128.9237372  32.5670799
  22.4778172 128.5828196  32.1517098  21.9253530 129.0332347  33.4872952
  25.4832677 129.5122667  38.6455077  25.1922543 130.4168298  38.5301743
  26.1189661 129.5539195  39.3599147  26.4088884 126.8899516  35.2356437
  27.0052456 126.6655538  34.5213400  26.4663855 126.1484261  35.8381885
  31.0257195 123.3474729  30.8781371  31.8120284 122.9294153  30.5271788
  31.2895899 124.2520822  31.0463019  31.1967272 128.7847580  25.5770028
  30.5613105 128.8582206  26.2890932  30.8664679 129.3741179  24.8989107
  36.4265622 123.2849963  31.7814349  37.1590794 122.7149179  32.0152179
  35.6704978 122.8971563  32.2220855  25.7010201 126.2467057  25.2731003
  25.5846459 125.5711960  25.9412087  25.8112461 125.7599431  24.4563156
  28.0441742 125.7077204  28.9777692  27.6799949 125.1807825  29.6890613
  28.9008858 125.3175673  28.8044177  33.9491042 116.9971537  36.2408958
  33.6174367 117.8666948  36.0170173  33.3536656 116.6807821  36.9202988
  27.6847229 120.7367104  23.9739040  27.8521631 121.6047340  24.3409511
  27.4944398 120.8994385  23.0500330  30.4422562 129.1984083  35.6404871
  30.1423285 130.1009121  35.5320678  30.0973621 128.9316266  36.4926024
  23.8935043 125.6497880  31.6741575  22.9685540 125.5174094  31.8819267
  24.1419456 126.4292099  32.1711518  33.8419706 121.7166623  33.3202308
  32.9336583 121.6482031  33.0261069  33.7907301 122.1938568  34.1484134
  27.6636449 123.1924761  24.9585707  27.5436075 123.6381812  25.7971188
  26.9689038 123.5410079  24.3999245  21.2543854 125.2931153  32.5085364
  21.3836235 125.5465632  33.4224776  20.5741306 125.8858861  32.1890019
  27.9160571 123.1356268  41.2637205  27.1393905 123.6950189  41.2540070
  28.5551134 123.6213051  41.7852076  35.7081352 119.9183061  35.0980182
  35.0655732 120.2115594  34.4519977  35.2036281 119.8035982  35.9033379
  33.3621516 123.6646234  25.7866041  34.2739372 123.8973621  25.6113739
  32.8531163 124.2483279  25.2241120  26.1706944 125.9441722  40.8255172
  26.9121628 126.4826766  40.5489996  25.4643929 126.5708011  40.9826724
  31.6462283 128.0870862  39.4227334  32.0545639 127.6453273  38.6781966
  30.9239545 127.5123490  39.6761527  27.9993353 123.0243469  36.7960891
  28.8454549 123.4482883  36.9395540  27.9391991 122.3677093  37.4899454
  31.9691098 128.6472053  33.1779623  31.3399960 128.8117767  32.4755691
  31.5816760 129.0613662  33.9490587  35.8480330 129.5826491  30.5323987
  35.1631368 129.9625392  29.9821020  35.9324179 130.1921817  31.2655934
  31.1492799 120.6847837  38.4542064  30.9053731 121.4389898  37.9176340
  31.4252729 121.0633185  39.2889312  33.1031261 127.2286450  37.1319330
  33.3148157 127.8718210  36.4553711  33.0561010 126.3948766  36.6641260
  30.7057490 119.8404270  34.0355902  29.8441969 120.1385524  34.3272640
  30.7319925 120.0574669  33.1036935  27.5219060 128.3846461  30.4429708
  27.9857405 128.6634164  29.6534330  27.2575858 127.4829906  30.2602799
  24.4143141 127.9317943  33.3809471  24.9844498 128.3605211  32.7426956
  25.0051253 127.6500527  34.0793657  26.4587946 124.5069613  27.2519273
  27.1611989 124.9590657  27.7193199  26.1268574 123.8653432  27.8799166
  24.9068307 123.0981370  41.6270482  24.2766968 123.7797651  41.8605879
  24.8004395 122.9864452  40.6823621  20.2013280 122.7653166  32.5536407
  19.4112334 123.0210695  32.0776517  20.6924527 123.5801504  32.6588447
  34.2177089 130.1058405  35.3041687  35.0394533 129.7038592  35.0224369
  34.2139492 130.0026639  36.2557803  22.1528025 123.1297745  29.5119883
  21.3559189 123.2416440  30.0303379  21.9253617 123.4684397  28.6460774
  27.9833693 129.6542448  37.4602398  28.0478125 130.1162856  38.2960570
  27.2744617 129.0239813  37.5884708  18.4850983 123.0183656  34.9851397
  18.7359021 123.9030666  35.2508973  19.0210531 122.8388258  34.2126489
  42.3083082 126.4497154  31.6526659  41.5546791 125.8804552  31.4970663
  42.4430624 126.4159818  32.5997294  27.6981711 131.3210556  27.3281378
  27.5627385 132.1662092  27.7566226  28.2391523 131.5229834  26.5647312
  24.1849050 117.4002136  43.9895733  23.7915996 116.8468334  44.6643378
  25.0015190 117.7112714  44.3802251  27.1017011 118.8160015  41.5815990
  27.8426725 119.4167168  41.5020452  27.3334934 118.0737653  41.0234033
  22.2458349 124.0016382  39.8594220  22.1311864 123.1001639  40.1601319
  21.3902867 124.2480079  39.5079036  29.3250187 131.9434122  41.4581720
  28.8814041 131.1570501  41.1402625  29.9867400 132.1313273  40.7925611
  31.4231425 132.2236922  39.4863122  31.4049900 133.0445803  38.9943391
  32.3451345 132.0990998  39.7113263  27.8804479 129.7381052  40.3286630
  28.4132816 128.9769340  40.0985938  27.3518560 129.4454704  41.0710784
  31.0474174 114.8441118  35.8580272  30.7038443 115.7342760  35.7819382
  31.4153137 114.6542775  34.9949857  31.0124457 124.8349729  24.3652707
  30.4971080 125.6054334  24.6041094  30.7401765 124.1614865  24.9885768
  28.5971568 119.6799430  29.4237945  27.7413164 119.2906280  29.2443584
  29.0098520 119.7591391  28.5637731  30.1270714 117.2145773  33.8229505
  29.6235510 117.1775908  33.0097310  30.4201321 118.1238516  33.8826162
  26.3713600 117.2984503  32.8295687  27.2366597 117.1027311  32.4701576
  26.4391109 117.0694855  33.7565043  35.9858731 127.5882084  26.3005880
  35.2088174 127.2493243  25.8561042  36.6650212 127.5934707  25.6260845
  30.8010760 122.7076821  26.1912488  30.4960896 123.0222970  27.0422631
  31.7541202 122.7858241  26.2339821  29.2457192 128.8667044  27.8405442
  28.7178553 128.1319804  27.5278679  28.7444695 129.6441721  27.5945410
  34.2250038 127.0616065  32.9572488  33.5673712 127.7515326  33.0452617
  35.0290437 127.4512497  33.3006475  23.9775919 119.5286711  30.2012053
  24.5519671 119.3061892  29.4685246  24.5646902 119.5975405  30.9540655
  33.0355497 125.4160438  31.0076430  33.5487378 126.0490429  31.5098140
  33.6856721 124.8161633  30.6419790  24.3045507 121.5591172  24.2207939
  23.4682819 121.8965858  24.5417213  24.1650276 121.4240151  23.2835076
  26.2798587 116.4027960  28.9287123  25.6262999 116.0876977  28.3043738
  26.2379061 115.7803700  29.6546946  29.5136328 122.8909893  33.2534771
  28.5958889 123.1124840  33.0956459  29.9296471 122.9656204  32.3946478
  30.2971375 124.2901309  28.3837451  31.0443194 124.8022706  28.0744573
  30.5662965 123.9685362  29.2441844  28.5698025 126.7859850  25.3664405
  27.6609245 126.5018882  25.4636875  28.5993109 127.2058928  24.5067712
  33.8017293 130.3966439  29.1355573  33.3479620 129.5557349  29.1920763
  33.1711260 131.0327837  29.4730353  32.7450212 121.3258425  30.3656240
  32.0072969 120.8135811  30.6966483  32.9976986 120.8858807  29.5539517
  32.2450232 132.2342936  30.0705391  32.5373206 132.7947993  29.3517756
  32.7548853 132.5271497  30.8258550  32.8461840 114.1034677  30.9598009
  33.1520717 113.2432040  30.6723924  33.5714445 114.6952297  30.7597003
  19.1386196 124.5065364  29.3479607  18.9410596 123.9134724  28.6230674
  18.5832860 124.2017574  30.0655546  27.1182919 124.3988470  31.4674200
  27.1731529 123.4462307  31.3916677  26.3074122 124.5547909  31.9515499
  25.0575279 123.0165530  29.2264579  24.2443145 123.3159700  29.6329771
  25.5534274 122.6221219  29.9439062  30.6549491 123.4807354  38.0579473
  31.0098879 123.7078827  38.9173939  31.3021622 123.8125731  37.4356728
  36.3847228 126.6025790  28.7628802  36.2465127 126.7927386  27.8349991
  36.0283447 127.3645173  29.2196853  24.5489354 120.5883885  34.8425814
  25.1888733 120.4472644  34.1448778  23.7166885 120.3018399  34.4664416
  36.4116608 128.6702317  33.7740074  36.8453114 128.5777606  34.6223128
  37.1248188 128.6459818  33.1360090  25.3249658 129.8886316  30.9560807
  26.1190257 129.3936636  30.7543382  24.6141350 129.3604179  30.5928512
  30.1444503 132.2704411  35.3073174  30.1981525 132.8395348  36.0750890
  29.2759284 132.4406296  34.9427211  21.6332422 124.0329398  27.0320559
  20.7030010 123.9713853  27.2490522  21.7289894 123.5105350  26.2357201
  21.5517971 120.5584210  29.6198801  21.8124788 121.4729544  29.5107962
  22.3735143 120.0908653  29.7695414  23.0242896 121.9721968  36.7897626
  23.6965949 121.7639330  36.1410274  22.1972682 121.7744054  36.3502858
  37.2732157 128.7126018  36.3072959  37.4668047 129.6171828  36.5532234
  37.1732775 128.2533437  37.1411544  28.9268468 118.5983908  38.8063286
  28.2796383 119.2973858  38.7127763  29.6969483 119.0320052  39.1739535
  32.3347266 128.8632761  41.8813840  32.1832772 128.6343312  40.9643923
  32.3251945 129.8203362  41.8945185  29.1032602 126.4364673  36.8660106
  30.0324662 126.5875833  36.6929073  28.6823632 126.5248694  36.0108753
  27.9020934 130.4615338  34.6358644  27.7632020 130.0934122  35.5084582
  27.1135530 130.9762977  34.4642602  29.4526149 129.8396940  32.0247482
  29.1175982 129.7997710  32.9205131  28.9530095 129.1741656  31.5517892
  23.4270393 125.2464571  37.5500063  23.2890191 124.5144809  38.1511602
  24.3375317 125.1573471  37.2684251  32.3885341 127.1852975  22.2984541
  31.7714511 126.4599803  22.2017594  31.9201829 127.9462335  21.9551616
  26.0552694 124.9584530  37.0383742  26.7652312 124.3177722  36.9970361
  26.0122002 125.2097425  37.9609923  34.0439473 131.8951883  39.9590322
  33.9852019 131.2111103  39.2920905  34.4458991 132.6370873  39.5070948
  24.7681628 121.9449748  38.8579382  24.2318985 121.4940486  39.5100978
  24.1798336 122.0795657  38.1149846  34.0456880 129.8591467  38.1904301
  33.1583659 129.5217389  38.3130700  34.6155431 129.1274498  38.4273067
  20.5020749 121.0805755  35.9432376  20.4178938 120.4731425  35.2082786
  19.6803455 121.5714774  35.9441873  30.6744463 119.5659319  31.3102571
  31.1713162 118.8129281  30.9903642  29.9031444 119.6023636  30.7445781
  38.5274220 125.2699684  32.9520863  38.5164097 126.1524400  32.5814796
  37.6591600 124.9171235  32.7575400  31.7574244 128.3231006  28.8840995
  30.8230522 128.4432469  28.7145699  31.9350912 127.4203473  28.6201005
  27.2579432 121.7076702  31.0374256  26.8877219 121.1547742  31.7255162
  27.7538524 121.1034835  30.4849256  35.1446795 124.1648325  29.4191029
  35.6107247 124.9976317  29.3451332  35.5954295 123.6993307  30.1236287
  33.2123026 130.5092147  26.4177181  33.4882870 130.3948741  27.3271055
  32.3427525 130.1109632  26.3789354  33.1163458 116.5328912  33.4581930
  32.2026538 116.7633139  33.6264137  33.5456559 116.6167357  34.3095963
  32.8869916 124.7218804  35.9581824  32.2341366 124.9694712  35.3034277
  33.2650296 123.9082943  35.6244302  28.9357489 125.4638615  42.4447861
  28.2598126 125.3632745  43.1150237  29.7585123 125.3077829  42.9083859
  15.2754003 124.2716152  33.7864820  15.3138103 123.7379743  34.5801938
  14.7694296 123.7451358  33.1675797  22.6544765 119.1180693  37.2827362
  22.7186092 119.9795524  36.8704760  22.5911886 118.5054694  36.5499721
  22.1297038 121.1903825  40.9300396  22.7569077 120.8080903  41.5437921
  21.2724957 120.9718027  41.2956089  32.5291146 131.5966800  42.5354132
  33.0731050 132.2096759  42.0409087  31.9477991 132.1546379  43.0521145
  22.4356828 121.0736251  32.8446300  21.7143413 121.6872219  32.7053773
  23.2250083 121.6094016  32.7662946  32.8783568 132.5196539  35.2948710
  31.9313903 132.4001890  35.2227036  33.2266341 131.6319037  35.3774971
  25.2383141 118.4090677  39.1186952  25.7617543 118.6552974  39.8813261
  25.0195474 119.2410712  38.6990089  20.6350422 120.6794352  26.9858076
  20.3063128 119.7991731  26.8033182  20.9889793 120.6242021  27.8734466
  29.8830001 132.3149255  31.4953062  29.7354963 131.3865962  31.6760632
  30.7083495 132.3369345  31.0110137  23.7492245 120.9667322  27.3533554
  24.0888318 121.4953243  26.6312162  24.1964366 121.3047728  28.1292121
  33.4864123 133.1377813  32.5817935  34.4110670 132.9320675  32.4442386
  33.3179426 132.8894215  33.4907276  26.4435686 119.3504373  36.8036622
  26.1032507 118.5512186  37.2057302  25.7374692 119.6506083  36.2313455
  27.0952158 116.4353685  35.2563945  27.9178227 115.9614163  35.1342835
  27.3390222 117.2144169  35.7562631  25.7360392 119.4641943  25.5526847
  26.4568755 119.8423196  25.0490564  25.1125697 120.1830820  25.6561825
  29.8791515 120.1687092  26.4885179  30.0955130 121.0511730  26.1874007
  29.3985583 119.7773306  25.7590821  24.6190737 123.1272806  33.0655924
  24.4735317 123.4413109  33.9580205  24.1415940 123.7457706  32.5126822
  26.4787120 120.1175354  33.1136813  26.4648688 119.2216447  32.7769111
  27.1959548 120.1246017  33.7475099  28.3313250 120.5512694  35.1589941
  28.0731028 121.4729764  35.1574271  27.7998291 120.1543128  35.8490405
  33.2759439 133.6563481  27.9380026  33.4496317 133.0909903  27.1853879
  33.7688330 134.4564376  27.7559516  19.0936399 125.6678150  36.0043585
  18.5489867 126.4437958  36.1363859  19.9715749 126.0148954  35.8462706
  25.8824016 118.9989734  28.3824383  26.0039927 118.0706380  28.5815271
  25.5926058 119.0128420  27.4702699  28.7515206 116.6844644  31.5191103
  28.7736903 116.7483977  30.5643083  29.1683265 115.8449153  31.7131609
  39.1298830 126.4199904  29.5570326  39.5729976 125.6707229  29.1589449
  38.2525341 126.4110040  29.1744058  34.2634612 132.9730245  25.0376924
  34.9585516 133.5936938  25.2564239  34.6057762 132.1225597  25.3129302
  19.8802421 124.7948046  38.8973742  19.1384157 124.9430682  39.4838372
  19.5595165 125.0556312  38.0340491  36.1626035 130.4229951  26.5664255
  36.6877359 130.7617224  25.8413575  36.0748387 129.4876966  26.3827390
  25.3665095 120.5121731  42.5914316  25.4153251 121.3883854  42.2092086
  25.9087609 119.9699124  42.0185959  35.8519941 131.0562855  41.8715453
  35.0615484 131.0386993  41.3319952  35.6153295 131.5951148  42.6264490
  35.9717816 127.9055321  39.1848182  36.0215821 127.7405328  40.1263704
  35.8631739 127.0382580  38.7946062  33.2621578 123.8886249  40.5007488
  34.1631441 123.7492714  40.2091486  33.3369553 124.0540704  41.4405666
  27.5964384 121.2653104  39.3460675  26.7267693 121.5586670  39.0743263
  27.8323864 121.8493549  40.0667938  37.4736013 130.3252262  39.4290203
  37.1820821 130.6882243  40.2653664  36.8608144 129.6119271  39.2503535
  38.6731695 127.8905142  31.9492773  39.5078586 128.3294946  32.1130334
  38.8090824 127.4143795  31.1301019  35.7223201 125.4484877  37.8970261
  36.1977323 125.6412523  37.0889113  34.7988766 125.5044063  37.6513645
  30.3003417 117.4832721  36.8626095  30.8185361 118.2193748  36.5372584
  29.9458550 117.7896714  37.6972854  30.5516012 113.9033003  32.3826992
  30.8317765 113.2356192  33.0087418  31.3366618 114.0962099  31.8701655
  34.4224870 122.3250637  36.1298567  35.3742293 122.4248735  36.1510791
  34.2528320 121.5328906  36.6396651  32.4439249 119.4106220  36.3157968
  31.8489181 119.6911233  35.6204456  32.1588946 119.9000121  37.0874709
  34.2034757 132.6795017  22.0364548  34.1248388 132.3454881  22.9300306
  35.0244423 133.1716785  22.0356020  36.9012948 125.5456757  35.2440866
  36.8689268 124.6072758  35.4300550  37.5113571 125.6240794  34.5106691
  28.7396279 124.4152810  21.2868070  29.6855383 124.2859018  21.3556488
  28.3610524 123.6767472  21.7637499  37.0507436 122.3367800  35.2899150
  36.5346485 121.5526257  35.1029078  37.9347385 122.0086517  35.4545669
  34.7118163 116.0808816  31.2494962  34.5142984 115.7723904  32.1338294
  35.3217869 116.8070455  31.3792892  42.7189498 126.6072764  34.3846903
  43.4492886 126.3458052  34.9454607  42.1096443 125.8701486  34.4248971
  40.8004795 124.7480626  34.9821354  40.0737958 124.6136591  34.3737846
  40.3852082 125.0557455  35.7878072  28.6234971 128.4670556  42.7468727
  29.5437981 128.6449155  42.9408774  28.5884554 127.5226601  42.5948427
  17.8417136 123.6609150  31.6722002  17.5219920 122.8074458  31.3796376
  17.2950564 123.8757728  32.4279969  21.6197044 126.3771591  35.3891509
  21.8383053 127.3088698  35.4079542  22.0322817 126.0179565  36.1746312
  28.5401261 116.8839676  27.3767197  27.7301990 116.5386761  27.7522443
  29.2285678 116.5747220  27.9654809  30.4691810 115.9617723  28.9991494
  31.0222848 116.3813176  29.6581517  30.7061896 115.0353471  29.0414450
  26.4924909 121.9504796  44.7794258  26.3921636 122.8999153  44.7106349
  26.2746451 121.6223035  43.9070328  25.6937980 119.1989721  21.3634935
  26.5557144 119.5244620  21.6230752  25.8788324 118.4121217  20.8508001
  17.7105396 127.2812061  33.6415124  17.0168868 126.8666014  33.1285078
  18.4578387 127.3232598  33.0448543  33.8470617 118.0718248  28.5070158
  33.2669286 118.7303052  28.1248210  33.5806549 117.2495592  28.0957575
  32.2974183 117.4723306  30.7091478  32.7973962 117.5839840  29.9005797
  32.9409791 117.1684358  31.3492287  26.3556179 125.3801935  43.5959319
  25.8723261 126.1802295  43.8023208  26.4417118 125.3909880  42.6426763
  19.6242139 127.2130315  31.5181139  19.6012827 127.3118002  30.5663022
  19.9342775 128.0595466  31.8398305  22.2829517 129.2706470  35.6327753
  23.2372770 129.2390412  35.5657685  22.0842040 128.8097094  36.4477979
  22.8728899 127.8407586  38.1998551  23.6921788 128.3351665  38.2233388
  23.1465706 126.9239554  38.1716118  32.6295495 120.2318338  27.5626506
  31.7421350 120.5167989  27.3446701  33.0449484 120.0712102  26.7153783
  35.9810031 120.2564859  31.2780845  36.7570421 120.7461312  31.5505462
  35.2558165 120.6822913  31.7352715  38.4182590 120.9692478  32.3354786
  39.0127080 120.7288214  31.6248094  38.4909173 120.2499609  32.9628322
  32.6036519 125.7472874  27.7776796  32.5471720 126.2041426  26.9384429
  33.1564861 124.9863559  27.5999639  36.4141324 121.5362606  28.6026916
  36.1578259 121.1359242  29.4335123  35.7894193 122.2506400  28.4777055
  40.7253662 124.2758679  31.1098207  40.1653220 124.3451869  31.8829769
  40.1197166 124.0999664  30.3897703  33.6825406 130.4345542  23.7072986
  34.5171010 130.0026741  23.5250461  33.5209749 130.2627556  24.6349881
  33.3371298 126.9377655  25.0729325  33.2820102 126.7721927  24.1317770
  32.7117353 127.6453688  25.2291515  18.1263813 122.1745720  38.8990748
  18.7722676 121.6644674  39.3877973  17.9180964 122.9114401  39.4734173
  30.6517205 129.2426567  44.3982888  31.5208365 129.4167220  44.0369523
  30.1723957 130.0620984  44.2758618  26.6467423 116.4385764  24.6514644
  26.6346093 117.3827604  24.8082915  27.5390845 116.2555910  24.3574105
  30.4619543 113.0328541  28.9060581  29.6951939 112.4787028  29.0517263
  30.8730248 113.1050410  29.7674732  22.4661304 119.3213337  42.9965762
  23.3292765 118.9650142  43.2069086  21.8926715 118.9827232  43.6841166
  47.2659376 138.6141880  31.7814349  47.9984548 138.0441097  32.0152179
  46.5098732 138.2263481  32.2220855  44.7884797 132.3263454  36.2408958
  44.4568122 133.1958865  36.0170173  44.1930410 132.0099738  36.9202988
  44.6813460 137.0458541  33.3202308  43.7730337 136.9773949  33.0261069
  44.6301056 137.5230485  34.1484134  46.5475106 135.2474979  35.0980182
  45.9049487 135.5407512  34.4519977  46.0430035 135.1327899  35.9033379
  41.9886553 136.0139755  38.4542064  41.7447485 136.7681816  37.9176340
  42.2646484 136.3925103  39.2889312  41.5451245 135.1696188  34.0355902
  40.6835724 135.4677442  34.3272640  41.5713680 135.3866587  33.1036935
  35.0242805 132.7294054  43.9895733  34.6309750 132.1760252  44.6643378
  35.8408945 133.0404632  44.3802251  37.9410766 134.1451933  41.5815990
  38.6820479 134.7459086  41.5020452  38.1728688 133.4029570  41.0234033
  41.8867929 130.1733036  35.8580272  41.5432198 131.0634677  35.7819382
  42.2546891 129.9834693  34.9949857  39.4365322 135.0091347  29.4237945
  38.5806919 134.6198198  29.2443584  39.8492274 135.0883308  28.5637731
  40.9664469 132.5437691  33.8229505  40.4629265 132.5067826  33.0097310
  41.2595076 133.4530433  33.8826162  37.2107355 132.6276420  32.8295687
  38.0760352 132.4319229  32.4701576  37.2784864 132.3986772  33.7565043
  34.8169674 134.8578628  30.2012053  35.3913426 134.6353810  29.4685246
  35.4040656 134.9267323  30.9540655  37.1192342 131.7319877  28.9287123
  36.4656754 131.4168894  28.3043738  37.0772816 131.1095618  29.6546946
  43.5843967 136.6550343  30.3656240  42.8466724 136.1427729  30.6966483
  43.8370740 136.2150724  29.5539517  43.6855594 129.4326595  30.9598009
  43.9914471 128.5723958  30.6723924  44.4108199 130.0244215  30.7597003
  39.7662222 133.9275826  38.8063286  39.1190137 134.6265776  38.7127763
  40.5363238 134.3611970  39.1739535  41.5138217 134.8951237  31.3102571
  42.0106917 134.1421199  30.9903642  40.7425199 134.9315553  30.7445781
  43.9557212 131.8620830  33.4581930  43.0420292 132.0925057  33.6264137
  44.3850314 131.9459274  34.3095963  36.0776896 133.7382595  39.1186952
  36.6011297 133.9844892  39.8813261  35.8589229 134.5702630  38.6990089
  37.2829441 134.6796290  36.8036622  36.9426261 133.8804103  37.2057302
  36.5768447 134.9798001  36.2313455  37.9345912 131.7645603  35.2563945
  38.7571982 131.2906081  35.1342835  38.1783976 132.5436086  35.7562631
  40.7185270 135.4979010  26.4885179  40.9348884 136.3803648  26.1874007
  40.2379337 135.1065223  25.7590821  37.3180874 135.4467271  33.1136813
  37.3042443 134.5508365  32.7769111  38.0353302 135.4537935  33.7475099
  36.7217770 134.3281652  28.3824383  36.8433681 133.3998298  28.5815271
  36.4319812 134.3420338  27.4702699  39.5908960 132.0136562  31.5191103
  39.6130657 132.0775895  30.5643083  40.0077019 131.1741071  31.7131609
  41.1397172 132.8124638  36.8626095  41.6579116 133.5485665  36.5372584
  40.7852305 133.1188632  37.6972854  41.3909766 129.2324921  32.3826992
  41.6711520 128.5648110  33.0087418  42.1760373 129.4254016  31.8701655
  45.2618624 137.6542555  36.1298567  46.2136047 137.7540652  36.1510791
  45.0922075 136.8620823  36.6396651  43.2833004 134.7398138  36.3157968
  42.6882936 135.0203151  35.6204456  42.9982701 135.2292039  37.0874709
  47.8901191 137.6659718  35.2899150  47.3740239 136.8818175  35.1029078
  48.7741139 137.3378435  35.4545669  45.5511918 131.4100733  31.2494962
  45.3536739 131.1015822  32.1338294  46.1611623 132.1362372  31.3792892
  51.6398549 140.0772544  34.9821354  50.9131713 139.9428509  34.3737846
  51.2245836 140.3849373  35.7878072  39.3795016 132.2131594  27.3767197
  38.5695744 131.8678679  27.7522443  40.0679433 131.9039137  27.9654809
  41.3085564 131.2909640  28.9991494  41.8616603 131.7105094  29.6581517
  41.5455651 130.3645388  29.0414450  36.5331735 134.5281639  21.3634935
  37.3950899 134.8536537  21.6230752  36.7182079 133.7413135  20.8508001
  44.6864371 133.4010166  28.5070158  44.1063040 134.0594970  28.1248210
  44.4200304 132.5787510  28.0957575  43.1367938 132.8015223  30.7091478
  43.6367716 132.9131758  29.9005797  43.7803546 132.4976276  31.3492287
  43.4689249 135.5610256  27.5626506  42.5815104 135.8459907  27.3446701
  43.8843238 135.4004019  26.7153783  46.8203785 135.5856777  31.2780845
  47.5964176 136.0753229  31.5505462  46.0951920 136.0114831  31.7352715
  49.2576344 136.2984396  32.3354786  49.8520835 136.0580132  31.6248094
  49.3302928 135.5791527  32.9628322  47.2535079 136.8654524  28.6026916
  46.9972013 136.4651159  29.4335123  46.6287947 137.5798318  28.4777055
  51.5647417 139.6050597  31.1098207  51.0046975 139.6743786  31.8829769
  50.9590920 139.4291582  30.3897703  37.4861178 131.7677682  24.6514644
  37.4739848 132.7119522  24.8082915  38.3784600 131.5847827  24.3574105
  41.3013297 128.3620459  28.9060581  40.5345693 127.8078945  29.0517263
  41.7124002 128.4342327  29.7674732   0.5849999  58.2472819  23.8564637
   0.7966894  58.8904579  23.1799018   0.5379748  57.4135136  23.3886567
   1.6995827  61.1244775  22.0286994   2.5213271  60.7224962  21.7469676
   1.6958230  61.0213009  22.9803110   3.8935345  59.6888687  20.4985380
   4.3271852  59.5963976  21.3468434   4.6066926  59.6646187  19.8605396
   4.7550895  59.7312387  23.0318266   4.9486785  60.6358198  23.2777541
   4.6551513  59.2719807  23.8656851   1.5258210  62.9138253  26.6835628
   1.4670756  62.2297473  26.0166211   1.9277729  63.6557243  26.2316254
   1.5275618  60.8777837  24.9149608   0.6402396  60.5403758  25.0376007
   2.0974169  60.1460868  25.1518373   0.9682861  64.1564183  19.3063241
   1.8929408  63.9507044  19.1687692   0.7998164  63.9080584  20.2152583
   3.3338679  62.0749224  28.5960760   2.5434222  62.0573363  28.0565259
   3.0972033  62.6137518  29.3509796   3.4536554  58.9241690  25.9093488
   3.5034559  58.7591698  26.8509011   3.3450477  58.0568949  25.5191369
   0.7440316  54.9072618  27.2252795   1.6450179  54.7679083  26.9336793
   0.8188291  55.0727073  28.1650972   4.9554750  61.3438632  26.1535510
   4.6639559  61.7068613  26.9898971   4.3426882  60.6305640  25.9748842
   3.2041939  56.4671247  24.6215568   3.6796060  56.6598893  23.8134419
   2.2807504  56.5230432  24.3758951   4.3831685  56.5643126  21.9686173
   4.3508006  55.6259127  22.1545857   4.9932309  56.6427163  21.2351998
  10.2008235  57.6259133  21.1092210  10.9311624  57.3644421  21.6699913
   9.5915181  56.8887855  21.1494278   8.2823532  55.7666996  21.7066661
   7.5556696  55.6322961  21.0983153   7.8670819  56.0743824  22.5123379
   9.7928419  71.9701563  20.5273470  10.4306829  71.8508310  19.8236810
   9.6749261  72.9182407  20.5861422   6.6018125  71.9228991  20.4634994
   6.2636636  71.8070056  19.5755529   7.4707893  71.5220156  20.4436000
   2.4604941  73.7764467  16.4531885   1.8969806  73.6854404  15.6848173
   2.3457336  72.9564372  16.9334378   7.0837908  73.0763843  26.4221200
   7.0726549  72.6816641  25.5501703   7.2458547  72.3429915  27.0154971
   3.8045169  75.8600954  25.3700384   3.5135035  76.7646585  25.2547050
   4.4402153  75.9017482  26.0844453   4.7301376  73.2377803  21.9601743
   5.3264948  73.0133825  21.2458706   4.7876347  72.4962548  22.5627191
   9.3469687  69.6953017  17.6026678  10.1332776  69.2772440  17.2517095
   9.6108391  70.5999109  17.7708326   9.5179764  75.1325867  12.3015334
   8.8825597  75.2060493  13.0136239   9.1877171  75.7219466  11.6234414
  14.7478114  69.6328250  18.5059656  15.4803286  69.0627467  18.7397486
  13.9917470  69.2449850  18.9466162   6.3654234  72.0555491  15.7022999
   6.0012441  71.5286112  16.4135920   7.2221350  71.6653960  15.5289484
  12.2703535  63.3449824  22.9654265  11.9386859  64.2145235  22.7415480
  11.6749148  63.0286108  23.6448295   8.7635054  75.5462370  22.3650177
   8.4635777  76.4487409  22.2565985   8.4186114  75.2794553  23.2171330
   2.2147536  71.9976167  18.3986882   1.2898032  71.8652381  18.6064574
   2.4631949  72.7770386  18.8956824  12.1632198  68.0644910  20.0447615
  11.2549075  67.9960319  19.7506376  12.1119794  68.5416855  20.8729440
   6.2373064  69.4834556  27.9882512   5.4606398  70.0428476  27.9785377
   6.8763627  69.9691339  28.5097382  14.0293844  66.2661348  21.8225489
  13.3868225  66.5593882  21.1765283  13.5248773  66.1514269  22.6278685
  11.6834008  70.0124522  12.5111348  12.5951864  70.2451908  12.3359045
  11.1743655  70.5961566  11.9486427   4.4919436  72.2920009  27.5500479
   5.2334120  72.8305053  27.2735303   3.7856421  72.9186298  27.7072031
   9.9674776  74.4349150  26.1472641  10.3758132  73.9931560  25.4027273
   9.2452037  73.8601777  26.4006833   6.3205846  69.3721756  23.5206197
   7.1667041  69.7961170  23.6640846   6.2604483  68.7155381  24.2144761
  10.2903590  74.9950340  19.9024929   9.6612453  75.1596054  19.2000997
   9.9029252  75.4091950  20.6735893  14.1692822  75.9304778  17.2569293
  13.4843860  76.3103679  16.7066326  14.2536671  76.5400105  17.9901241
   9.4705291  67.0326125  25.1787371   9.2266223  67.7868185  24.6421647
   9.7465221  67.4111472  26.0134618  11.4243754  73.5764737  23.8564637
  11.6360649  74.2196497  23.1799018  11.3773502  72.7427054  23.3886567
   9.0269983  66.1882558  20.7601209   8.1654462  66.4863811  21.0517946
   9.0532417  66.4052957  19.8282241   5.8431552  74.7324748  17.1675015
   6.3069898  75.0112451  16.3779637   5.5788350  73.8308193  16.9848105
   2.7355633  74.2796230  20.1054778   3.3056990  74.7083498  19.4672262
   3.3263745  73.9978814  20.8038963   4.7800438  70.8547901  13.9764580
   5.4824482  71.3068944  14.4438506   4.4481067  70.2131719  14.6044473
   3.2280800  69.4459657  28.3515789   2.5979460  70.1275938  28.5851186
   3.1216888  69.3342739  27.4068927  12.5389582  76.4536692  22.0286994
  13.3607025  76.0516880  21.7469676  12.5351985  76.3504927  22.9803110
   6.3046185  76.0020736  24.1847705   6.3690618  76.4641143  25.0205876
   5.5957109  75.3718101  24.3130014  20.6295575  72.7975441  18.3771966
  19.8759283  72.2282839  18.2215970  20.7643116  72.7638105  19.3242600
   6.0194203  77.6688843  14.0526685   5.8839878  78.5140379  14.4811533
   6.5604015  77.8708121  13.2892619   2.5061542  63.7480423  30.7141040
   2.1128488  63.1946622  31.3888684   3.3227683  64.0591002  31.1047558
   5.4229503  65.1638302  28.3061297   6.1639217  65.7645455  28.2265759
   5.6547426  64.4215940  27.7479339   7.6462679  78.2912410  28.1827027
   7.2026533  77.5048788  27.8647931   8.3079893  78.4791560  27.5170918
   2.4049800  79.8208211  22.7087705   2.9557225  79.6925275  21.9364699
   1.5661276  80.1203100  22.3582598   9.7443917  78.5715210  26.2108428
   9.7262393  79.3924091  25.7188697  10.6663837  78.4469285  26.4358569
   6.2016971  76.0859339  27.0531937   6.7345308  75.3247627  26.8231245
   5.6731052  75.7932991  27.7956091   9.3686666  61.1919405  22.5825578
   9.0250936  62.0821047  22.5064689   9.7365629  61.0021063  21.7195163
   9.3336949  71.1828016  11.0898013   8.8183573  71.9532621  11.3286401
   9.0614258  70.5093152  11.7131075   6.9184060  66.0277717  16.1483252
   6.0625656  65.6384567  15.9688891   7.3311012  66.1069678  15.2883037
   8.4483207  63.5624060  20.5474812   7.9448002  63.5254195  19.7342617
   8.7413814  64.4716803  20.6071468   4.6926093  63.6462790  19.5540993
   5.5579089  63.4505599  19.1946883   4.7603602  63.4173142  20.4810350
  14.3071223  73.9360371  13.0251187  13.5300666  73.5971530  12.5806349
  14.9862704  73.9412994  12.3506152   9.1223252  69.0555108  12.9157795
   8.8173388  69.3701257  13.7667938  10.0753694  69.1336528  12.9585128
   7.5669684  75.2145332  14.5650749   7.0391046  74.4798091  14.2523986
   7.0657187  75.9920008  14.3190717  12.5462530  73.4094352  19.6817795
  11.8886205  74.0993614  19.7697924  13.3502929  73.7990784  20.0251781
  11.3567989  71.7638725  17.7321737  11.8699871  72.3968717  18.2343446
  12.0069213  71.1639920  17.3665097   7.8348820  69.2388180  19.9780077
   6.9171381  69.4603127  19.8201765   8.2508963  69.3134491  19.1191785
   8.6183868  70.6379596  15.1082757   9.3655686  71.1500993  14.7989879
   8.8875457  70.3163649  15.9687151   6.8910518  73.1338137  12.0909712
   5.9821737  72.8497170  12.1882181   6.9205602  73.5537215  11.2313019
  12.1229785  76.7444726  15.8600879  11.6692112  75.9035636  15.9166070
  11.4923752  77.3806125  16.1975659  11.0662705  67.6736712  17.0901547
  10.3285461  67.1614098  17.4211789  11.3189478  67.2337094  16.2784824
  10.5662724  78.5821223  16.7950697  10.8585699  79.1426280  16.0763063
  11.0761345  78.8749784  17.5503857  11.1674332  60.4512964  17.6843316
  11.4733209  59.5910328  17.3969231  11.8926937  61.0430584  17.4842310
   5.4395412  70.7466757  18.1919507   5.4944022  69.7940594  18.1161984
   4.6286614  70.9026196  18.6760805   3.3787772  69.3643817  15.9509886
   2.5655637  69.6637988  16.3575078   3.8746766  68.9699506  16.6684368
   5.5296350  79.3601574  17.8844151   5.4872528  79.5862420  16.9552683
   6.4459048  79.1264949  18.0329952   8.9761983  69.8285642  24.7824780
   9.3311371  70.0557115  25.6419246   9.6234115  70.1604018  24.1602035
  14.7059720  72.9504077  15.4874109  14.5677619  73.1405673  14.5595298
  14.3495939  73.7123460  15.9442160   2.8701846  66.9362173  21.5671121
   3.5101226  66.7950932  20.8694084   2.0379377  66.6496686  21.1909723
  14.7329100  75.0180604  20.4985380  15.1665607  74.9255894  21.3468434
  15.4460681  74.9938105  19.8605396   3.6462150  76.2364603  17.6806113
   4.4402749  75.7414923  17.4788688   2.9353843  75.7082466  17.3173819
   8.4656995  78.6182699  22.0318481   8.5194017  79.1873635  22.7996197
   7.5971776  78.7884584  21.6672518   1.3455388  68.3200255  23.5142932
   2.0178442  68.1117617  22.8655581   0.5185175  68.1222341  23.0748165
  15.5944649  75.0604305  23.0318266  15.7880540  75.9650116  23.2777541
  15.4945268  74.6011724  23.8656851   7.2480960  64.9462196  25.5308593
   6.6008875  65.6452145  25.4373070   8.0181976  65.3798340  25.8984841
  10.6559758  75.2111048  28.6059146  10.5045265  74.9821600  27.6889230
  10.6464438  76.1681649  28.6190491   7.4245095  72.7842961  23.5905413
   8.3537155  72.9354120  23.4174380   7.0036125  72.8726981  22.7354059
   6.2233426  76.8093625  21.3603950   6.0844512  76.4412409  22.2329889
   5.4348023  77.3241264  21.1887908   7.7738641  76.1875228  18.7492788
   7.4388474  76.1475998  19.6450438   7.2742587  75.5219944  18.2763198
   1.7482885  71.5942858  24.2745369   1.6102683  70.8623097  24.8756908
   2.6587809  71.5051758  23.9929557   4.3765186  71.3062817  23.7629049
   5.0864805  70.6656009  23.7215667   4.3334494  71.5575712  24.6855230
  12.3651965  78.2430170  26.6835628  12.3064511  77.5589391  26.0166211
  12.7671483  78.9849160  26.2316254   3.0894120  68.2928035  25.5824689
   2.5531477  67.8418773  26.2346285   2.5010829  68.4273944  24.8395153
  12.3669372  76.2069754  24.9149608  11.4796151  75.8695676  25.0376007
  12.9367923  75.4752786  25.1518373   5.8970525  80.8671207  21.8810851
   5.8240697  81.6726178  22.3930156   5.4547919  81.0663173  21.0558873
   5.6860305  80.1042977  15.3913673   4.9027827  80.6464657  15.4851897
   6.3853050  80.6216956  15.7907914   8.9956955  65.9137606  18.0347878
   9.4925655  65.1607569  17.7148948   8.2243937  65.9501923  17.4691087
  16.8486713  71.6177972  19.6766170  16.8376589  72.5002687  19.3060103
  15.9804092  71.2649523  19.4820707   8.3569209  80.7658041  24.0369010
   9.0697181  81.4005506  23.9644911   7.8659238  80.8621907  23.2209012
  10.0786736  74.6709293  15.6086301   9.1443015  74.7910756  15.4391006
  10.2563404  73.7681760  15.3446311   5.5791924  68.0554989  17.7619563
   5.2089711  67.5026030  18.4500468   6.0751016  67.4513123  17.2094563
  13.4659287  70.5126613  16.1436336  13.9319739  71.3454604  16.0696638
  13.9166788  70.0471594  16.8481594   3.4081123  78.5152484  24.8574581
   4.1090582  79.1488967  25.0103975   2.9376238  78.8567216  24.0970220
  11.5335518  76.8570434  13.1422488  11.8095362  76.7427029  14.0516362
  10.6640017  76.4587919  13.1034661  11.4375950  62.8807200  20.1827237
  10.5239030  63.1111427  20.3509444  11.8669051  62.9645644  21.0341269
  11.2082408  71.0697092  22.6827131  10.5553859  71.3172999  22.0279584
  11.5862788  70.2561230  22.3489608   8.1689582  81.1056785  16.7855301
   8.3511977  80.2878441  17.2483054   8.9922568  81.3224477  16.3480191
   8.5031748  80.0324970  14.0470350   9.0319514  79.5217425  13.4340512
   8.7659967  79.7167500  14.9115883   7.2569982  71.8116903  29.1693168
   6.5810619  71.7111032  29.8395543   8.0797615  71.6556116  29.6329165
   5.9992764  83.1183830  23.4050784   6.5511072  83.2815452  24.1699869
   6.3398958  83.7088268  22.7330809   0.9757258  65.4658980  24.0072669
   1.0398584  66.3273811  23.5950066   0.9124378  64.8532982  23.2745027
  10.8503639  77.9445088  29.2599438  11.3943543  78.5575046  28.7654393
  10.2690484  78.5024666  29.7766451   9.1361152  81.0665806  20.3914466
   9.0112291  80.2655546  19.8825412   9.7940243  81.5611999  19.9028436
  11.1996060  78.8674826  22.0194016  10.2526396  78.7480177  21.9472343
  11.5478833  77.9797324  22.1020278   3.5595633  64.7568965  25.8432258
   4.0830035  65.0031261  26.6058567   3.3407967  65.5888999  25.4235396
   8.2042493  78.6627542  18.2198369   8.0567456  77.7344249  18.4005939
   9.0295987  78.6847633  17.7355444  11.8076615  79.4856101  19.3063241
  12.7323163  79.2798962  19.1687692  11.6391919  79.2372502  20.2152583
   4.7648178  65.6982660  23.5281929   4.4244999  64.8990473  23.9302609
   4.0587185  65.9984371  22.9558762   5.4164650  62.7831972  21.9809252
   6.2390720  62.3092450  21.8588142   5.6602714  63.5622456  22.4807938
   2.9403229  69.4751093  19.7901230   2.7947810  69.7891396  20.6825512
   2.4628433  70.0935993  19.2372129   4.7999612  66.4653641  19.8382120
   4.7861181  65.5694734  19.5014418   5.5172040  66.4724305  20.4720406
   6.6525743  66.8990981  21.8835247   6.3943520  67.8208052  21.8819578
   6.1210783  66.5021416  22.5735711  11.5971931  80.0041768  14.6625333
  11.7708809  79.4388191  13.9099185  12.0900823  80.8042663  14.4804823
   7.0727698  63.0322932  18.2436410   7.0949395  63.0962265  17.2888389
   7.4895757  62.1927440  18.4376916  17.4511323  72.7678191  16.2815632
  17.8942469  72.0185516  15.8834756  16.5737833  72.7588327  15.8989364
  12.5847104  79.3208533  11.7622231  13.2798009  79.9415225  11.9809546
  12.9270254  78.4703884  12.0374609  14.4838527  76.7708238  13.2909562
  15.0089851  77.1095511  12.5658882  14.3960880  75.8355253  13.1072696
   6.1458576  80.6842312  25.4199438   6.4545702  80.4391459  26.2922138
   6.9434058  80.8888950  24.9318309   6.1679188  82.8380221  17.6504815
   5.7284178  82.3456600  18.3437672   6.9187305  82.2953189  17.4096890
   3.6153060  78.3818230  19.7227117   2.9933069  77.7188935  19.4229344
   4.2857927  78.4079362  19.0400764   3.6877587  66.8600018  29.3159623
   3.7365743  67.7362141  28.9337392   4.2300102  66.3177412  28.7431266
  14.1732433  77.4041142  28.5960760  13.3827977  77.3865281  28.0565259
  13.9365788  77.9429435  29.3509796  14.2930308  74.2533608  25.9093488
  14.3428313  74.0883616  26.8509011  14.1844231  73.3860867  25.5191369
  11.5834071  70.2364536  27.2252795  12.4843933  70.0971001  26.9336793
  11.6582045  70.4018991  28.1650972   5.9176876  67.6131391  26.0705981
   5.0480185  67.9064957  25.7988570   6.1536356  68.1971836  26.7913245
  15.7948505  76.6730550  26.1535510  15.5033313  77.0360530  26.9898971
  15.1820636  75.9597558  25.9748842  16.9944187  74.2383429  18.6738080
  17.8291079  74.6773233  18.8375640  17.1303316  73.7622083  17.8546326
  14.0435693  71.7963164  24.6215568  14.5189815  71.9890811  23.8134419
  13.1201259  71.8522350  24.3758951   8.6215910  63.8311008  23.5871402
   9.1397854  64.5672035  23.2617890   8.2671042  64.1375001  24.4218161
   8.8728504  60.2511290  19.1072298   9.1530258  59.5834479  19.7332725
   9.6579111  60.4440386  18.5946962  12.7437362  68.6728924  22.8543873
  13.6954785  68.7727022  22.8756097  12.5740813  67.8807193  23.3641958
  10.7651742  65.7584508  23.0403274  10.1701674  66.0389520  22.3449763
  10.4801438  66.2478408  23.8120015   9.8959232  79.7107434  11.8005907
  10.8289905  79.6452996  12.0038782   9.8082445  80.5463701  11.3420440
  12.5247249  79.0273305   8.7609854  12.4460880  78.6933168   9.6545612
  13.3456916  79.5195073   8.7601327  15.2225440  71.8935044  21.9686173
  15.1901760  70.9551045  22.1545857  15.8326064  71.9719081  21.2351998
  15.3719928  68.6846087  22.0144456  14.8558977  67.9004544  21.8274385
  16.2559877  68.3564804  22.1790976  13.0330655  62.4287103  17.9740269
  12.8355477  62.1202191  18.8583601  13.6430361  63.1548742  18.1038199
  21.0401990  72.9551051  21.1092210  21.7705378  72.6936339  21.6699913
  20.4308935  72.2179773  21.1494278  19.1217287  71.0958913  21.7066661
  18.3950451  70.9614878  21.0983153  18.7064574  71.4035742  22.5123379
   6.9447463  74.8148843  29.4714034   7.8650473  74.9927442  29.6654081
   6.9097046  73.8704888  29.3193733   4.8137401  68.2983084  31.5039564
   4.7134128  69.2477441  31.4351655   4.5958943  67.9701322  30.6315634
  12.1683109  64.4196535  15.2315465  11.5881778  65.0781339  14.8493517
  11.9019042  63.5973880  14.8202882  10.6186675  63.8201593  17.4336785
  11.1186454  63.9318127  16.6251104  11.2622283  63.5162646  18.0737593
   4.6768671  71.7280222  30.3204626   4.1935753  72.5280583  30.5268515
   4.7629610  71.7388167  29.3672070   0.6042009  75.6184757  22.3573060
   1.5585262  75.5868699  22.2902991   0.4054532  75.1575381  23.1723286
   1.1941391  74.1885873  24.9243857   2.0134280  74.6829952  24.9478695
   1.4678199  73.2717841  24.8961425  10.9507987  66.5796625  14.2871813
  10.0633842  66.8646276  14.0692008  11.3661976  66.4190389  13.4399090
  14.3022523  66.6043146  18.0026152  15.0782913  67.0939599  18.2750769
  13.5770657  67.0301201  18.4598022  16.7395082  67.3170766  19.0600093
  17.3339573  67.0766502  18.3493401  16.8121666  66.5977896  19.6873629
  10.9249011  72.0951161  14.5022103  10.8684212  72.5519713  13.6629735
  11.4777353  71.3341846  14.3244946  14.7353817  67.8840893  15.3272222
  14.4790751  67.4837529  16.1580430  14.1106685  68.5984687  15.2022362
  19.0466155  70.6236967  17.8343514  18.4865713  70.6930156  18.6075076
  18.4409658  70.4477951  17.1143010   2.1161363  82.0573694  19.5861700
   1.9993748  83.0019126  19.4840390   1.2953810  81.7547255  19.9747499
  12.0037898  76.7823829  10.4318293  12.8383502  76.3505028  10.2495768
  11.8422241  76.6105843  11.3595187  11.6583790  73.2855943  11.7974632
  11.6032594  73.1200214  10.8563076  11.0329845  73.9931976  11.9536822
   8.9729697  75.5904854  31.1228195   9.8420857  75.7645507  30.7614830
   8.4936449  76.4099271  31.0003924   3.1415878  82.7101956  22.8017629
   4.0443124  82.7425566  23.1184123   2.9153248  81.7802406  22.8163964
   4.8969480  81.4632942  19.4627707   3.9465111  81.4634804  19.3492079
   5.2001966  80.7165677  18.9463742  20.6322173  87.2993480  20.5273470
  21.2700583  87.1800228  19.8236810  20.5143016  88.2474324  20.5861422
  17.4411879  87.2520909  20.4634994  17.1030391  87.1361973  19.5755529
  18.3101648  86.8512074  20.4436000  13.2998695  89.1056385  16.4531885
  12.7363560  89.0146322  15.6848173  13.1851090  88.2856289  16.9334378
  17.9231662  88.4055760  26.4221200  17.9120303  88.0108559  25.5501703
  18.0852302  87.6721833  27.0154971  10.8463127  90.6007577  19.2916106
  11.6384419  90.2598401  18.8762405  11.0859777  90.7102552  20.2118259
  14.6438923  91.1892872  25.3700384  14.3528789  92.0938503  25.2547050
  15.2795908  91.2309400  26.0844453  15.5695130  88.5669721  21.9601743
  16.1658703  88.3425743  21.2458706  15.6270102  87.8254466  22.5627191
  20.1863442  85.0244934  17.6026678  20.9726531  84.6064357  17.2517095
  20.4502146  85.9291026  17.7708326  20.3573519  90.4617785  12.3015334
  19.7219352  90.5352411  13.0136239  20.0270925  91.0511383  11.6234414
  25.5871869  84.9620167  18.5059656  26.3197041  84.3919384  18.7397486
  24.8311224  84.5741768  18.9466162  14.8616447  87.9237262  11.9976309
  14.7452706  87.2482165  12.6657394  14.9718707  87.4369636  11.1808462
  17.2047988  87.3847409  15.7022999  16.8406196  86.8578030  16.4135920
  18.0615104  86.9945878  15.5289484  23.1097289  78.6741742  22.9654265
  22.7780614  79.5437153  22.7415480  22.5142902  78.3578026  23.6448295
  16.8453475  82.4137309  10.6984347  17.0127878  83.2817545  11.0654818
  16.6550644  82.5764590   9.7745636  19.6028809  90.8754288  22.3650177
  19.3029532  91.7779326  22.2565985  19.2579868  90.6086471  23.2171330
  13.0541290  87.3268084  18.3986882  12.1291787  87.1944299  18.6064574
  13.3025703  88.1062304  18.8956824  23.0025952  83.3936828  20.0447615
  22.0942830  83.3252236  19.7506376  22.9513548  83.8708773  20.8729440
  16.8242696  84.8694966  11.6831014  16.7042321  85.3152017  12.5216494
  16.1295285  85.2180284  11.1244552  10.4150101  86.9701358  19.2330671
  10.5442482  87.2235837  20.1470083   9.7347552  87.5629066  18.9135326
  17.0766818  84.8126473  27.9882512  16.3000152  85.3720394  27.9785377
  17.7157381  85.2983256  28.5097382  24.8687599  81.5953266  21.8225489
  24.2261979  81.8885799  21.1765283  24.3642527  81.4806187  22.6278685
  22.5227762  85.3416439  12.5111348  23.4345619  85.5743826  12.3359045
  22.0137409  85.9253484  11.9486427  15.3313190  87.6211927  27.5500479
  16.0727875  88.1596971  27.2735303  14.6250176  88.2478215  27.7072031
  20.8068530  89.7641067  26.1472641  21.2151886  89.3223478  25.4027273
  20.0845792  89.1893695  26.4006833  17.1599600  84.7013674  23.5206197
  18.0060795  85.1253088  23.6640846  17.0998238  84.0447298  24.2144761
  21.1297345  90.3242258  19.9024929  20.5006207  90.4887972  19.2000997
  20.7423007  90.7383867  20.6735893  25.0086577  91.2596696  17.2569293
  24.3237615  91.6395597  16.7066326  25.0930426  91.8692022  17.9901241
  20.3099045  82.3618042  25.1787371  20.0659977  83.1160103  24.6421647
  20.5858976  82.7403390  26.0134618  22.2637508  88.9056655  23.8564637
  22.4754403  89.5488415  23.1799018  22.2167256  88.0718971  23.3886567
  19.8663737  81.5174475  20.7601209  19.0048216  81.8155729  21.0517946
  19.8926172  81.7344874  19.8282241  16.6825307  90.0616666  17.1675015
  17.1463652  90.3404369  16.3779637  16.4182105  89.1600110  16.9848105
  13.5749388  89.6088147  20.1054778  14.1450745  90.0375416  19.4672262
  14.1657500  89.3270732  20.8038963  15.6194193  86.1839818  13.9764580
  16.3218236  86.6360862  14.4438506  15.2874821  85.5423637  14.6044473
  14.0674554  84.7751575  28.3515789  13.4373215  85.4567856  28.5851186
  13.9610642  84.6634657  27.4068927   9.3619527  84.4423371  19.2781713
   8.5718581  84.6980899  18.8021824   9.8530774  85.2571709  19.3833754
  23.3783336  91.7828610  22.0286994  24.2000780  91.3808797  21.7469676
  23.3745739  91.6796844  22.9803110  11.3134272  84.8067950  16.2365190
  10.5165435  84.9186644  16.7548686  11.0859864  85.1454602  15.3706080
  17.1439940  91.3312653  24.1847705  17.2084372  91.7933061  25.0205876
  16.4350864  90.7010018  24.3130014   7.6457230  84.6953861  21.7096704
   7.8965268  85.5800871  21.9754280   8.1816778  84.5158463  20.9371796
  31.4689329  88.1267359  18.3771966  30.7153038  87.5574757  18.2215970
  31.6036870  88.0930023  19.3242600  16.8587957  92.9980761  14.0526685
  16.7233632  93.8432297  14.4811533  17.3997770  93.2000039  13.2892619
  13.3455297  79.0772341  30.7141040  12.9522242  78.5238539  31.3888684
  14.1621437  79.3882919  31.1047558  16.2623258  80.4930220  28.3061297
  17.0032971  81.0937373  28.2265759  16.4941181  79.7507858  27.7479339
  11.4064596  85.6786587  26.5839526  11.2918111  84.7771844  26.8846625
  10.5509114  85.9250284  26.2324343  18.4856434  93.6204327  28.1827027
  18.0420288  92.8340706  27.8647931  19.1473647  93.8083478  27.5170918
  13.2443555  95.1500129  22.7087705  13.7950980  95.0217192  21.9364699
  12.4055031  95.4495018  22.3582598  20.5837672  93.9007127  26.2108428
  20.5656147  94.7216008  25.7188697  21.5057592  93.7761203  26.4358569
  17.0410726  91.4151257  27.0531937  17.5739063  90.6539545  26.8231245
  16.5124807  91.1224909  27.7956091  20.2080421  76.5211323  22.5825578
  19.8644690  77.4112964  22.5064689  20.5759383  76.3312980  21.7195163
  20.1730704  86.5119934  11.0898013  19.6577327  87.2824539  11.3286401
  19.9008012  85.8385070  11.7131075  17.7577815  81.3569635  16.1483252
  16.9019411  80.9676485  15.9688891  18.1704766  81.4361595  15.2883037
  19.2876961  78.8915978  20.5474812  18.7841757  78.8546113  19.7342617
  19.5807568  79.8008721  20.6071468  15.5319847  78.9754708  19.5540993
  16.3972844  78.7797516  19.1946883  15.5997356  78.7465059  20.4810350
  25.1464978  89.2652289  13.0251187  24.3694420  88.9263448  12.5806349
  25.8256459  89.2704912  12.3506152  19.9617007  84.3847026  12.9157795
  19.6567142  84.6993175  13.7667938  20.9147449  84.4628446  12.9585128
  18.4063439  90.5437249  14.5650749  17.8784800  89.8090009  14.2523986
  17.9050941  91.3211926  14.3190717  23.3856285  88.7386270  19.6817795
  22.7279959  89.4285531  19.7697924  24.1896684  89.1282702  20.0251781
  13.1382166  81.2056916  16.9257360  13.7125918  80.9832097  16.1930553
  13.7253149  81.2745610  17.6785961  22.1961743  87.0930642  17.7321737
  22.7093625  87.7260634  18.2343446  22.8462967  86.4931838  17.3665097
  13.4651753  83.2361377  10.9453245  12.6289066  83.5736063  11.2662520
  13.3256523  83.1010356  10.0080382  15.4404834  78.0798164  15.6532430
  14.7869246  77.7647182  15.0289044  15.3985308  77.4573905  16.3792252
  18.6742574  84.5680098  19.9780077  17.7565136  84.7895045  19.8201765
  19.0902718  84.6426409  19.1191785  19.4577622  85.9671514  15.1082757
  20.2049441  86.4792911  14.7989879  19.7269212  85.6455566  15.9687151
  17.7304272  88.4630054  12.0909712  16.8215491  88.1789087  12.1882181
  17.7599356  88.8829133  11.2313019  22.9623540  92.0736644  15.8600879
  22.5085867  91.2327554  15.9166070  22.3317506  92.7098042  16.1975659
  21.9056459  83.0028630  17.0901547  21.1679216  82.4906016  17.4211789
  22.1583233  82.5629012  16.2784824  21.4056479  93.9113141  16.7950697
  21.6979453  94.4718198  16.0763063  21.9155099  94.2041702  17.5503857
  22.0068087  75.7804882  17.6843316  22.3126963  74.9202245  17.3969231
  22.7320691  76.3722502  17.4842310   8.2992443  86.1835569  16.0724914
   8.1016842  85.5904929  15.3475980   7.7439107  85.8787779  16.7900853
  16.2789166  86.0758675  18.1919507  16.3337776  85.1232511  18.1161984
  15.4680368  86.2318114  18.6760805  14.2181526  84.6935735  15.9509886
  13.4049392  84.9929905  16.3575078  14.7140520  84.2991424  16.6684368
  16.3690104  94.6893492  17.8844151  16.3266283  94.9154338  16.9552683
  17.2852803  94.4556866  18.0329952  19.8155738  85.1577559  24.7824780
  20.1705126  85.3849032  25.6419246  20.4627869  85.4895936  24.1602035
  25.5453475  88.2795995  15.4874109  25.4071373  88.4697591  14.5595298
  25.1889694  89.0415378  15.9442160  13.7095601  82.2654090  21.5671121
  14.3494980  82.1242849  20.8694084  12.8773131  81.9788604  21.1909723
  25.5722854  90.3472522  20.4985380  26.0059361  90.2547811  21.3468434
  26.2854435  90.3230023  19.8605396  14.4855905  91.5656521  17.6806113
  15.2796503  91.0706841  17.4788688  13.7747597  91.0374384  17.3173819
  19.3050749  93.9474616  22.0318481  19.3587772  94.5165553  22.7996197
  18.4365531  94.1176501  21.6672518  10.7938668  85.7099602  13.7565866
   9.8636256  85.6484058  13.9735828  10.8896140  85.1875555  12.9602507
  10.7124217  82.2354415  16.3444108  10.9731035  83.1499749  16.2353268
  11.5341390  81.7678858  16.4940721  12.1849143  83.6492172  23.5142932
  12.8572196  83.4409535  22.8655581  11.3578929  83.4514258  23.0748165
  26.4338404  90.3896223  23.0318266  26.6274294  91.2942033  23.2777541
  26.3339022  89.9303642  23.8656851  18.0874715  80.2754113  25.5308593
  17.4402630  80.9744063  25.4373070  18.8575730  80.7090257  25.8984841
  21.4953513  90.5402966  28.6059146  21.3439019  90.3113517  27.6889230
  21.4858192  91.4973567  28.6190491  18.2638849  88.1134878  23.5905413
  19.1930909  88.2646038  23.4174380  17.8429879  88.2018899  22.7354059
  17.0627181  92.1385543  21.3603950  16.9238267  91.7704327  22.2329889
  16.2741777  92.6533182  21.1887908  18.6132396  91.5167145  18.7492788
  18.2782229  91.4767915  19.6450438  18.1136342  90.8511861  18.2763198
  12.5876640  86.9234775  24.2745369  12.4496438  86.1915014  24.8756908
  13.4981563  86.8343676  23.9929557  21.5491588  88.8623180   9.0229848
  20.9320758  88.1370008   8.9262901  21.0808076  89.6232540   8.6796922
  15.2158941  86.6354735  23.7629049  15.9258559  85.9947927  23.7215667
  15.1728249  86.8867630  24.6855230  23.2045719  93.5722088  26.6835628
  23.1458265  92.8881308  26.0166211  23.6065238  94.3141078  26.2316254
  13.9287875  83.6219953  25.5824689  13.3925232  83.1710691  26.2346285
  13.3404583  83.7565861  24.8395153  23.2063127  91.5361672  24.9149608
  22.3189905  91.1987594  25.0376007  23.7761678  90.8044703  25.1518373
   9.6626996  82.7575960  22.6677683   9.5785185  82.1501630  21.9328093
   8.8409702  83.2484979  22.6687179  16.7364280  96.1963124  21.8810851
  16.6634451  97.0018096  22.3930156  16.2941673  96.3955090  21.0558873
  16.5254060  95.4334894  15.3913673  15.7421581  95.9756575  15.4851897
  17.2246805  95.9508874  15.7907914  19.8350710  81.2429524  18.0347878
  20.3319409  80.4899486  17.7148948  19.0637691  81.2793841  17.4691087
  27.6880467  86.9469889  19.6766170  27.6770343  87.8294605  19.3060103
  26.8197847  86.5941440  19.4820707  19.1962963  96.0949958  24.0369010
  19.9090936  96.7297423  23.9644911  18.7052992  96.1913824  23.2209012
  20.9180490  90.0001211  15.6086301  19.9836769  90.1202674  15.4391006
  21.0957159  89.0973678  15.3446311  16.4185678  83.3846907  17.7619563
  16.0483466  82.8317947  18.4500468  16.9144771  82.7805040  17.2094563
  24.3053042  85.8418530  16.1436336  24.7713494  86.6746522  16.0696638
  24.7560542  85.3763512  16.8481594  14.2474877  93.8444402  24.8574581
  14.9484336  94.4780885  25.0103975  13.7769992  94.1859133  24.0970220
  22.3729273  92.1862352  13.1422488  22.6489117  92.0718946  14.0516362
  21.5033772  91.7879837  13.1034661  22.2769704  78.2099117  20.1827237
  21.3632784  78.4403344  20.3509444  22.7062806  78.2937561  21.0341269
  22.0476163  86.3989009  22.6827131  21.3947613  86.6464917  22.0279584
  22.4256543  85.5853148  22.3489608  19.0083337  96.4348703  16.7855301
  19.1905731  95.6170358  17.2483054  19.8316323  96.6516395  16.3480191
  19.3425502  95.3616888  14.0470350  19.8713269  94.8509342  13.4340512
  19.6053722  95.0459418  14.9115883  18.0963736  87.1408820  29.1693168
  17.4204373  87.0402950  29.8395543  18.9191370  86.9848034  29.6329165
   9.8442595  93.3780757  21.7905683  10.4296032  92.6324445  21.9233587
   9.6467434  93.6884714  22.6742347   4.4360250  85.9486357  20.5110126
   4.4744349  85.4149948  21.3047245   3.9300543  85.4221563  19.8921104
  16.8386519  98.4475748  23.4050784  17.3904827  98.6107369  24.1699869
  17.1792712  99.0380186  22.7330809  11.8151012  80.7950898  24.0072669
  11.8792339  81.6565729  23.5950066  11.7518132  80.1824899  23.2745027
  11.2903285  82.8674030  27.6545703  11.9175323  82.4851107  28.2683227
  10.4331203  82.6488232  28.0201395  21.6897393  93.2737005  29.2599438
  22.2337297  93.8866964  28.7654393  21.1084238  93.8316584  29.7766451
  19.9754906  96.3957723  20.3914466  19.8506046  95.5947463  19.8825412
  20.6333997  96.8903917  19.9028436  11.5963074  82.7506456  19.5691606
  10.8749660  83.3642424  19.4299080  12.3856330  83.2864221  19.4908252
  22.0389815  94.1966743  22.0194016  21.0920150  94.0772095  21.9472343
  22.3872588  93.3089241  22.1020278  14.3989388  80.0860882  25.8432258
  14.9223790  80.3323179  26.6058567  14.1801721  80.9180917  25.4235396
   9.7956669  82.3564557  13.7103383   9.4669375  81.4761936  13.5278489
  10.1496040  82.3012226  14.5979772  19.0436248  93.9919460  18.2198369
  18.8961210  93.0636167  18.4005939  19.8689741  94.0139550  17.7355444
  12.9098492  82.6437527  14.0778861  13.2494565  83.1723448  13.3557469
  13.3570613  82.9817933  14.8537427  22.6470370  94.8148018  19.3063241
  23.5716917  94.6090880  19.1687692  22.4785673  94.5664420  20.2152583
  15.6041933  81.0274577  23.5281929  15.2638753  80.2282391  23.9302609
  14.8980939  81.3276288  22.9558762  16.2558405  78.1123890  21.9809252
  17.0784474  77.6384368  21.8588142  16.4996468  78.8914374  22.4807938
  14.8966639  81.1412148  12.2772153  15.6175002  81.5193401  11.7735870
  14.2731943  81.8601025  12.3807131  19.0397762  81.8457297  13.2130486
  19.2561377  82.7281935  12.9119314  18.5591829  81.4543511  12.4836128
  13.7796984  84.8043011  19.7901230  13.6341564  85.1183314  20.6825512
  13.3022187  85.4227911  19.2372129  15.6393366  81.7945559  19.8382120
  15.6254935  80.8986652  19.5014418  16.3565795  81.8016222  20.4720406
  17.4919497  82.2282899  21.8835247  17.2337275  83.1499969  21.8819578
  16.9604538  81.8313333  22.5735711  22.4365686  95.3333686  14.6625333
  22.6102563  94.7680108  13.9099185  22.9294577  96.1334581  14.4804823
   8.2542646  87.3448355  22.7288892   7.7096114  88.1208163  22.8609166
   9.1321996  87.6919159  22.5708013  15.0430262  80.6759939  15.1069690
  15.1646174  79.7476585  15.3060578  14.7532305  80.6898625  14.1948005
  17.9121453  78.3614849  18.2436410  17.9343150  78.4254182  17.2888389
  18.3289512  77.5219358  18.4376916  28.2905077  88.0970109  16.2815632
  28.7336223  87.3477434  15.8834756  27.4131587  88.0880245  15.8989364
  23.4240858  94.6500450  11.7622231  24.1191763  95.2707143  11.9809546
  23.7664009  93.7995801  12.0374609   9.0408668  86.4718251  25.6219048
   8.2990404  86.6200887  26.2083679   8.7201412  86.7326517  24.7585798
  25.3232281  92.1000156  13.2909562  25.8483606  92.4387429  12.5658882
  25.2354634  91.1647171  13.1072696  16.9852330  96.0134229  25.4199438
  17.2939457  95.7683376  26.2922138  17.7827812  96.2180868  24.9318309
  17.0072942  98.1672139  17.6504815  16.5677933  97.6748518  18.3437672
  17.7581059  97.6245107  17.4096890  14.4546814  93.7110148  19.7227117
  13.8326824  93.0480853  19.4229344  15.1251681  93.7371280  19.0400764
  14.5271342  82.1891936  29.3159623  14.5759497  83.0654059  28.9337392
  15.0693856  81.6469329  28.7431266  25.0126188  92.7333059  28.5960760
  24.2221731  92.7157198  28.0565259  24.7759542  93.2721353  29.3509796
  25.1324063  89.5825526  25.9093488  25.1822068  89.4175533  26.8509011
  25.0237986  88.7152785  25.5191369  22.4227825  85.5656454  27.2252795
  23.3237688  85.4262919  26.9336793  22.4975800  85.7310909  28.1650972
  16.7570630  82.9423309  26.0705981  15.8873940  83.2356875  25.7988570
  16.9930111  83.5263754  26.7913245  26.6342259  92.0022467  26.1535510
  26.3427068  92.3652448  26.9898971  26.0214391  91.2889476  25.9748842
  27.8337942  89.5675347  18.6738080  28.6684833  90.0065151  18.8375640
  27.9697071  89.0914000  17.8546326  24.8829448  87.1255082  24.6215568
  25.3583569  87.3182728  23.8134419  23.9595013  87.1814268  24.3758951
  19.4609664  79.1602926  23.5871402  19.9791608  79.8963952  23.2617890
  19.1064797  79.4666919  24.4218161  19.7122258  75.5803208  19.1072298
  19.9924012  74.9126397  19.7332725  20.4972865  75.7732304  18.5946962
  23.5831117  84.0020842  22.8543873  24.5348540  84.1018940  22.8756097
  23.4134567  83.2099111  23.3641958  21.6045496  81.0876425  23.0403274
  21.0095428  81.3681438  22.3449763  21.3195193  81.5770326  23.8120015
  20.7352987  95.0399352  11.8005907  21.6683660  94.9744914  12.0038782
  20.6476199  95.8755619  11.3420440  23.3641003  94.3565222   8.7609854
  23.2854635  94.0225086   9.6545612  24.1850670  94.8486990   8.7601327
  26.0619194  87.2226962  21.9686173  26.0295515  86.2842962  22.1545857
  26.6719818  87.3010998  21.2351998  17.9002525  86.0923015   8.0113377
  18.8461630  85.9629223   8.0801795  17.5216770  85.3537677   8.4882805
  26.2113683  84.0138005  22.0144456  25.6952732  83.2296462  21.8274385
  27.0953631  83.6856722  22.1790976  23.8724410  77.7579021  17.9740269
  23.6749231  77.4494109  18.8583601  24.4824115  78.4840660  18.1038199
  31.8795744  88.2842969  21.1092210  32.6099133  88.0228257  21.6699913
  31.2702690  87.5471690  21.1494278  29.9611041  86.4250831  21.7066661
  29.2344205  86.2906796  21.0983153  29.5458328  86.7327660  22.5123379
  17.7841218  90.1440761  29.4714034  18.7044227  90.3219360  29.6654081
  17.7490801  89.1996806  29.3193733   7.0023383  85.3379354  18.3967309
   6.6826167  84.4844663  18.1041683   6.4556811  85.5527933  19.1525276
  10.7803290  88.0541795  22.1136815  10.9989300  88.9858903  22.1324849
  11.1929064  87.6949770  22.8991619  17.7007508  78.5609881  14.1012504
  16.8908237  78.2156966  14.4767750  18.3891925  78.2517425  14.6900115
  19.6298056  77.6387928  15.7236800  20.1829095  78.0583381  16.3826823
  19.8668143  76.7123676  15.7659756  15.6531156  83.6275001  31.5039564
  15.5527883  84.5769358  31.4351655  15.4352698  83.2993240  30.6315634
  14.8544227  80.8759926   8.0880242  15.7163391  81.2014825   8.3476059
  15.0394571  80.0891422   7.5753307   6.8711643  88.9582266  20.3660430
   6.1775114  88.5436219  19.8530385   7.6184634  89.0002802  19.7693849
  23.0076864  79.7488453  15.2315465  22.4275533  80.4073257  14.8493517
  22.7412796  78.9265797  14.8202882  21.4580430  79.1493510  17.4336785
  21.9580208  79.2610045  16.6251104  22.1016038  78.8454563  18.0737593
  15.5162426  87.0572140  30.3204626  15.0329507  87.8572500  30.5268515
  15.6023365  87.0680085  29.3672070   8.7848385  88.8900520  18.2426445
   8.7619074  88.9888207  17.2908328   9.0949022  89.7365671  18.5643611
  11.4435763  90.9476675  22.3573060  12.3979017  90.9160617  22.2902991
  11.2448287  90.4867299  23.1723286  12.0335145  89.5177791  24.9243857
  12.8528034  90.0121870  24.9478695  12.3071953  88.6009759  24.8961425
  21.7901742  81.9088543  14.2871813  20.9027597  82.1938194  14.0692008
  22.2055731  81.7482307  13.4399090  25.1416278  81.9335064  18.0026152
  25.9176668  82.4231517  18.2750769  24.4164412  82.3593118  18.4598022
  27.5788836  82.6462683  19.0600093  28.1733327  82.4058419  18.3493401
  27.6515420  81.9269814  19.6873629  21.7642765  87.4243079  14.5022103
  21.7077967  87.8811630  13.6629735  22.3171108  86.6633764  14.3244946
  25.5747571  83.2132811  15.3272222  25.3184505  82.8129447  16.1580430
  24.9500439  83.9276605  15.2022362  29.8859909  85.9528884  17.8343514
  29.3259467  86.0222074  18.6075076  29.2803412  85.7769869  17.1143010
  12.9555118  97.3865611  19.5861700  12.8387502  98.3311044  19.4840390
  12.1347564  97.0839173  19.9747499  22.8431652  92.1115747  10.4318293
  23.6777256  91.6796945  10.2495768  22.6815995  91.9397761  11.3595187
  22.4977545  88.6147860  11.7974632  22.4426348  88.4492132  10.8563076
  21.8723600  89.3223893  11.9536822   7.2870060  83.8515925  25.6236054
   7.9328923  83.3414879  26.1123279   7.0787211  84.5884606  26.1979480
  19.8123452  90.9196772  31.1228195  20.6814611  91.0937424  30.7614830
  19.3330203  91.7391189  31.0003924  15.8073670  78.1155969  11.3759951
  15.7952340  79.0597809  11.5328221  16.6997092  77.9326115  11.0819412
  13.9809632  98.0393873  22.8017629  14.8836879  98.0717483  23.1184123
  13.7547002  97.1094324  22.8163964  15.7363234  96.7924860  19.4627707
  14.7858865  96.7926721  19.3492079  16.0395720  96.0457594  18.9463742
  19.6225790  74.7098746  15.6305887  18.8558185  74.1557233  15.7762570
  20.0336495  74.7820615  16.4920039  11.6267551  80.9983542  29.7211069
  12.4899012  80.6420347  29.9314393  11.0532961  80.6597437  30.4086473
  31.4715928 102.6285398  20.5273470  32.1094338 102.5092145  19.8236810
  31.3536770 103.5766242  20.5861422  28.2805634 102.5812826  20.4634994
  27.9424145 102.4653891  19.5755529  29.1495402 102.1803991  20.4436000
  24.1392450 104.4348303  16.4531885  23.5757315 104.3438240  15.6848173
  24.0244845 103.6148207  16.9334378  28.7625417 103.7347678  26.4221200
  28.7514058 103.3400476  25.5501703  28.9246056 103.0013751  27.0154971
  21.6856881 105.9299494  19.2916106  22.4778173 105.5890319  18.8762405
  21.9253532 106.0394469  20.2118259  25.4832678 106.5184790  25.3700384
  25.1922544 107.4230421  25.2547050  26.1189662 106.5601317  26.0844453
  26.4088885 103.8961638  21.9601743  27.0052457 103.6717661  21.2458706
  26.4663856 103.1546384  22.5627191  31.0257196 100.3536852  17.6026678
  31.8120285  99.9356275  17.2517095  31.2895900 101.2582944  17.7708326
  31.1967273 105.7909702  12.3015334  30.5613106 105.8644329  13.0136239
  30.8664680 106.3803301  11.6234414  36.4265623 100.2912085  18.5059656
  37.1590795  99.7211302  18.7397486  35.6704979  99.9033686  18.9466162
  25.7010202 103.2529180  11.9976309  25.5846460 102.5774083  12.6657394
  25.8112462 102.7661553  11.1808462  28.0441743 102.7139327  15.7022999
  27.6799950 102.1869948  16.4135920  28.9008859 102.3237796  15.5289484
  33.9491044  94.0033659  22.9654265  33.6174368  94.8729070  22.7415480
  33.3536657  93.6869943  23.6448295  27.6847230  97.7429226  10.6984347
  27.8521632  98.6109463  11.0654818  27.4944399  97.9056508   9.7745636
  30.4422563 106.2046205  22.3650177  30.1423286 107.1071244  22.2565985
  30.0973623 105.9378388  23.2171330  23.8935045 102.6560002  18.3986882
  22.9685541 102.5236216  18.6064574  24.1419458 103.4354221  18.8956824
  33.8419707  98.7228745  20.0447615  32.9336584  98.6544154  19.7506376
  33.7907303  99.2000690  20.8729440  27.6636451 100.1986884  11.6831014
  27.5436076 100.6443935  12.5216494  26.9689039 100.5472202  11.1244552
  21.2543856 102.2993276  19.2330671  21.3836237 102.5527755  20.1470083
  20.5741307 102.8920984  18.9135326  27.9160573 100.1418391  27.9882512
  27.1393907 100.7012311  27.9785377  28.5551136 100.6275174  28.5097382
  35.7081353  96.9245184  21.8225489  35.0655733  97.2177717  21.1765283
  35.2036282  96.8098104  22.6278685  33.3621517 100.6708357  12.5111348
  34.2739373 100.9035744  12.3359045  32.8531164 101.2545401  11.9486427
  26.1706945 102.9503844  27.5500479  26.9121629 103.4888888  27.2735303
  25.4643930 103.5770133  27.7072031  31.6462285 105.0932985  26.1472641
  32.0545641 104.6515395  25.4027273  30.9239546 104.5185612  26.4006833
  27.9993355 100.0305592  23.5206197  28.8454550 100.4545005  23.6640846
  27.9391992  99.3739216  24.2144761  31.9691099 105.6534175  19.9024929
  31.3399962 105.8179890  19.2000997  31.5816761 106.0675785  20.6735893
  35.8480331 106.5888613  17.2569293  35.1631369 106.9687515  16.7066326
  35.9324180 107.1983940  17.9901241  31.1492800  97.6909960  25.1787371
  30.9053732  98.4452021  24.6421647  31.4252730  98.0695308  26.0134618
  33.1031263 104.2348572  23.8564637  33.3148158 104.8780332  23.1799018
  33.0561011 103.4010889  23.3886567  30.7057492  96.8466393  20.7601209
  29.8441971  97.1447647  21.0517946  30.7319926  97.0636792  19.8282241
  27.5219061 105.3908584  17.1675015  27.9857407 105.6696287  16.3779637
  27.2575859 104.4892028  16.9848105  24.4143142 104.9380065  20.1054778
  24.9844499 105.3667333  19.4672262  25.0051254 104.6562650  20.8038963
  26.4587947 101.5131736  13.9764580  27.1611990 101.9652780  14.4438506
  26.1268576 100.8715555  14.6044473  24.9068309 100.1043493  28.3515789
  24.2766969 100.7859773  28.5851186  24.8004397  99.9926574  27.4068927
  20.2013281  99.7715289  19.2781713  19.4112335 100.0272817  18.8021824
  20.6924528 100.5863626  19.3833754  34.2177091 107.1120528  22.0286994
  35.0394534 106.7100715  21.7469676  34.2139494 107.0088762  22.9803110
  22.1528026 100.1359868  16.2365190  21.3559190 100.2478562  16.7548686
  21.9253619 100.4746520  15.3706080  27.9833694 106.6604571  24.1847705
  28.0478127 107.1224978  25.0205876  27.2744618 106.0301936  24.3130014
  18.4850984 100.0245779  21.7096704  18.7359023 100.9092789  21.9754280
  19.0210532  99.8450381  20.9371796  42.3083084 103.4559276  18.3771966
  41.5546792 102.8866674  18.2215970  42.4430625 103.4221941  19.3242600
  27.6981712 108.3272679  14.0526685  27.5627387 109.1724214  14.4811533
  28.2391524 108.5291956  13.2892619  24.1849051  94.4064258  30.7141040
  23.7915997  93.8530457  31.3888684  25.0015192  94.7174837  31.1047558
  27.1017012  95.8222138  28.3061297  27.8426726  96.4229291  28.2265759
  27.3334935  95.0799775  27.7479339  22.2458350 101.0078505  26.5839526
  22.1311866 100.1063762  26.8846625  21.3902868 101.2542202  26.2324343
  29.3250188 108.9496245  28.1827027  28.8814042 108.1632624  27.8647931
  29.9867402 109.1375396  27.5170918  24.0837309 110.4792047  22.7087705
  24.6344734 110.3509110  21.9364699  23.2448785 110.7786936  22.3582598
  31.4231426 109.2299045  26.2108428  31.4049902 110.0507926  25.7188697
  32.3451346 109.1053120  26.4358569  27.8804480 106.7443175  27.0531937
  28.4132817 105.9831463  26.8231245  27.3518561 106.4516826  27.7956091
  31.0474175  91.8503240  22.5825578  30.7038445  92.7404882  22.5064689
  31.4153138  91.6604898  21.7195163  31.0124458 101.8411852  11.0898013
  30.4971081 102.6116456  11.3286401  30.7401767 101.1676988  11.7131075
  28.5971569  96.6861552  16.1483252  27.7413165  96.2968403  15.9688891
  29.0098521  96.7653513  15.2883037  30.1270716  94.2207896  20.5474812
  29.6235511  94.1838031  19.7342617  30.4201323  95.1300638  20.6071468
  26.3713602  94.3046625  19.5540993  27.2366598  94.1089434  19.1946883
  26.4391111  94.0756977  20.4810350  35.9858732 104.5944206  13.0251187
  35.2088175 104.2555366  12.5806349  36.6650213 104.5996829  12.3506152
  30.8010761  99.7138944  12.9157795  30.4960897 100.0285093  13.7667938
  31.7541203  99.7920364  12.9585128  29.2457193 105.8729167  14.5650749
  28.7178555 105.1381927  14.2523986  28.7444696 106.6503843  14.3190717
  34.2250039 104.0678187  19.6817795  33.5673714 104.7577449  19.7697924
  35.0290438 104.4574619  20.0251781  23.9775921  96.5348833  16.9257360
  24.5519673  96.3124015  16.1930553  24.5646903  96.6037528  17.6785961
  33.0355498 102.4222560  17.7321737  33.5487380 103.0552552  18.2343446
  33.6856722 101.8223756  17.3665097  24.3045508  98.5653294  10.9453245
  23.4682820  98.9027981  11.2662520  24.1650277  98.4302274  10.0080382
  26.2798588  93.4090082  15.6532430  25.6263001  93.0939099  15.0289044
  26.2379063  92.7865823  16.3792252  29.5136329  99.8972016  19.9780077
  28.5958890 100.1186963  19.8201765  29.9296472  99.9718326  19.1191785
  30.2971377 101.2963431  15.1082757  31.0443195 101.8084829  14.7989879
  30.5662966 100.9747484  15.9687151  28.5698027 103.7921972  12.0909712
  27.6609246 103.5081005  12.1882181  28.5993111 104.2121051  11.2313019
  33.8017294 107.4028562  15.8600879  33.3479621 106.5619471  15.9166070
  33.1711261 108.0389960  16.1975659  32.7450214  98.3320548  17.0901547
  32.0072970  97.8197934  17.4211789  32.9976987  97.8920929  16.2784824
  32.2450233 109.2405058  16.7950697  32.5373208 109.8010115  16.0763063
  32.7548854 109.5333619  17.5503857  32.8461841  91.1096800  17.6843316
  33.1520718  90.2494163  17.3969231  33.5714446  91.7014420  17.4842310
  19.1386197 101.5127486  16.0724914  18.9410597 100.9196847  15.3475980
  18.5832861 101.2079696  16.7900853  27.1182921 101.4050593  18.1919507
  27.1731531 100.4524429  18.1161984  26.3074123 101.5610032  18.6760805
  25.0575281 100.0227652  15.9509886  24.2443146 100.3221823  16.3575078
  25.5534275  99.6283341  16.6684368  27.2083859 110.0185409  17.8844151
  27.1660037 110.2446256  16.9552683  28.1246557 109.7848784  18.0329952
  30.6549492 100.4869477  24.7824780  31.0098880 100.7140950  25.6419246
  31.3021624 100.8187854  24.1602035  36.3847229 103.6087913  15.4874109
  36.2465128 103.7989509  14.5595298  36.0283448 104.3707296  15.9442160
  24.5489355  97.5946008  21.5671121  25.1888735  97.4534767  20.8694084
  23.7166886  97.3080521  21.1909723  36.4116609 105.6764440  20.4985380
  36.8453116 105.5839729  21.3468434  37.1248190 105.6521940  19.8605396
  25.3249659 106.8948438  17.6806113  26.1190258 106.3998759  17.4788688
  24.6141352 106.3666302  17.3173819  30.1444504 109.2766534  22.0318481
  30.1981526 109.8457470  22.7996197  29.2759285 109.4468419  21.6672518
  21.6332423 101.0391520  13.7565866  20.7030011 100.9775976  13.9735828
  21.7289895 100.5167473  12.9602507  21.5517972  97.5646333  16.3444108
  21.8124789  98.4791666  16.2353268  22.3735144  97.0970776  16.4940721
  23.0242897  98.9784090  23.5142932  23.6965951  98.7701452  22.8655581
  22.1972684  98.7806176  23.0748165  37.2732158 105.7188140  23.0318266
  37.4668049 106.6233951  23.2777541  37.1732777 105.2595560  23.8656851
  28.9268469  95.6046031  25.5308593  28.2796384  96.3035981  25.4373070
  29.6969485  96.0382175  25.8984841  32.3347267 105.8694883  28.6059146
  32.1832774 105.6405435  27.6889230  32.3251947 106.8265485  28.6190491
  29.1032604 103.4426796  23.5905413  30.0324664 103.5937956  23.4174380
  28.6823634 103.5310817  22.7354059  27.9020935 107.4677460  21.3603950
  27.7632021 107.0996245  22.2329889  27.1135532 107.9825100  21.1887908
  29.4526150 106.8459063  18.7492788  29.1175983 106.8059833  19.6450438
  28.9530096 106.1803779  18.2763198  23.4270394 102.2526693  24.2745369
  23.2890192 101.5206932  24.8756908  24.3375318 102.1635593  23.9929557
  32.3885342 104.1915097   9.0229848  31.7714513 103.4661926   8.9262901
  31.9201831 104.9524458   8.6796922  26.0552695 101.9646652  23.7629049
  26.7652314 101.3239845  23.7215667  26.0122003 102.2159547  24.6855230
  34.0439474 108.9014006  26.6835628  33.9852020 108.2173226  26.0166211
  34.4458992 109.6432996  26.2316254  24.7681629  98.9511870  25.5824689
  24.2318986  98.5002609  26.2346285  24.1798338  99.0857779  24.8395153
  34.0456881 106.8653590  24.9149608  33.1583660 106.5279511  25.0376007
  34.6155432 106.1336621  25.1518373  20.5020750  98.0867878  22.6677683
  20.4178939  97.4793548  21.9328093  19.6803457  98.5776896  22.6687179
  27.5758034 111.5255042  21.8810851  27.5028206 112.3310014  22.3930156
  27.1335428 111.7247008  21.0558873  27.3647814 110.7626812  15.3913673
  26.5815336 111.3048492  15.4851897  28.0640559 111.2800792  15.7907914
  30.6744464  96.5721442  18.0347878  31.1713164  95.8191404  17.7148948
  29.9031446  96.6085758  17.4691087  38.5274222 102.2761807  19.6766170
  38.5164098 103.1586523  19.3060103  37.6591601 101.9233358  19.4820707
  30.0356718 111.4241876  24.0369010  30.7484690 112.0589341  23.9644911
  29.5446747 111.5205742  23.2209012  31.7574245 105.3293129  15.6086301
  30.8230524 105.4494591  15.4391006  31.9350913 104.4265596  15.3446311
  27.2579433  98.7138825  17.7619563  26.8877220  98.1609865  18.4500468
  27.7538525  98.1096958  17.2094563  35.1446796 101.1710448  16.1436336
  35.6107248 102.0038440  16.0696638  35.5954297 100.7055430  16.8481594
  25.0868631 109.1736320  24.8574581  25.7878091 109.8072803  25.0103975
  24.6163746 109.5151051  24.0970220  33.2123027 107.5154269  13.1422488
  33.4882871 107.4010864  14.0516362  32.3427526 107.1171754  13.1034661
  33.1163459  93.5391035  20.1827237  32.2026539  93.7695262  20.3509444
  33.5456560  93.6229479  21.0341269  32.8869917 101.7280927  22.6827131
  32.2341368 101.9756834  22.0279584  33.2650297 100.9145065  22.3489608
  29.8477091 111.7640620  16.7855301  30.0299486 110.9462276  17.2483054
  30.6710077 111.9808312  16.3480191  30.1819257 110.6908805  14.0470350
  30.7107023 110.1801260  13.4340512  30.4447476 110.3751336  14.9115883
  28.9357490 102.4700738  29.1693168  28.2598128 102.3694867  29.8395543
  29.7585124 102.3139952  29.6329165  20.6836350 108.7072675  21.7905683
  21.2689786 107.9616363  21.9233587  20.4861188 109.0176631  22.6742347
  15.2754004 101.2778275  20.5110126  15.3138104 100.7441866  21.3047245
  14.7694297 100.7513480  19.8921104  27.6780273 113.7767666  23.4050784
  28.2298581 113.9399287  24.1699869  28.0186467 114.3672103  22.7330809
  22.6544767  96.1242815  24.0072669  22.7186093  96.9857646  23.5950066
  22.5911887  95.5116817  23.2745027  22.1297039  98.1965948  27.6545703
  22.7569078  97.8143025  28.2683227  21.2724958  97.9780150  28.0201395
  32.5291148 108.6028923  29.2599438  33.0731052 109.2158881  28.7654393
  31.9477993 109.1608501  29.7766451  30.8148661 111.7249641  20.3914466
  30.6899800 110.9239381  19.8825412  31.4727752 112.2195834  19.9028436
  22.4356829  98.0798374  19.5691606  21.7143415  98.6934341  19.4299080
  23.2250085  98.6156138  19.4908252  32.8783569 109.5258661  22.0194016
  31.9313905 109.4064012  21.9472343  33.2266342 108.6381159  22.1020278
  25.2383142  95.4152800  25.8432258  25.7617544  95.6615097  26.6058567
  25.0195476  96.2472835  25.4235396  20.6350423  97.6856475  13.7103383
  20.3063130  96.8053854  13.5278489  20.9889794  97.6304143  14.5979772
  29.8830002 109.3211377  18.2198369  29.7354965 108.3928085  18.4005939
  30.7083496 109.3431468  17.7355444  23.7492247  97.9729444  14.0778861
  24.0888319  98.5015366  13.3557469  24.1964367  98.3109851  14.8537427
  33.4864124 110.1439936  19.3063241  34.4110672 109.9382797  19.1687692
  33.3179428 109.8956337  20.2152583  26.4435687  96.3566495  23.5281929
  26.1032508  95.5574308  23.9302609  25.7374694  96.6568206  22.9558762
  27.0952159  93.4415808  21.9809252  27.9178229  92.9676286  21.8588142
  27.3390223  94.2206291  22.4807938  25.7360394  96.4704066  12.2772153
  26.4568756  96.8485319  11.7735870  25.1125698  97.1892943  12.3807131
  29.8791517  97.1749215  13.2130486  30.0955131  98.0573853  12.9119314
  29.3985584  96.7835428  12.4836128  24.6190738 100.1334928  19.7901230
  24.4735319 100.4475231  20.6825512  24.1415942 100.7519829  19.2372129
  26.4787121  97.1237476  19.8382120  26.4648690  96.2278570  19.5014418
  27.1959549  97.1308140  20.4720406  28.3313252  97.5574816  21.8835247
  28.0731029  98.4791887  21.8819578  27.7998292  97.1605251  22.5735711
  33.2759440 110.6625604  14.6625333  33.4496318 110.0972026  13.9099185
  33.7688332 111.4626498  14.4804823  19.0936400 102.6740273  22.7288892
  18.5489868 103.4500081  22.8609166  19.9715750 103.0211077  22.5708013
  25.8824017  96.0051856  15.1069690  26.0039928  95.0768503  15.3060578
  25.5926059  96.0190542  14.1948005  28.7515207  93.6906767  18.2436410
  28.7736904  93.7546100  17.2888389  29.1683266  92.8511276  18.4376916
  39.1298832 103.4262026  16.2815632  39.5729978 102.6769352  15.8834756
  38.2525342 103.4172163  15.8989364  34.2634613 109.9792368  11.7622231
  34.9585517 110.5999061  11.9809546  34.6057763 109.1287719  12.0374609
  19.8802422 101.8010169  25.6219048  19.1384158 101.9492804  26.2083679
  19.5595166 102.0618434  24.7585798  36.1626036 107.4292073  13.2909562
  36.6877360 107.7679346  12.5658882  36.0748389 106.4939089  13.1072696
  27.8246085 111.3426147  25.4199438  28.1333211 111.0975294  26.2922138
  28.6221567 111.5472786  24.9318309  27.8466697 113.4964057  17.6504815
  27.4071687 113.0040435  18.3437672  28.5974814 112.9537024  17.4096890
  25.2940569 109.0402066  19.7227117  24.6720578 108.3772771  19.4229344
  25.9645436 109.0663198  19.0400764  25.3665096  97.5183854  29.3159623
  25.4153252  98.3945977  28.9337392  25.9087611  96.9761247  28.7431266
  35.8519942 108.0624977  28.5960760  35.0615486 108.0449116  28.0565259
  35.6153297 108.6013271  29.3509796  35.9717817 104.9117443  25.9093488
  36.0215822 104.7467451  26.8509011  35.8631740 104.0444702  25.5191369
  33.2621579 100.8948371  27.2252795  34.1631442 100.7554836  26.9336793
  33.3369554 101.0602826  28.1650972  27.5964385  98.2715226  26.0705981
  26.7267694  98.5648792  25.7988570  27.8323865  98.8555671  26.7913245
  37.4736014 107.3314385  26.1535510  37.1820822 107.6944366  26.9898971
  36.8608145 106.6181393  25.9748842  38.6731696 104.8967265  18.6738080
  39.5078588 105.3357069  18.8375640  38.8090825 104.4205918  17.8546326
  35.7223202 102.4547000  24.6215568  36.1977324 102.6474646  23.8134419
  34.7988768 102.5106185  24.3758951  30.3003419  94.4894843  23.5871402
  30.8185363  95.2255870  23.2617890  29.9458551  94.7958836  24.4218161
  30.5516013  90.9095126  19.1072298  30.8317767  90.2418315  19.7332725
  31.3366620  91.1024221  18.5946962  34.4224871  99.3312760  22.8543873
  35.3742294  99.4310857  22.8756097  34.2528322  98.5391028  23.3641958
  32.4439251  96.4168343  23.0403274  31.8489183  96.6973356  22.3449763
  32.1588947  96.9062244  23.8120015  31.5746741 110.3691270  11.8005907
  32.5077414 110.3036831  12.0038782  31.4869954 111.2047537  11.3420440
  34.2034758 109.6857140   8.7609854  34.1248389 109.3517004   9.6545612
  35.0244425 110.1778908   8.7601327  36.9012949 102.5518879  21.9686173
  36.8689269 101.6134880  22.1545857  37.5113573 102.6302916  21.2351998
  28.7396280 101.4214932   8.0113377  29.6855385 101.2921140   8.0801795
  28.3610525 100.6829594   8.4882805  37.0507437  99.3429923  22.0144456
  36.5346486  98.5588379  21.8274385  37.9347386  99.0148639  22.1790976
  34.7118164  93.0870938  17.9740269  34.5142985  92.7786027  18.8583601
  35.3217870  93.8132577  18.1038199  42.7189499 103.6134886  21.1092210
  43.4492887 103.3520174  21.6699913  42.1096444 102.8763608  21.1494278
  40.8004796 101.7542749  21.7066661  40.0737960 101.6198714  21.0983153
  40.3852083 102.0619577  22.5123379  28.6234972 105.4732678  29.4714034
  29.5437982 105.6511278  29.6654081  28.5884555 104.5288724  29.3193733
  17.8417137 100.6671272  18.3967309  17.5219922  99.8136580  18.1041683
  17.2950566 100.8819850  19.1525276  21.6197045 103.3833713  22.1136815
  21.8383055 104.3150821  22.1324849  22.0322819 103.0241688  22.8991619
  28.5401263  93.8901798  14.1012504  27.7301991  93.5448883  14.4767750
  29.2285680  93.5809342  14.6900115  30.4691811  92.9679845  15.7236800
  31.0222850  93.3875299  16.3826823  30.7061897  92.0415593  15.7659756
  26.4924910  98.9566919  31.5039564  26.3921637  99.9061276  31.4351655
  26.2746452  98.6285158  30.6315634  25.6937982  96.2051844   8.0880242
  26.5557146  96.5306742   8.3476059  25.8788326  95.4183340   7.5753307
  17.7105397 104.2874184  20.3660430  17.0168869 103.8728136  19.8530385
  18.4578388 104.3294720  19.7693849  33.8470618  95.0780370  15.2315465
  33.2669287  95.7365174  14.8493517  33.5806551  94.2557715  14.8202882
  32.2974184  94.4785428  17.4336785  32.7973963  94.5901963  16.6251104
  32.9409792  94.1746481  18.0737593  26.3556180 102.3864058  30.3204626
  25.8723262 103.1864418  30.5268515  26.4417119 102.3972003  29.3672070
  19.6242140 104.2192437  18.2426445  19.6012828 104.3180125  17.2908328
  19.9342776 105.0657588  18.5643611  22.2829518 106.2768592  22.3573060
  23.2372771 106.2452535  22.2902991  22.0842041 105.8159216  23.1723286
  22.8728900 104.8469709  24.9243857  23.6921789 105.3413787  24.9478695
  23.1465708 103.9301677  24.8961425  32.6295496  97.2380461  14.2871813
  31.7421351  97.5230111  14.0692008  33.0449485  97.0774224  13.4399090
  35.9810032  97.2626982  18.0026152  36.7570422  97.7523434  18.2750769
  35.2558166  97.6885036  18.4598022  38.4182591  97.9754601  19.0600093
  39.0127082  97.7350337  18.3493401  38.4909175  97.2561732  19.6873629
  32.6036520 102.7534997  14.5022103  32.5471721 103.2103548  13.6629735
  33.1564862 101.9925681  14.3244946  36.4141326  98.5424729  15.3272222
  36.1578260  98.1421364  16.1580430  35.7894194  99.2568523  15.2022362
  40.7253664 101.2820802  17.8343514  40.1653222 101.3513991  18.6075076
  40.1197167 101.1061786  17.1143010  23.7948872 112.7157529  19.5861700
  23.6781257 113.6602961  19.4840390  22.9741319 112.4131091  19.9747499
  33.6825407 107.4407665  10.4318293  34.5171011 107.0088863  10.2495768
  33.5209750 107.2689678  11.3595187  33.3371299 103.9439778  11.7974632
  33.2820103 103.7784049  10.8563076  32.7117354 104.6515811  11.9536822
  18.1263814  99.1807842  25.6236054  18.7722678  98.6706796  26.1123279
  17.9180965  99.9176524  26.1979480  30.6517206 106.2488690  31.1228195
  31.5208366 106.4229342  30.7614830  30.1723958 107.0683107  31.0003924
  26.6467425  93.4447887  11.3759951  26.6346094  94.3889727  11.5328221
  27.5390846  93.2618032  11.0819412  24.8203387 113.3685791  22.8017629
  25.7230633 113.4009401  23.1184123  24.5940757 112.4386242  22.8163964
  26.5756989 112.1216777  19.4627707  25.6252620 112.1218639  19.3492079
  26.8789475 111.3749512  18.9463742  30.4619544  90.0390664  15.6305887
  29.6951940  89.4849150  15.7762570  30.8730249  90.1112532  16.4920039
  22.4661305  96.3275459  29.7211069  23.3292767  95.9712264  29.9314393
  21.8926716  95.9889354  30.4086473  42.3109682 117.9577316  20.5273470
  42.9488092 117.8384063  19.8236810  42.1930525 118.9058160  20.5861422
  39.1199388 117.9104744  20.4634994  38.7817900 117.7945809  19.5755529
  39.9889157 117.5095909  20.4436000  34.9786204 119.7640220  16.4531885
  34.4151069 119.6730157  15.6848173  34.8638599 118.9440125  16.9334378
  39.6019171 119.0639596  26.4221200  39.5907812 118.6692394  25.5501703
  39.7639811 118.3305668  27.0154971  32.5250636 121.2591412  19.2916106
  33.3171928 120.9182237  18.8762405  32.7647286 121.3686387  20.2118259
  36.3226432 121.8476707  25.3700384  36.0316298 122.7522338  25.2547050
  36.9583417 121.8893235  26.0844453  37.2482639 119.2253556  21.9601743
  37.8446212 119.0009578  21.2458706  37.3057611 118.4838301  22.5627191
  41.8650951 115.6828770  17.6026678  42.6514040 115.2648193  17.2517095
  42.1289655 116.5874862  17.7708326  42.0361028 121.1201620  12.3015334
  41.4006861 121.1936246  13.0136239  41.7058434 121.7095219  11.6234414
  47.2659378 115.6204003  18.5059656  47.9984550 115.0503220  18.7397486
  46.5098733 115.2325603  18.9466162  36.5403956 118.5821097  11.9976309
  36.4240215 117.9066001  12.6657394  36.6506216 118.0953471  11.1808462
  38.8835497 118.0431244  15.7022999  38.5193705 117.5161865  16.4135920
  39.7402613 117.6529713  15.5289484  44.7884798 109.3325577  22.9654265
  44.4568123 110.2020988  22.7415480  44.1930411 109.0161861  23.6448295
  38.5240984 113.0721144  10.6984347  38.6915387 113.9401380  11.0654818
  38.3338153 113.2348426   9.7745636  41.2816318 121.5338123  22.3650177
  40.9817041 122.4363162  22.2565985  40.9367377 121.2670306  23.2171330
  34.7328799 117.9851920  18.3986882  33.8079296 117.8528134  18.6064574
  34.9813212 118.7646139  18.8956824  44.6813461 114.0520663  20.0447615
  43.7730339 113.9836072  19.7506376  44.6301057 114.5292608  20.8729440
  38.5030205 115.5278802  11.6831014  38.3829830 115.9735852  12.5216494
  37.8082794 115.8764119  11.1244552  32.0937610 117.6285193  19.2330671
  32.2229991 117.8819672  20.1470083  31.4135061 118.2212901  18.9135326
  38.7554327 115.4710309  27.9882512  37.9787661 116.0304229  27.9785377
  39.3944890 115.9567092  28.5097382  46.5475108 112.2537102  21.8225489
  45.9049488 112.5469635  21.1765283  46.0430036 112.1390022  22.6278685
  44.2015271 116.0000275  12.5111348  45.1133128 116.2327661  12.3359045
  43.6924918 116.5837319  11.9486427  37.0100699 118.2795762  27.5500479
  37.7515384 118.8180806  27.2735303  36.3037685 118.9062051  27.7072031
  42.4856039 120.4224903  26.1472641  42.8939395 119.9807313  25.4027273
  41.7633301 119.8477530  26.4006833  38.8387109 115.3597509  23.5206197
  39.6848304 115.7836923  23.6640846  38.7785747 114.7031134  24.2144761
  42.8084854 120.9826093  19.9024929  42.1793716 121.1471807  19.2000997
  42.4210516 121.3967703  20.6735893  46.6874086 121.9180531  17.2569293
  46.0025124 122.2979432  16.7066326  46.7717935 122.5275858  17.9901241
  41.9886554 113.0201878  25.1787371  41.7447486 113.7743938  24.6421647
  42.2646485 113.3987225  26.0134618  43.9425017 119.5640490  23.8564637
  44.1541912 120.2072250  23.1799018  43.8954765 118.7302807  23.3886567
  41.5451246 112.1758311  20.7601209  40.6835725 112.4739564  21.0517946
  41.5713681 112.3928710  19.8282241  38.3612816 120.7200501  17.1675015
  38.8251161 120.9988204  16.3779637  38.0969614 119.8183946  16.9848105
  35.2536897 120.2671983  20.1054778  35.8238254 120.6959251  19.4672262
  35.8445008 119.9854567  20.8038963  37.2981702 116.8423654  13.9764580
  38.0005745 117.2944697  14.4438506  36.9662330 116.2007472  14.6044473
  35.7462063 115.4335410  28.3515789  35.1160724 116.1151691  28.5851186
  35.6398151 115.3218492  27.4068927  31.0407036 115.1007206  19.2781713
  30.2506090 115.3564735  18.8021824  31.5318283 115.9155544  19.3833754
  45.0570845 122.4412445  22.0286994  45.8788289 122.0392633  21.7469676
  45.0533248 122.3380680  22.9803110  32.9921781 115.4651786  16.2365190
  32.1952944 115.5770480  16.7548686  32.7647373 115.8038438  15.3706080
  38.8227449 121.9896489  24.1847705  38.8871881 122.4516896  25.0205876
  38.1138372 121.3593854  24.3130014  29.3244739 115.3537697  21.7096704
  29.5752777 116.2384707  21.9754280  29.8604287 115.1742298  20.9371796
  53.1476838 118.7851194  18.3771966  52.3940547 118.2158592  18.2215970
  53.2824379 118.7513858  19.3242600  38.5375466 123.6564596  14.0526685
  38.4021141 124.5016132  14.4811533  39.0785279 123.8583874  13.2892619
  35.0242806 109.7356176  30.7141040  34.6309751 109.1822375  31.3888684
  35.8408946 110.0466755  31.1047558  37.9410767 111.1514055  28.3061297
  38.6820480 111.7521208  28.2265759  38.1728690 110.4091693  27.7479339
  33.0852105 116.3370422  26.5839526  32.9705620 115.4355680  26.8846625
  32.2296623 116.5834119  26.2324343  40.1643943 124.2788163  28.1827027
  39.7207797 123.4924541  27.8647931  40.8261156 124.4667313  27.5170918
  34.9231064 125.8083964  22.7087705  35.4738489 125.6801028  21.9364699
  34.0842540 126.1078853  22.3582598  42.2625181 124.5590963  26.2108428
  42.2443656 125.3799844  25.7188697  43.1845101 124.4345038  26.4358569
  38.7198235 122.0735092  27.0531937  39.2526572 121.3123380  26.8231245
  38.1912316 121.7808744  27.7956091  41.8867930 107.1795158  22.5825578
  41.5432199 108.0696800  22.5064689  42.2546892 106.9896816  21.7195163
  41.8518213 117.1703769  11.0898013  41.3364836 117.9408374  11.3286401
  41.5795521 116.4968905  11.7131075  39.4365324 112.0153470  16.1483252
  38.5806920 111.6260320  15.9688891  39.8492275 112.0945431  15.2883037
  40.9664470 109.5499813  20.5474812  40.4629266 109.5129948  19.7342617
  41.2595077 110.4592556  20.6071468  37.2107356 109.6338543  19.5540993
  38.0760353 109.4381352  19.1946883  37.2784865 109.4048895  20.4810350
  46.8252487 119.9236124  13.0251187  46.0481929 119.5847283  12.5806349
  47.5043968 119.9288747  12.3506152  41.6404516 115.0430861  12.9157795
  41.3354651 115.3577011  13.7667938  42.5934958 115.1212281  12.9585128
  40.0850948 121.2021085  14.5650749  39.5572309 120.4673844  14.2523986
  39.5838450 121.9795761  14.3190717  45.0643794 119.3970105  19.6817795
  44.4067468 120.0869367  19.7697924  45.8684193 119.7866537  20.0251781
  34.8169675 111.8640751  16.9257360  35.3913427 111.6415932  16.1930553
  35.4040658 111.9329445  17.6785961  43.8749252 117.7514478  17.7321737
  44.3881134 118.3844470  18.2343446  44.5250476 117.1515673  17.3665097
  35.1439262 113.8945212  10.9453245  34.3076575 114.2319899  11.2662520
  35.0044032 113.7594192  10.0080382  37.1192343 108.7382000  15.6532430
  36.4656755 108.4231017  15.0289044  37.0772817 108.1157740  16.3792252
  40.3530083 115.2263933  19.9780077  39.4352645 115.4478880  19.8201765
  40.7690227 115.3010244  19.1191785  41.1365131 116.6255349  15.1082757
  41.8836950 117.1376746  14.7989879  41.4056721 116.3039402  15.9687151
  39.4091781 119.1213890  12.0909712  38.5003000 118.8372923  12.1882181
  39.4386865 119.5412968  11.2313019  44.6411049 122.7320479  15.8600879
  44.1873376 121.8911389  15.9166070  44.0105015 123.3681878  16.1975659
  43.5843968 113.6612465  17.0901547  42.8466725 113.1489852  17.4211789
  43.8370742 113.2212847  16.2784824  43.0843988 124.5696976  16.7950697
  43.3766962 125.1302033  16.0763063  43.5942608 124.8625537  17.5503857
  43.6855595 106.4388717  17.6843316  43.9914472 105.5786081  17.3969231
  44.4108200 107.0306338  17.4842310  29.9779952 116.8419404  16.0724914
  29.7804351 116.2488765  15.3475980  29.4226616 116.5371614  16.7900853
  37.9576675 116.7342510  18.1919507  38.0125285 115.7816347  18.1161984
  37.1467877 116.8901949  18.6760805  35.8969035 115.3519570  15.9509886
  35.0836901 115.6513741  16.3575078  36.3928029 114.9575259  16.6684368
  38.0477613 125.3477327  17.8844151  38.0053792 125.5738173  16.9552683
  38.9640312 125.1140702  18.0329952  41.4943247 115.8161395  24.7824780
  41.8492635 116.0432868  25.6419246  42.1415378 116.1479771  24.1602035
  47.2240984 118.9379830  15.4874109  47.0858882 119.1281426  14.5595298
  46.8677203 119.6999213  15.9442160  35.3883110 112.9237926  21.5671121
  36.0282489 112.7826685  20.8694084  34.5560640 112.6372439  21.1909723
  47.2510363 121.0056357  20.4985380  47.6846870 120.9131647  21.3468434
  47.9641944 120.9813858  19.8605396  36.1643414 122.2240356  17.6806113
  36.9584012 121.7290676  17.4788688  35.4535106 121.6958219  17.3173819
  40.9838258 124.6058452  22.0318481  41.0375281 125.1749388  22.7996197
  40.1153040 124.7760337  21.6672518  32.4726177 116.3683438  13.7565866
  31.5423765 116.3067893  13.9735828  32.5683649 115.8459391  12.9602507
  32.3911726 112.8938251  16.3444108  32.6518544 113.8083584  16.2353268
  33.2128899 112.4262693  16.4940721  33.8636652 114.3076008  23.5142932
  34.5359705 114.0993370  22.8655581  33.0366438 114.1098094  23.0748165
  48.1125913 121.0480058  23.0318266  48.3061803 121.9525869  23.2777541
  48.0126531 120.5887477  23.8656851  39.7662224 110.9337949  25.5308593
  39.1190139 111.6327898  25.4373070  40.5363239 111.3674093  25.8984841
  43.1741022 121.1986801  28.6059146  43.0226528 120.9697353  27.6889230
  43.1645701 122.1557402  28.6190491  39.9426358 118.7718714  23.5905413
  40.8718418 118.9229873  23.4174380  39.5217388 118.8602734  22.7354059
  38.7414690 122.7969378  21.3603950  38.6025776 122.4288162  22.2329889
  37.9529286 123.3117017  21.1887908  40.2919905 122.1750981  18.7492788
  39.9569738 122.1351751  19.6450438  39.7923851 121.5095697  18.2763198
  34.2664149 117.5818611  24.2745369  34.1283947 116.8498850  24.8756908
  35.1769072 117.4927511  23.9929557  43.2279097 119.5207015   9.0229848
  42.6108267 118.7953843   8.9262901  42.7595585 120.2816375   8.6796922
  36.8946450 117.2938570  23.7629049  37.6046068 116.6531762  23.7215667
  36.8515758 117.5451465  24.6855230  44.8833228 124.2305923  26.6835628
  44.8245774 123.5465144  26.0166211  45.2852747 124.9724913  26.2316254
  35.6075384 114.2803788  25.5824689  35.0712741 113.8294526  26.2346285
  35.0192092 114.4149697  24.8395153  44.8850636 122.1945507  24.9149608
  43.9977414 121.8571429  25.0376007  45.4549187 121.4628539  25.1518373
  31.3414505 113.4159796  22.6677683  31.2572694 112.8085465  21.9328093
  30.5197211 113.9068814  22.6687179  38.4151789 126.8546960  21.8810851
  38.3421960 127.6601931  22.3930156  37.9729182 127.0538926  21.0558873
  38.2041569 126.0918730  15.3913673  37.4209090 126.6340410  15.4851897
  38.9034314 126.6092709  15.7907914  41.5138219 111.9013359  18.0347878
  42.0106918 111.1483322  17.7148948  40.7425200 111.9377676  17.4691087
  49.3667976 117.6053725  19.6766170  49.3557852 118.4878440  19.3060103
  48.4985356 117.2525276  19.4820707  40.8750472 126.7533794  24.0369010
  41.5878445 127.3881259  23.9644911  40.3840501 126.8497660  23.2209012
  42.5967999 120.6585046  15.6086301  41.6624278 120.7786509  15.4391006
  42.7744668 119.7557513  15.3446311  38.0973187 114.0430742  17.7619563
  37.7270975 113.4901783  18.4500468  38.5932280 113.4388876  17.2094563
  45.9840551 116.5002366  16.1436336  46.4501003 117.3330357  16.0696638
  46.4348051 116.0347347  16.8481594  35.9262386 124.5028237  24.8574581
  36.6271845 125.1364720  25.0103975  35.4557501 124.8442969  24.0970220
  44.0516782 122.8446187  13.1422488  44.3276626 122.7302782  14.0516362
  43.1821281 122.4463672  13.1034661  43.9557213 108.8682953  20.1827237
  43.0420293 109.0987180  20.3509444  44.3850315 108.9521397  21.0341269
  43.7263672 117.0572845  22.6827131  43.0735122 117.3048752  22.0279584
  44.1044052 116.2436983  22.3489608  40.6870846 127.0932538  16.7855301
  40.8693240 126.2754194  17.2483054  41.5103832 127.3100230  16.3480191
  41.0213011 126.0200723  14.0470350  41.5500778 125.5093178  13.4340512
  41.2841231 125.7043253  14.9115883  39.7751245 117.7992656  29.1693168
  39.0991882 117.6986785  29.8395543  40.5978879 117.6431869  29.6329165
  31.5230104 124.0364592  21.7905683  32.1083541 123.2908280  21.9233587
  31.3254943 124.3468549  22.6742347  26.1147759 116.6070192  20.5110126
  26.1531858 116.0733783  21.3047245  25.6088052 116.0805398  19.8921104
  38.5174028 129.1059583  23.4050784  39.0692336 129.2691205  24.1699869
  38.8580221 129.6964021  22.7330809  33.4938521 111.4534733  24.0072669
  33.5579848 112.3149564  23.5950066  33.4305641 110.8408735  23.2745027
  32.9690794 113.5257866  27.6545703  33.5962832 113.1434943  28.2683227
  32.1118712 113.3072067  28.0201395  43.3684902 123.9320841  29.2599438
  43.9124806 124.5450799  28.7654393  42.7871747 124.4900419  29.7766451
  41.6542415 127.0541559  20.3914466  41.5293555 126.2531299  19.8825412
  42.3121506 127.5487752  19.9028436  33.2750583 113.4090291  19.5691606
  32.5537169 114.0226259  19.4299080  34.0643839 113.9448056  19.4908252
  43.7177324 124.8550579  22.0194016  42.7707659 124.7355930  21.9472343
  44.0660097 123.9673077  22.1020278  36.0776897 110.7444718  25.8432258
  36.6011299 110.9907014  26.6058567  35.8589230 111.5764753  25.4235396
  31.4744178 113.0148392  13.7103383  31.1456884 112.1345771  13.5278489
  31.8283549 112.9596061  14.5979772  40.7223757 124.6503295  18.2198369
  40.5748719 123.7220002  18.4005939  41.5477250 124.6723386  17.7355444
  34.5886001 113.3021362  14.0778861  34.9282074 113.8307283  13.3557469
  35.0358122 113.6401768  14.8537427  44.3257879 125.4731854  19.3063241
  45.2504426 125.2674715  19.1687692  44.1573182 125.2248255  20.2152583
  37.2829442 111.6858413  23.5281929  36.9426262 110.8866226  23.9302609
  36.5768448 111.9860124  22.9558762  37.9345914 108.7707725  21.9809252
  38.7571983 108.2968203  21.8588142  38.1783977 109.5498209  22.4807938
  36.5754148 111.7995984  12.2772153  37.2962511 112.1777236  11.7735870
  35.9519452 112.5184861  12.3807131  40.7185271 112.5041133  13.2130486
  40.9348886 113.3865771  12.9119314  40.2379338 112.1127346  12.4836128
  35.4584493 115.4626846  19.7901230  35.3129073 115.7767149  20.6825512
  34.9809696 116.0811746  19.2372129  37.3180875 112.4529394  19.8382120
  37.3042444 111.5570487  19.5014418  38.0353304 112.4600058  20.4720406
  39.1707006 112.8866734  21.8835247  38.9124784 113.8083805  21.8819578
  38.6392046 112.4897169  22.5735711  44.1153195 125.9917521  14.6625333
  44.2890072 125.4263944  13.9099185  44.6082086 126.7918416  14.4804823
  29.9330155 118.0032190  22.7288892  29.3883623 118.7791998  22.8609166
  30.8109505 118.3502995  22.5708013  36.7217771 111.3343774  15.1069690
  36.8433683 110.4060420  15.3060578  36.4319814 111.3482460  14.1948005
  39.5908962 109.0198685  18.2436410  39.6130659 109.0838018  17.2888389
  40.0077021 108.1803193  18.4376916  49.9692586 118.7553944  16.2815632
  50.4123732 118.0061269  15.8834756  49.0919096 118.7464081  15.8989364
  45.1028367 125.3084286  11.7622231  45.7979272 125.9290978  11.9809546
  45.4451517 124.4579637  12.0374609  30.7196177 117.1302087  25.6219048
  29.9777913 117.2784722  26.2083679  30.3988921 117.3910352  24.7585798
  47.0019790 122.7583991  13.2909562  47.5271115 123.0971264  12.5658882
  46.9142143 121.8231006  13.1072696  38.6639839 126.6718065  25.4199438
  38.9726966 126.4267212  26.2922138  39.4615321 126.8764703  24.9318309
  38.6860451 128.8255974  17.6504815  38.2465442 128.3332353  18.3437672
  39.4368568 128.2828942  17.4096890  36.1334323 124.3693983  19.7227117
  35.5114333 123.7064689  19.4229344  36.8039190 124.3955115  19.0400764
  36.2058851 112.8475772  29.3159623  36.2547006 113.7237894  28.9337392
  36.7481365 112.3053165  28.7431266  46.6913697 123.3916895  28.5960760
  45.9009240 123.3741034  28.0565259  46.4547051 123.9305188  29.3509796
  46.8111572 120.2409361  25.9093488  46.8609577 120.0759369  26.8509011
  46.7025495 119.3736620  25.5191369  44.1015334 116.2240289  27.2252795
  45.0025197 116.0846754  26.9336793  44.1763308 116.3894744  28.1650972
  38.4358139 113.6007144  26.0705981  37.5661449 113.8940710  25.7988570
  38.6717620 114.1847589  26.7913245  48.3129768 122.6606303  26.1535510
  48.0214577 123.0236283  26.9898971  47.7001900 121.9473311  25.9748842
  49.5125451 120.2259182  18.6738080  50.3472342 120.6648987  18.8375640
  49.6484580 119.7497836  17.8546326  46.5616957 117.7838917  24.6215568
  47.0371078 117.9766564  23.8134419  45.6382522 117.8398103  24.3758951
  41.1397173 109.8186761  23.5871402  41.6579117 110.5547788  23.2617890
  40.7852306 110.1250754  24.4218161  41.3909767 106.2387043  19.1072298
  41.6711521 105.5710232  19.7332725  42.1760374 106.4316139  18.5946962
  45.2618626 114.6604677  22.8543873  46.2136049 114.7602775  22.8756097
  45.0922076 113.8682946  23.3641958  43.2833005 111.7460261  23.0403274
  42.6882937 112.0265273  22.3449763  42.9982702 112.2354162  23.8120015
  42.4140496 125.6983187  11.8005907  43.3471169 125.6328749  12.0038782
  42.3263708 126.5339454  11.3420440  45.0428512 125.0149058   8.7609854
  44.9642144 124.6808921   9.6545612  45.8638179 125.5070826   8.7601327
  47.7406703 117.8810797  21.9686173  47.7083024 116.9426798  22.1545857
  48.3507327 117.9594834  21.2351998  39.5790034 116.7506850   8.0113377
  40.5249139 116.6213058   8.0801795  39.2004279 116.0121512   8.4882805
  47.8901192 114.6721840  22.0144456  47.3740241 113.8880297  21.8274385
  48.7741140 114.3440557  22.1790976  45.5511919 108.4162856  17.9740269
  45.3536740 108.1077944  18.8583601  46.1611624 109.1424495  18.1038199
  53.5583253 118.9426804  21.1092210  54.2886642 118.6812092  21.6699913
  52.9490199 118.2055526  21.1494278  51.6398550 117.0834666  21.7066661
  50.9131714 116.9490631  21.0983153  51.2245837 117.3911495  22.5123379
  39.4628727 120.8024596  29.4714034  40.3831736 120.9803195  29.6654081
  39.4278310 119.8580642  29.3193733  28.6810892 115.9963190  18.3967309
  28.3613676 115.1428498  18.1041683  28.1344320 116.2111768  19.1525276
  32.4590799 118.7125631  22.1136815  32.6776809 119.6442739  22.1324849
  32.8716573 118.3533605  22.8991619  39.3795017 109.2193716  14.1012504
  38.5695746 108.8740801  14.4767750  40.0679434 108.9101260  14.6900115
  41.3085565 108.2971763  15.7236800  41.8616604 108.7167216  16.3826823
  41.5455652 107.3707511  15.7659756  37.3318665 114.2858837  31.5039564
  37.2315392 115.2353194  31.4351655  37.1140207 113.9577075  30.6315634
  36.5331736 111.5343762   8.0880242  37.3950900 111.8598660   8.3476059
  36.7182080 110.7475258   7.5753307  28.5499152 119.6166101  20.3660430
  27.8562623 119.2020054  19.8530385  29.2972143 119.6586638  19.7693849
  44.6864373 110.4072288  15.2315465  44.1063042 111.0657092  14.8493517
  44.4200305 109.5849633  14.8202882  43.1367939 109.8077346  17.4336785
  43.6367717 109.9193880  16.6251104  43.7803547 109.5038399  18.0737593
  37.1949935 117.7155975  30.3204626  36.7117016 118.5156336  30.5268515
  37.2810874 117.7263920  29.3672070  30.4635894 119.5484355  18.2426445
  30.4406582 119.6472042  17.2908328  30.7736531 120.3949506  18.5643611
  33.1223272 121.6060510  22.3573060  34.0766526 121.5744452  22.2902991
  32.9235796 121.1451134  23.1723286  33.7122654 120.1761626  24.9243857
  34.5315543 120.6705705  24.9478695  33.9859462 119.2593594  24.8961425
  43.4689251 112.5672378  14.2871813  42.5815106 112.8522029  14.0692008
  43.8843240 112.4066142  13.4399090  46.8203787 112.5918899  18.0026152
  47.5964177 113.0815352  18.2750769  46.0951921 113.0176954  18.4598022
  49.2576345 113.3046519  19.0600093  49.8520836 113.0642255  18.3493401
  49.3302929 112.5853649  19.6873629  43.4430274 118.0826914  14.5022103
  43.3865476 118.5395466  13.6629735  43.9958617 117.3217599  14.3244946
  47.2535080 113.8716646  15.3272222  46.9972014 113.4713282  16.1580430
  46.6287948 114.5860440  15.2022362  51.5647418 116.6112720  17.8343514
  51.0046976 116.6805909  18.6075076  50.9590921 116.4353704  17.1143010
  34.6342627 128.0449447  19.5861700  34.5175011 128.9894879  19.4840390
  33.8135073 127.7423008  19.9747499  44.5219161 122.7699582  10.4318293
  45.3564765 122.3380781  10.2495768  44.3603504 122.5981596  11.3595187
  44.1765054 119.2731696  11.7974632  44.1213857 119.1075967  10.8563076
  43.5511109 119.9807729  11.9536822  28.9657569 114.5099760  25.6236054
  29.6116432 113.9998714  26.1123279  28.7574720 115.2468442  26.1979480
  41.4910961 121.5780608  31.1228195  42.3602120 121.7521260  30.7614830
  41.0117712 122.3975024  31.0003924  37.4861179 108.7739805  11.3759951
  37.4739849 109.7181645  11.5328221  38.3784601 108.5909950  11.0819412
  35.6597141 128.6977709  22.8017629  36.5624388 128.7301319  23.1184123
  35.4334511 127.7678159  22.8163964  37.4150743 127.4508695  19.4627707
  36.4646374 127.4510557  19.3492079  37.7183229 126.7041430  18.9463742
  41.3013299 105.3682581  15.6305887  40.5345694 104.8141068  15.7762570
  41.7124004 105.4404450  16.4920039  33.3055060 111.6567377  29.7211069
  34.1686521 111.3004182  29.9314393  32.7320470 111.3181272  30.4086473
  53.1503437 133.2869233  20.5273470  53.7881846 133.1675981  19.8236810
  53.0324279 134.2350077  20.5861422  49.9593143 133.2396662  20.4634994
  49.6211654 133.1237726  19.5755529  50.8282911 132.8387827  20.4436000
  45.8179959 135.0932138  16.4531885  45.2544824 135.0022075  15.6848173
  45.7032354 134.2732042  16.9334378  50.4412926 134.3931513  26.4221200
  50.4301567 133.9984312  25.5501703  50.6033565 133.6597586  27.0154971
  43.3644390 136.5883330  19.2916106  44.1565682 136.2474154  18.8762405
  43.6041041 136.6978305  20.2118259  47.1620187 137.1768625  25.3700384
  46.8710053 138.0814256  25.2547050  47.7977171 137.2185153  26.0844453
  48.0876394 134.5545474  21.9601743  48.6839966 134.3301496  21.2458706
  48.1451365 133.8130219  22.5627191  52.7044705 131.0120687  17.6026678
  53.4907794 130.5940110  17.2517095  52.9683409 131.9166780  17.7708326
  58.1053132 130.9495921  18.5059656  58.8378304 130.3795137  18.7397486
  57.3492488 130.5617521  18.9466162  47.3797711 133.9113015  11.9976309
  47.2633969 133.2357918  12.6657394  47.4899971 133.4245389  11.1808462
  49.7229252 133.3723162  15.7022999  49.3587459 132.8453783  16.4135920
  50.5796368 132.9821631  15.5289484  55.6278552 124.6617495  22.9654265
  55.2961877 125.5312906  22.7415480  55.0324166 124.3453779  23.6448295
  49.3634739 128.4013062  10.6984347  49.5309141 129.2693298  11.0654818
  49.1731908 128.5640343   9.7745636  52.1210072 136.8630041  22.3650177
  51.8210795 137.7655079  22.2565985  51.7761132 136.5962224  23.2171330
  45.5722554 133.3143837  18.3986882  44.6473050 133.1820052  18.6064574
  45.8206967 134.0938057  18.8956824  55.5207216 129.3812581  20.0447615
  54.6124093 129.3127989  19.7506376  55.4694812 129.8584526  20.8729440
  49.3423960 130.8570719  11.6831014  49.2223585 131.3027770  12.5216494
  48.6476548 131.2056037  11.1244552  42.9331365 132.9577111  19.2330671
  43.0623746 133.2111590  20.1470083  42.2528816 133.5504819  18.9135326
  49.5948082 130.8002226  27.9882512  48.8181416 131.3596147  27.9785377
  50.2338645 131.2859009  28.5097382  57.3868862 127.5829019  21.8225489
  56.7443242 127.8761552  21.1765283  56.8823791 127.4681940  22.6278685
  47.8494454 133.6087680  27.5500479  48.5909138 134.1472724  27.2735303
  47.1431439 134.2353969  27.7072031  53.3249794 135.7516820  26.1472641
  53.7333150 135.3099231  25.4027273  52.6027055 135.1769448  26.4006833
  49.6780864 130.6889427  23.5206197  50.5242059 131.1128841  23.6640846
  49.6179501 130.0323051  24.2144761  53.6478608 136.3118011  19.9024929
  53.0187471 136.4763725  19.2000997  53.2604270 136.7259620  20.6735893
  57.5267840 137.2472449  17.2569293  56.8418878 137.6271350  16.7066326
  57.6111689 137.8567775  17.9901241  52.8280309 128.3493795  25.1787371
  52.5841241 129.1035856  24.6421647  53.1040239 128.7279143  26.0134618
  54.7818772 134.8932408  23.8564637  54.9935667 135.5364168  23.1799018
  54.7348520 134.0594724  23.3886567  52.3845001 127.5050228  20.7601209
  51.5229480 127.8031482  21.0517946  52.4107435 127.7220627  19.8282241
  49.2006570 136.0492419  17.1675015  49.6644916 136.3280122  16.3779637
  48.9363368 135.1475864  16.9848105  46.0930651 135.5963900  20.1054778
  46.6632008 136.0251169  19.4672262  46.6838763 135.3146485  20.8038963
  48.1375456 132.1715571  13.9764580  48.8399499 132.6236615  14.4438506
  47.8056085 131.5299390  14.6044473  46.5855818 130.7627328  28.3515789
  45.9554478 131.4443609  28.5851186  46.4791906 130.6510410  27.4068927
  41.8800790 130.4299124  19.2781713  41.0899844 130.6856653  18.8021824
  42.3712037 131.2447462  19.3833754  55.8964600 137.7704363  22.0286994
  56.7182043 137.3684550  21.7469676  55.8927003 137.6672597  22.9803110
  43.8315535 130.7943703  16.2365190  43.0346699 130.9062397  16.7548686
  43.6041128 131.1330355  15.3706080  49.6621203 137.3188406  24.1847705
  49.7265636 137.7808814  25.0205876  48.9532127 136.6885771  24.3130014
  40.1638493 130.6829614  21.7096704  40.4146531 131.5676624  21.9754280
  40.6998041 130.5034216  20.9371796  63.9870593 134.1143112  18.3771966
  63.2334301 133.5450510  18.2215970  64.1218134 134.0805776  19.3242600
  45.8636560 125.0648094  30.7141040  45.4703506 124.5114292  31.3888684
  46.6802701 125.3758672  31.1047558  48.7804521 126.4805973  28.3061297
  49.5214235 127.0813126  28.2265759  49.0122444 125.7383611  27.7479339
  43.9245859 131.6662340  26.5839526  43.8099375 130.7647597  26.8846625
  43.0690377 131.9126037  26.2324343  51.0037697 139.6080080  28.1827027
  50.5601551 138.8216459  27.8647931  51.6654911 139.7959231  27.5170918
  53.1018935 139.8882880  26.2108428  53.0837411 140.7091761  25.7188697
  54.0238855 139.7636956  26.4358569  49.5591989 137.4027010  27.0531937
  50.0920326 136.6415298  26.8231245  49.0306070 137.1100662  27.7956091
  52.7261684 122.5087076  22.5825578  52.3825954 123.3988717  22.5064689
  53.0940647 122.3188733  21.7195163  50.2759078 127.3445388  16.1483252
  49.4200674 126.9552238  15.9688891  50.6886030 127.4237348  15.2883037
  51.8058225 124.8791731  20.5474812  51.3023020 124.8421866  19.7342617
  52.0988832 125.7884474  20.6071468  48.0501111 124.9630461  19.5540993
  48.9154107 124.7673269  19.1946883  48.1178620 124.7340812  20.4810350
  52.4798270 130.3722779  12.9157795  52.1748406 130.6868928  13.7667938
  53.4328712 130.4504199  12.9585128  50.9244702 136.5313002  14.5650749
  50.3966064 135.7965762  14.2523986  50.4232205 137.3087679  14.3190717
  55.9037548 134.7262023  19.6817795  55.2461223 135.4161284  19.7697924
  56.7077947 135.1158455  20.0251781  45.6563430 127.1932669  16.9257360
  46.2307182 126.9707850  16.1930553  46.2434412 127.2621363  17.6785961
  54.7143007 133.0806396  17.7321737  55.2274889 133.7136387  18.2343446
  55.3644231 132.4807591  17.3665097  45.9833017 129.2237130  10.9453245
  45.1470329 129.5611816  11.2662520  45.8437786 129.0886109  10.0080382
  47.9586097 124.0673918  15.6532430  47.3050510 123.7522935  15.0289044
  47.9166572 123.4449658  16.3792252  51.1923838 130.5555851  19.9780077
  50.2746399 130.7770798  19.8201765  51.6083981 130.6302162  19.1191785
  51.9758886 131.9547267  15.1082757  52.7230704 132.4668664  14.7989879
  52.2450475 131.6331319  15.9687151  54.4237723 128.9904383  17.0901547
  53.6860479 128.4781769  17.4211789  54.6764496 128.5504765  16.2784824
  54.5249350 121.7680635  17.6843316  54.8308227 120.9077998  17.3969231
  55.2501955 122.3598255  17.4842310  40.8173706 132.1711322  16.0724914
  40.6198106 131.5780682  15.3475980  40.2620370 131.8663532  16.7900853
  48.7970430 132.0634428  18.1919507  48.8519040 131.1108264  18.1161984
  47.9861632 132.2193867  18.6760805  46.7362790 130.6811488  15.9509886
  45.9230655 130.9805658  16.3575078  47.2321784 130.2867177  16.6684368
  52.3337001 131.1453312  24.7824780  52.6886389 131.3724785  25.6419246
  52.9809133 131.4771689  24.1602035  46.2276864 128.2529843  21.5671121
  46.8676244 128.1118602  20.8694084  45.3954395 127.9664357  21.1909723
  58.0904118 136.3348275  20.4985380  58.5240625 136.2423564  21.3468434
  58.8035699 136.3105776  19.8605396  47.0037168 137.5532274  17.6806113
  47.7977767 137.0582594  17.4788688  46.2928861 137.0250137  17.3173819
  51.8232013 139.9350369  22.0318481  51.8769035 140.5041306  22.7996197
  50.9546794 140.1052254  21.6672518  43.3119932 131.6975355  13.7565866
  42.3817520 131.6359811  13.9735828  43.4077404 131.1751308  12.9602507
  43.2305481 128.2230168  16.3444108  43.4912298 129.1375502  16.2353268
  44.0522653 127.7554611  16.4940721  44.7030406 129.6367925  23.5142932
  45.3753460 129.4285288  22.8655581  43.8760193 129.4390011  23.0748165
  58.9519667 136.3771976  23.0318266  59.1455558 137.2817786  23.2777541
  58.8520286 135.9179395  23.8656851  50.6055978 126.2629866  25.5308593
  49.9583893 126.9619816  25.4373070  51.3756994 126.6966010  25.8984841
  54.0134776 136.5278719  28.6059146  53.8620283 136.2989270  27.6889230
  54.0039456 137.4849320  28.6190491  50.7820113 134.1010631  23.5905413
  51.7112173 134.2521791  23.4174380  50.3611143 134.1894652  22.7354059
  49.5808444 138.1261296  21.3603950  49.4419530 137.7580080  22.2329889
  48.7923041 138.6408935  21.1887908  51.1313659 137.5042898  18.7492788
  50.7963492 137.4643668  19.6450438  50.6317605 136.8387614  18.2763198
  45.1057903 132.9110528  24.2745369  44.9677701 132.1790767  24.8756908
  46.0162827 132.8219429  23.9929557  47.7340204 132.6230488  23.7629049
  48.4439823 131.9823680  23.7215667  47.6909512 132.8743383  24.6855230
  55.7226983 139.5597841  26.6835628  55.6639529 138.8757061  26.0166211
  56.1246501 140.3016831  26.2316254  46.4469138 129.6095706  25.5824689
  45.9106495 129.1586444  26.2346285  45.8585847 129.7441615  24.8395153
  55.7244390 137.5237425  24.9149608  54.8371169 137.1863347  25.0376007
  56.2942941 136.7920456  25.1518373  42.1808259 128.7451713  22.6677683
  42.0966448 128.1377383  21.9328093  41.3590966 129.2360732  22.6687179
  52.3531973 127.2305277  18.0347878  52.8500673 126.4775239  17.7148948
  51.5818955 127.2669594  17.4691087  60.2061731 132.9345642  19.6766170
  60.1951607 133.8170358  19.3060103  59.3379110 132.5817193  19.4820707
  53.4361754 135.9876964  15.6086301  52.5018033 136.1078427  15.4391006
  53.6138422 135.0849431  15.3446311  48.9366942 129.3722660  17.7619563
  48.5664729 128.8193700  18.4500468  49.4326034 128.7680793  17.2094563
  56.8234305 131.8294283  16.1436336  57.2894757 132.6622275  16.0696638
  57.2741806 131.3639265  16.8481594  54.7950968 124.1974870  20.1827237
  53.8814048 124.4279097  20.3509444  55.2244069 124.2813314  21.0341269
  54.5657426 132.3864762  22.6827131  53.9128877 132.6340670  22.0279584
  54.9437806 131.5728901  22.3489608  50.6144999 133.1284573  29.1693168
  49.9385636 133.0278703  29.8395543  51.4372633 132.9723787  29.6329165
  36.9541513 131.9362110  20.5110126  36.9925613 131.4025701  21.3047245
  36.4481806 131.4097316  19.8921104  44.3332276 126.7826651  24.0072669
  44.3973602 127.6441482  23.5950066  44.2699396 126.1700652  23.2745027
  43.8084548 128.8549783  27.6545703  44.4356587 128.4726861  28.2683227
  42.9512467 128.6363985  28.0201395  54.2078657 139.2612758  29.2599438
  54.7518561 139.8742717  28.7654393  53.6265502 139.8192337  29.7766451
  44.1144338 128.7382209  19.5691606  43.3930924 129.3518177  19.4299080
  44.9037594 129.2739974  19.4908252  54.5571078 140.1842496  22.0194016
  53.6101414 140.0647848  21.9472343  54.9053851 139.2964995  22.1020278
  46.9170651 126.0736635  25.8432258  47.4405053 126.3198932  26.6058567
  46.6982985 126.9056670  25.4235396  42.3137932 128.3440310  13.7103383
  41.9850639 127.4637689  13.5278489  42.6677303 128.2887979  14.5979772
  51.5617511 139.9795213  18.2198369  51.4142474 139.0511920  18.4005939
  52.3871005 140.0015303  17.7355444  45.4279756 128.6313280  14.0778861
  45.7675828 129.1599201  13.3557469  45.8751876 128.9693686  14.8537427
  55.1651633 140.8023771  19.3063241  56.0898181 140.5966633  19.1687692
  54.9966937 140.5540173  20.2152583  48.1223196 127.0150331  23.5281929
  47.7820017 126.2158144  23.9302609  47.4162203 127.3152041  22.9558762
  48.7739668 124.0999643  21.9809252  49.5965738 123.6260121  21.8588142
  49.0177732 124.8790127  22.4807938  47.4147903 127.1287901  12.2772153
  48.1356265 127.5069154  11.7735870  46.7913207 127.8476778  12.3807131
  51.5579026 127.8333050  13.2130486  51.7742640 128.7157688  12.9119314
  51.0773093 127.4419264  12.4836128  46.2978247 130.7918764  19.7901230
  46.1522828 131.1059067  20.6825512  45.8203451 131.4103664  19.2372129
  48.1574630 127.7821312  19.8382120  48.1436199 126.8862405  19.5014418
  48.8747058 127.7891975  20.4720406  50.0100761 128.2158652  21.8835247
  49.7518538 129.1375722  21.8819578  49.4785801 127.8189086  22.5735711
  40.7723909 133.3324108  22.7288892  40.2277377 134.1083916  22.8609166
  41.6503259 133.6794912  22.5708013  47.5611526 126.6635692  15.1069690
  47.6827437 125.7352338  15.3060578  47.2713568 126.6774378  14.1948005
  50.4302716 124.3490602  18.2436410  50.4524413 124.4129935  17.2888389
  50.8470775 123.5095111  18.4376916  60.8086341 134.0845862  16.2815632
  61.2517487 133.3353187  15.8834756  59.9312851 134.0755998  15.8989364
  41.5589931 132.4594004  25.6219048  40.8171667 132.6076640  26.2083679
  41.2382675 132.7202270  24.7585798  47.0452605 128.1767689  29.3159623
  47.0940761 129.0529812  28.9337392  47.5875120 127.6345082  28.7431266
  57.5307451 138.7208812  28.5960760  56.7402995 138.7032951  28.0565259
  57.2940806 139.2597106  29.3509796  57.6505326 135.5701279  25.9093488
  57.7003331 135.4051286  26.8509011  57.5419249 134.7028538  25.5191369
  54.9409088 131.5532207  27.2252795  55.8418951 131.4138672  26.9336793
  55.0157063 131.7186662  28.1650972  49.2751894 128.9299062  26.0705981
  48.4055203 129.2232628  25.7988570  49.5111374 129.5139507  26.7913245
  59.1523523 137.9898220  26.1535510  58.8608331 138.3528201  26.9898971
  58.5395654 137.2765229  25.9748842  60.3519205 135.5551100  18.6738080
  61.1866097 135.9940904  18.8375640  60.4878334 135.0789753  17.8546326
  57.4010711 133.1130835  24.6215568  57.8764833 133.3058481  23.8134419
  56.4776277 133.1690021  24.3758951  51.9790928 125.1478679  23.5871402
  52.4972872 125.8839705  23.2617890  51.6246060 125.4542672  24.4218161
  52.2303522 121.5678961  19.1072298  52.5105276 120.9002150  19.7332725
  53.0154129 121.7608057  18.5946962  56.1012380 129.9896595  22.8543873
  57.0529803 130.0894693  22.8756097  55.9315831 129.1974864  23.3641958
  54.1226760 127.0752178  23.0403274  53.5276692 127.3557191  22.3449763
  53.8376456 127.5646079  23.8120015  58.5800458 133.2102715  21.9686173
  58.5476778 132.2718715  22.1545857  59.1901082 133.2886751  21.2351998
  58.7294946 130.0013758  22.0144456  58.2133995 129.2172215  21.8274385
  59.6134895 129.6732475  22.1790976  56.3905673 123.7454774  17.9740269
  56.1930494 123.4369862  18.8583601  57.0005379 124.4716413  18.1038199
  64.3977008 134.2718722  21.1092210  65.1280396 134.0104010  21.6699913
  63.7883953 133.5347444  21.1494278  62.4792305 132.4126584  21.7066661
  61.7525468 132.2782549  21.0983153  62.0639592 132.7203413  22.5123379
  50.3022481 136.1316514  29.4714034  51.2225491 136.3095113  29.6654081
  50.2672064 135.1872559  29.3193733  39.5204646 131.3255108  18.3967309
  39.2007431 130.4720416  18.1041683  38.9738075 131.5403686  19.1525276
  43.2984554 134.0417549  22.1136815  43.5170564 134.9734656  22.1324849
  43.7110328 133.6825523  22.8991619  50.2188772 124.5485634  14.1012504
  49.4089500 124.2032719  14.4767750  50.9073189 124.2393178  14.6900115
  52.1479320 123.6263681  15.7236800  52.7010359 124.0459134  16.3826823
  52.3849406 122.6999429  15.7659756  48.1712419 129.6150754  31.5039564
  48.0709146 130.5645111  31.4351655  47.9533961 129.2868993  30.6315634
  47.3725491 126.8635679   8.0880242  48.2344655 127.1890578   8.3476059
  47.5575835 126.0767175   7.5753307  39.3892906 134.9458019  20.3660430
  38.6956378 134.5311972  19.8530385  40.1365897 134.9878556  19.7693849
  55.5258127 125.7364206  15.2315465  54.9456796 126.3949010  14.8493517
  55.2594060 124.9141550  14.8202882  53.9761693 125.1369263  17.4336785
  54.4761472 125.2485798  16.6251104  54.6197301 124.8330316  18.0737593
  48.0343689 133.0447893  30.3204626  47.5510771 133.8448253  30.5268515
  48.1204628 133.0555838  29.3672070  41.3029649 134.8776273  18.2426445
  41.2800337 134.9763960  17.2908328  41.6130285 135.7241424  18.5643611
  43.9617027 136.9352428  22.3573060  44.9160280 136.9036370  22.2902991
  43.7629550 136.4743052  23.1723286  44.5516409 135.5053544  24.9243857
  45.3709298 135.9997623  24.9478695  44.8253217 134.5885512  24.8961425
  54.3083005 127.8964296  14.2871813  53.4208860 128.1813947  14.0692008
  54.7236994 127.7358060  13.4399090  57.6597541 127.9210817  18.0026152
  58.4357931 128.4107270  18.2750769  56.9345675 128.3468871  18.4598022
  60.0970100 128.6338436  19.0600093  60.6914591 128.3934172  18.3493401
  60.1696684 127.9145567  19.6873629  54.2824029 133.4118832  14.5022103
  54.2259230 133.8687384  13.6629735  54.8352371 132.6509517  14.3244946
  58.0928835 129.2008564  15.3272222  57.8365769 128.8005200  16.1580430
  57.4681703 129.9152358  15.2022362  62.4041173 131.9404637  17.8343514
  61.8440731 132.0097827  18.6075076  61.7984676 131.7645622  17.1143010
  39.8051323 129.8391678  25.6236054  40.4510187 129.3290632  26.1123279
  39.5968474 130.5760359  26.1979480  52.3304715 136.9072525  31.1228195
  53.1995875 137.0813177  30.7614830  51.8511467 137.7266942  31.0003924
  48.3254934 124.1031722  11.3759951  48.3133603 125.0473562  11.5328221
  49.2178355 123.9201868  11.0819412  52.1407053 120.6974499  15.6305887
  51.3739449 120.1432986  15.7762570  52.5517758 120.7696368  16.4920039
  44.1448814 126.9859295  29.7211069  45.0080276 126.6296100  29.9314393
  43.5714225 126.6473190  30.4086473  66.4672307 139.9909412  22.9654265
  66.1355632 140.8604823  22.7415480  65.8717920 139.6745696  23.6448295
  63.6674063 143.6785713  25.1787371  63.4234995 144.4327774  24.6421647
  63.9433994 144.0571061  26.0134618  56.7030315 140.3940011  30.7141040
  56.3097260 139.8406210  31.3888684  57.5196455 140.7050590  31.1047558
  59.6198276 141.8097891  28.3061297  60.3607989 142.4105044  28.2265759
  59.8516199 141.0675528  27.7479339  63.5655439 137.8378993  22.5825578
  63.2219708 138.7280635  22.5064689  63.9334401 137.6480651  21.7195163
  58.8894865 140.2922378  19.5540993  59.7547862 140.0965187  19.1946883
  58.9572374 140.0632730  20.4810350  61.4449733 141.5921784  25.5308593
  60.7977648 142.2911734  25.4373070  62.2150748 142.0257928  25.8984841
  57.7564406 141.4028553  25.8432258  58.2798808 141.6490850  26.6058567
  57.5376739 142.2348588  25.4235396  58.9616951 142.3442248  23.5281929
  58.6213771 141.5450061  23.9302609  58.2555957 142.6443959  22.9558762
  59.6133423 139.4291561  21.9809252  60.4359492 138.9552039  21.8588142
  59.8571486 140.2082044  22.4807938  62.8184682 140.4770596  23.5871402
  63.3366626 141.2131623  23.2617890  62.4639815 140.7834589  24.4218161
  64.9620514 142.4044096  23.0403274  64.3670446 142.6849109  22.3449763
  64.6770211 142.8937997  23.8120015  17.9231664  65.4117883  13.1466506
  17.9120304  65.0170681  12.2747010  18.0852303  64.6783955  13.7400278
  14.6438925  68.1954995  12.0945690  14.3528791  69.1000626  11.9792357
  15.2795909  68.2371522  12.8089760  19.6028810  67.8816410   9.0895484
  19.3029533  68.7841449   8.9811291  19.2579869  67.6148593   9.9416637
  17.0766819  61.8188596  14.7127819  16.3000153  62.3782516  14.7030683
  17.7157382  62.3045379  15.2342689  15.3313192  64.6274049  14.2745786
  16.0727876  65.1659093  13.9980609  14.6250177  65.2540338  14.4317337
  20.8068531  66.7703190  12.8717947  21.2151887  66.3285600  12.1272580
  20.0845793  66.1955817  13.1252140  22.2637509  65.9118777  10.5809943
  22.4754405  66.5550537   9.9044324  22.2167258  65.0781094  10.1131873
  23.3783337  68.7890733   8.7532301  24.2000781  68.3870920   8.4714982
  23.3745740  68.6858967   9.7048416  17.1439941  68.3374776  10.9093011
  17.2084373  68.7995183  11.7451183  16.4350865  67.7072141  11.0375321
  18.4856435  70.6266450  14.9072334  18.0420289  69.8402829  14.5893238
  19.1473649  70.8145601  14.2416224  13.2443556  72.1562252   9.4333012
  13.7950981  72.0279315   8.6610006  12.4055032  72.4557141   9.0827905
  20.5837673  70.9069250  12.9353735  20.5656148  71.7278131  12.4434004
  21.5057593  70.7823325  13.1603876  17.0410727  68.4213379  13.7777243
  17.5739064  67.6601668  13.5476551  16.5124808  68.1287031  14.5201398
  25.5722856  67.3534645   7.2230687  26.0059362  67.2609934   8.0713741
  26.2854436  67.3292145   6.5850703  19.3050751  70.9536739   8.7563788
  19.3587773  71.5227675   9.5241504  18.4365532  71.1238624   8.3917825
  26.4338405  67.3958345   9.7563572  26.6274295  68.3004156  10.0022847
  26.3339023  66.9365764  10.5902157  21.4953514  67.5465088  15.3304453
  21.3439020  67.3175640  14.4134537  21.4858193  68.5035690  15.3435798
  23.2045721  70.5784211  13.4080935  23.1458267  69.8943431  12.7411518
  23.6065239  71.3203201  12.9561561  23.2063128  68.5423795  11.6394915
  22.3189907  68.2049716  11.7621313  23.7761679  67.8106826  11.8763680
  16.7364281  73.2025247   8.6056158  16.6634453  74.0080218   9.1175462
  16.2941674  73.4017213   7.7804179  19.1962965  73.1012081  10.7614316
  19.9090937  73.7359546  10.6890218  18.7052993  73.1975947   9.9454318
  14.2474878  70.8506524  11.5819887  14.9484338  71.4843007  11.7349281
  13.7769993  71.1921256  10.8215527  18.0963737  64.1470943  15.8938475
  17.4204374  64.0465072  16.5640850  18.9191371  63.9910157  16.3574472
  16.8386520  75.4537870  10.1296091  17.3904828  75.6169492  10.8945176
  17.1792714  76.0442308   9.4576116  21.6897394  70.2799128  15.9844745
  22.2337298  70.8929086  15.4899700  21.1084239  70.8378706  16.5011758
  19.9754907  73.4019846   7.1159773  19.8506047  72.6009586   6.6070718
  20.6333999  73.8966039   6.6273743  22.0389816  71.2028866   8.7439323
  21.0920151  71.0834217   8.6717650  22.3872589  70.3151364   8.8265584
  22.6470371  71.8210141   6.0308548  23.5716918  71.6153002   5.8932999
  22.4785674  71.5726542   6.9397889  16.9852331  73.0196352  12.1444745
  17.2939458  72.7745499  13.0167445  17.7827813  73.2242990  11.6563615
  25.0126189  69.7395182  15.3206066  24.2221733  69.7219321  14.7810566
  24.7759543  70.2783476  16.0755103  25.1324064  66.5887648  12.6338795
  25.1822069  66.4237656  13.5754318  25.0237987  65.7214907  12.2436676
  22.4227826  62.5718576  13.9498102  23.3237689  62.4325041  13.6582099
  22.4975801  62.7373031  14.8896279  26.6342261  69.0084590  12.8780816
  26.3427069  69.3714570  13.7144277  26.0214392  68.2951598  12.6994149
  24.8829449  64.1317205  11.3460874  25.3583571  64.3244851  10.5379726
  23.9595014  64.1876390  11.1004258  26.0619196  64.2289084   8.6931480
  26.0295516  63.2905085   8.8791163  26.6719819  64.3073121   7.9597305
  31.8795746  65.2905091   7.8337516  32.6099134  65.0290379   8.3945220
  31.2702691  64.5533813   7.8739584  29.9611043  63.4312954   8.4311968
  29.2344206  63.2968919   7.8228459  29.5458330  63.7389782   9.2368686
  17.7841219  67.1502883  16.1959341  18.7044229  67.3281482  16.3899387
  17.7490802  66.2058929  16.0439040  15.6531157  60.6337124  18.2284871
  15.5527884  61.5831481  18.1596962  15.4352699  60.3055363  17.3560941
  15.5162427  64.0634263  17.0449932  15.0329509  64.8634623  17.2513821
  15.6023366  64.0742208  16.0917376  19.8123453  67.9258895  17.8473502
  20.6814613  68.0999547  17.4860136  19.3330205  68.7453312  17.7249231
  13.9809633  75.0455996   9.5262935  14.8836880  75.0779606   9.8429430
  13.7547003  74.1156447   9.5409271  31.4715929  79.6347521   7.2518776
  32.1094339  79.5154268   6.5482116  31.3536772  80.5828365   7.3106728
  28.2805635  79.5874949   7.1880301  27.9424147  79.4716014   6.3000836
  29.1495403  79.1866114   7.1681307  24.1392451  81.4410425   3.1777192
  23.5757316  81.3500362   2.4093480  24.0244846  80.6210330   3.6579684
  28.7625418  80.7409801  13.1466506  28.7514059  80.3462599  12.2747010
  28.9246058  80.0075873  13.7400278  21.6856883  82.9361617   6.0161412
  22.4778175  82.5952441   5.6007712  21.9253533  83.0456592   6.9363566
  25.4832679  83.5246912  12.0945690  25.1922545  84.4292543  11.9792357
  26.1189664  83.5663440  12.8089760  26.4088886  80.9023761   8.6847050
  27.0052458  80.6779783   7.9704013  26.4663858  80.1608506   9.2872498
  31.0257197  77.3598975   4.3271984  31.8120287  76.9418398   3.9762401
  31.2895902  78.2645067   4.4953633  31.1967275  82.7971825  -0.9739359
  30.5613108  82.8706451  -0.2618454  30.8664681  83.3865424  -1.6520280
  36.4265624  77.2974208   5.2304963  37.1590796  76.7273425   5.4642792
  35.6704980  76.9095808   5.6711468  28.0441744  79.7201449   2.4268305
  27.6799951  79.1932070   3.1381227  28.9008860  79.3299918   2.2534791
  33.9491045  71.0095782   9.6899571  33.6174370  71.8791193   9.4660786
  33.3536658  70.6932066  10.3693602  30.4422564  83.2108328   9.0895484
  30.1423287  84.1133367   8.9811291  30.0973624  82.9440511   9.9416637
  23.8935046  79.6622125   5.1232188  22.9685542  79.5298339   5.3309880
  24.1419459  80.4416344   5.6202131  33.8419708  75.7290868   6.7692921
  32.9336585  75.6606276   6.4751682  33.7907304  76.2062813   7.5974747
  21.2543857  79.3055398   5.9575978  21.3836238  79.5589877   6.8715389
  20.5741308  79.8983106   5.6380633  27.9160574  77.1480514  14.7127819
  27.1393908  77.7074434  14.7030683  28.5551137  77.6337297  15.2342689
  35.7081355  73.9307306   8.5470795  35.0655735  74.2239840   7.9010590
  35.2036283  73.8160227   9.3523992  33.3621518  77.6770480  -0.7643345
  34.2739374  77.9097866  -0.9395648  32.8531165  78.2607524  -1.3268267
  26.1706946  79.9565967  14.2745786  26.9121631  80.4951011  13.9980609
  25.4643932  80.5832256  14.4317337  31.6462286  82.0995107  12.8717947
  32.0545642  81.6577518  12.1272580  30.9239547  81.5247735  13.1252140
  27.9993356  77.0367714  10.2451504  28.8454551  77.4607128  10.3886153
  27.9391994  76.3801339  10.9390067  31.9691100  82.6596298   6.6270236
  31.3399963  82.8242012   5.9246304  31.5816763  83.0737908   7.3981200
  35.8480332  83.5950736   3.9814600  35.1631371  83.9749637   3.4311633
  35.9324182  84.2046063   4.7146548  31.1492801  74.6972083  11.9032678
  30.9053733  75.4514143  11.3666953  31.4252732  75.0757430  12.7379925
  33.1031264  81.2410695  10.5809943  33.3148159  81.8842455   9.9044324
  33.0561012  80.4073012  10.1131873  30.7057493  73.8528516   7.4846515
  29.8441972  74.1509769   7.7763253  30.7319928  74.0698915   6.5527548
  27.5219062  82.3970706   3.8920321  27.9857408  82.6758409   3.1024944
  27.2575860  81.4954151   3.7093412  24.4143143  81.9442188   6.8300084
  24.9844500  82.3729456   6.1917569  25.0051255  81.6624772   7.5284270
  26.4587948  78.5193859   0.7009886  27.1611992  78.9714902   1.1683813
  26.1268577  77.8777677   1.3289779  24.9068310  77.1105615  15.0761096
  24.2766971  77.7921896  15.3096492  24.8004398  76.9988697  14.1314234
  20.2013282  76.7777411   6.0027020  19.4112336  77.0334940   5.5267130
  20.6924530  77.5925749   6.1079060  34.2177092  84.1182650   8.7532301
  35.0394536  83.7162838   8.4714982  34.2139495  84.0150885   9.7048416
  22.1528028  77.1421990   2.9610497  21.3559191  77.2540685   3.4793992
  21.9253620  77.4808643   2.0951387  27.9833695  83.6666694  10.9093011
  28.0478128  84.1287101  11.7451183  27.2744619  83.0364059  11.0375321
  18.4850985  77.0307902   8.4342011  18.7359024  77.9154912   8.6999587
  19.0210534  76.8512503   7.6617102  42.3083085  80.4621399   5.1017272
  41.5546793  79.8928797   4.9461277  42.4430626  80.4284063   6.0487907
  27.6981713  85.3334801   0.7771991  27.5627388  86.1786337   1.2056839
  28.2391526  85.5354079   0.0137925  24.1849053  71.4126381  17.4386347
  23.7915998  70.8592580  18.1133991  25.0015193  71.7236959  17.8292864
  27.1017014  72.8284260  15.0306603  27.8426727  73.4291413  14.9511066
  27.3334936  72.0861898  14.4724646  22.2458352  78.0140627  13.3084833
  22.1311867  77.1125885  13.6091932  21.3902869  78.2604324  12.9569649
  29.3250189  85.9558368  14.9072334  28.8814044  85.1694746  14.5893238
  29.9867403  86.1437518  14.2416224  24.0837311  87.4854169   9.4333012
  24.6344736  87.3571233   8.6610006  23.2448786  87.7849058   9.0827905
  31.4231427  86.2361168  12.9353735  31.4049903  87.0570049  12.4434004
  32.3451348  86.1115243  13.1603876  27.8804482  83.7505297  13.7777243
  28.4132818  82.9893585  13.5476551  27.3518563  83.4578949  14.5201398
  31.0474177  68.8565363   9.3070885  30.7038446  69.7467005   9.2309996
  31.4153139  68.6667021   8.4440470  31.0124459  78.8473974  -2.1856680
  30.4971083  79.6178579  -1.9468293  30.7401768  78.1739110  -1.5623618
  28.5971570  73.6923675   2.8728558  27.7413167  73.3030525   2.6934197
  29.0098522  73.7715636   2.0128344  30.1270717  71.2270018   7.2720118
  29.6235513  71.1900153   6.4587923  30.4201324  72.1362761   7.3316775
  26.3713603  71.3108748   6.2786300  27.2366600  71.1151557   5.9192189
  26.4391112  71.0819100   7.2055657  35.9858733  81.6006329  -0.2503506
  35.2088176  81.2617488  -0.6948344  36.6650214  81.6058952  -0.9248541
  30.8010762  76.7201066  -0.3596899  30.4960898  77.0347215   0.4913244
  31.7541205  76.7982486  -0.3169566  29.2457194  82.8791290   1.2896055
  28.7178556  82.1444049   0.9769293  28.7444697  83.6565966   1.0436024
  34.2250040  81.0740310   6.4063102  33.5673715  81.7639571   6.4943230
  35.0290440  81.4636742   6.7497088  33.0355499  79.4284683   4.4567043
  33.5487381  80.0614675   4.9588753  33.6856723  78.8285878   4.0910403
  29.5136330  76.9034138   6.7025384  28.5958891  77.1249085   6.5447072
  29.9296474  76.9780449   5.8437091  30.2971378  78.3025554   1.8328064
  31.0443197  78.8146951   1.5235186  30.5662967  77.9809607   2.6932458
  28.5698028  80.7984095  -1.1844982  27.6609247  80.5143128  -1.0872512
  28.5993112  81.2183173  -2.0441675  33.8017295  84.4090684   2.5846186
  33.3479622  83.5681594   2.6411376  33.1711262  85.0452083   2.9220966
  32.7450215  75.3382670   3.8146853  32.0072972  74.8260056   4.1457096
  32.9976988  74.8983052   3.0030130  32.2450235  86.2467181   3.5196004
  32.5373209  86.8072238   2.8008370  32.7548855  86.5395742   4.2749163
  32.8461842  68.1158922   4.4088623  33.1520719  67.2556286   4.1214538
  33.5714447  68.7076542   4.2087617  27.1182922  78.4112715   4.9164814
  27.1731532  77.4586552   4.8407290  26.3074124  78.5672154   5.4006112
  25.0575282  77.0289775   2.6755193  24.2443147  77.3283946   3.0820385
  25.5534276  76.6345464   3.3929675  27.2083860  87.0247532   4.6089457
  27.1660039  87.2508378   3.6797989  28.1246559  86.7910907   4.7575258
  30.6549494  77.4931600  11.5070086  31.0098881  77.7203073  12.3664552
  31.3021625  77.8249976  10.8847342  36.3847231  80.6150035   2.2119415
  36.2465129  80.8051631   1.2840605  36.0283449  81.3769418   2.6687467
  24.5489357  74.6008131   8.2916428  25.1888736  74.4596890   7.5939391
  23.7166887  74.3142644   7.9155030  36.4116610  82.6826562   7.2230687
  36.8453117  82.5901852   8.0713741  37.1248191  82.6584063   6.5850703
  25.3249661  83.9010561   4.4051420  26.1190259  83.4060881   4.2033995
  24.6141353  83.3728424   4.0419126  30.1444505  86.2828657   8.7563788
  30.1981527  86.8519593   9.5241504  29.2759286  86.4530542   8.3917825
  23.0242898  75.9846213  10.2388239  23.6965952  75.7763575   9.5900888
  22.1972685  75.7868299   9.7993471  37.2732160  82.7250263   9.7563572
  37.4668050  83.6296074  10.0022847  37.1732778  82.2657682  10.5902157
  28.9268470  72.6108154  12.2553900  28.2796385  73.3098103  12.1618376
  29.6969486  73.0444298  12.6230148  32.3347268  82.8757006  15.3304453
  32.1832775  82.6467558  14.4134537  32.3251948  83.8327607  15.3435798
  29.1032605  80.4488919  10.3150719  30.0324665  80.6000078  10.1419687
  28.6823635  80.5372939   9.4599366  27.9020937  84.4739583   8.0849257
  27.7632022  84.1058367   8.9575195  27.1135533  84.9887222   7.9133215
  29.4526152  83.8521186   5.4738095  29.1175984  83.8121956   6.3695745
  28.9530097  83.1865902   5.0008505  23.4270396  79.2588816  10.9990676
  23.2890194  78.5269055  11.6002215  24.3375319  79.1697716  10.7174864
  26.0552696  78.9708775  10.4874356  26.7652315  78.3301967  10.4460974
  26.0122005  79.2221670  11.4100536  34.0439475  85.9076128  13.4080935
  33.9852021  85.2235349  12.7411518  34.4458993  86.6495118  12.9561561
  24.7681630  75.9573993  12.3069995  24.2318987  75.5064731  12.9591591
  24.1798339  76.0919902  11.5640459  34.0456882  83.8715712  11.6394915
  33.1583661  83.5341634  11.7621313  34.6155433  83.1398744  11.8763680
  20.5020752  75.0930001   9.3922990  20.4178940  74.4855670   8.6573400
  19.6803458  75.5839019   9.3932486  27.5758036  88.5317165   8.6056158
  27.5028207  89.3372136   9.1175462  27.1335429  88.7309130   7.7804179
  27.3647815  87.7688935   2.1158979  26.5815337  88.3110615   2.2097204
  28.0640560  88.2862914   2.5153220  30.6744465  73.5783564   4.7593185
  31.1713165  72.8253526   4.4394255  29.9031447  73.6147881   4.1936394
  38.5274223  79.2823930   6.4011476  38.5164099  80.1648645   6.0305409
  37.6591602  78.9295481   6.2066013  30.0356719  88.4303999  10.7614316
  30.7484691  89.0651464  10.6890218  29.5446748  88.5267865   9.9454318
  31.7574246  82.3355251   2.3331608  30.8230525  82.4556714   2.1636312
  31.9350915  81.4327718   2.0691618  27.2579434  75.7200947   4.4864869
  26.8877222  75.1671988   5.1745775  27.7538527  75.1159081   3.9339869
  35.1446797  78.1772571   2.8681642  35.6107250  79.0100562   2.7941945
  35.5954298  77.7117552   3.5726901  25.0868633  86.1798442  11.5819887
  25.7878092  86.8134925  11.7349281  24.6163748  86.5213174  10.8215527
  33.2123029  84.5216392  -0.1332206  33.4882872  84.4072987   0.7761668
  32.3427527  84.1233877  -0.1720033  33.1163460  70.5453158   6.9072544
  32.2026540  70.7757384   7.0754750  33.5456562  70.6291602   7.7586576
  32.8869919  78.7343050   9.4072438  32.2341369  78.9818957   8.7524890
  33.2650299  77.9207188   9.0734915  29.8477093  88.7702743   3.5100608
  30.0299487  87.9524399   3.9728360  30.6710079  88.9870435   3.0725498
  30.1819258  87.6970928   0.7715656  30.7107025  87.1863382   0.1585818
  30.4447478  87.3813458   1.6361189  28.9357492  79.4762861  15.8938475
  28.2598129  79.3756990  16.5640850  29.7585126  79.3202074  16.3574472
  20.6836351  85.7134797   8.5150990  21.2689788  84.9678485   8.6478894
  20.4861189  86.0238754   9.3987654  15.2754006  78.2840397   7.2355433
  15.3138105  77.7503988   8.0292551  14.7694298  77.7575603   6.6166410
  27.6780275  90.7829788  10.1296091  28.2298583  90.9461410  10.8945176
  28.0186468  91.3734226   9.4576116  22.6544768  73.1304938  10.7317975
  22.7186094  73.9919769  10.3195373  22.5911888  72.5178940   9.9990334
  22.1297040  75.2028070  14.3791010  22.7569079  74.8205148  14.9928534
  21.2724959  74.9842272  14.7446702  32.5291149  85.6091046  15.9844745
  33.0731053  86.2221004  15.4899700  31.9477994  86.1670624  16.5011758
  30.8148662  88.7311764   7.1159773  30.6899801  87.9301503   6.6070718
  31.4727753  89.2257957   6.6273743  22.4356830  75.0860496   6.2936913
  21.7143416  75.6996464   6.1544386  23.2250086  75.6218261   6.2153559
  32.8783570  86.5320784   8.7439323  31.9313906  86.4126135   8.6717650
  33.2266343  85.6443282   8.8265584  25.2383144  72.4214923  12.5677565
  25.7617545  72.6677219  13.3303874  25.0195477  73.2534957  12.1480702
  29.8830004  86.3273500   4.9443675  29.7354966  85.3990207   5.1251245
  30.7083497  86.3493591   4.4600750  33.4864125  87.1502059   6.0308548
  34.4110673  86.9444920   5.8932999  33.3179429  86.9018460   6.9397889
  26.4435689  73.3628618  10.2527235  26.1032509  72.5636431  10.6547915
  25.7374695  73.6630329   9.6804069  27.0952161  70.4477930   8.7054558
  27.9178230  69.9738408   8.5833449  27.3390224  71.2268414   9.2053245
  24.6190739  77.1397051   6.5146537  24.4735320  77.4537354   7.4070818
  24.1415943  77.7581951   5.9617436  26.4787122  74.1299599   6.5627427
  26.4648691  73.2340692   6.2259724  27.1959550  74.1370263   7.1965713
  28.3313253  74.5636939   8.6080554  28.0731031  75.4854010   8.6064884
  27.7998293  74.1667374   9.2981018  33.2759442  87.6687726   1.3870639
  33.4496319  87.1034149   0.6344492  33.7688333  88.4688621   1.2050129
  19.0936401  79.6802395   9.4534198  18.5489870  80.4562203   9.5854472
  19.9715751  80.0273200   9.2953320  28.7515208  70.6968890   4.9681717
  28.7736905  70.7608223   4.0133696  29.1683267  69.8573398   5.1622223
  39.1298833  80.4324149   3.0060939  39.5729979  79.6831474   2.6080062
  38.2525343  80.4234285   2.6234671  34.2634614  86.9854491  -1.5132462
  34.9585519  87.6061183  -1.2945148  34.6057764  86.1349842  -1.2380084
  19.8802423  78.8072291  12.3464355  19.1384159  78.9554927  12.9328985
  19.5595168  79.0680557  11.4831104  36.1626037  84.4354196   0.0154868
  36.6877361  84.7741469  -0.7095812  36.0748390  83.5001211  -0.1681997
  27.8246086  88.3488270  12.1444745  28.1333212  88.1037416  13.0167445
  28.6221568  88.5534908  11.6563615  27.8466698  90.5026179   4.3750122
  27.4071688  90.0102558   5.0682978  28.5974815  89.9599147   4.1342197
  25.2940570  86.0464188   6.4472423  24.6720579  85.3834893   6.1474651
  25.9645437  86.0725320   5.7646071  25.3665098  74.5245976  16.0404929
  25.4153253  75.4008099  15.6582699  25.9087612  73.9823369  15.4676572
  35.8519943  85.0687100  15.3206066  35.0615487  85.0511239  14.7810566
  35.6153298  85.6075393  16.0755103  35.9717818  81.9179566  12.6338795
  36.0215823  81.7529574  13.5754318  35.8631742  81.0506825  12.2436676
  33.2621581  77.9010494  13.9498102  34.1631444  77.7616959  13.6582099
  33.3369555  78.0664949  14.8896279  27.5964386  75.2777349  12.7951288
  26.7267695  75.5710915  12.5233876  27.8323866  75.8617794  13.5158552
  37.4736015  84.3376508  12.8780816  37.1820823  84.7006488  13.7144277
  36.8608146  83.6243516  12.6994149  38.6731697  81.9029387   5.3983387
  39.5078589  82.3419191   5.5620947  38.8090826  81.4268041   4.5791632
  35.7223203  79.4609122  11.3460874  36.1977325  79.6536769  10.5379726
  34.7988769  79.5168308  11.1004258  30.3003420  71.4956966  10.3116708
  30.8185364  72.2317993   9.9863197  29.9458553  71.8020959  11.1463467
  30.5516014  67.9157248   5.8317605  30.8317768  67.2480437   6.4578031
  31.3366621  68.1086344   5.3192269  34.4224872  76.3374882   9.5789180
  35.3742295  76.4372980   9.6001404  34.2528323  75.5453151  10.0887264
  32.4439252  73.4230466   9.7648581  31.8489184  73.7035478   9.0695070
  32.1588949  73.9124366  10.5365322  31.5746742  87.3753392  -1.4748787
  32.5077416  87.3098954  -1.2715911  31.4869955  88.2109659  -1.9334254
  34.2034759  86.6919263  -4.5144839  34.1248391  86.3579126  -3.6209081
  35.0244426  87.1841031  -4.5153367  36.9012950  79.5581002   8.6931480
  36.8689270  78.6197003   8.8791163  37.5113574  79.6365039   7.9597305
  37.0507439  76.3492045   8.7389763  36.5346487  75.5650502   8.5519692
  37.9347387  76.0210762   8.9036282  34.7118166  70.0933061   4.6985576
  34.5142987  69.7848149   5.5828907  35.3217871  70.8194700   4.8283505
  42.7189500  80.6197009   7.8337516  43.4492889  80.3582297   8.3945220
  42.1096446  79.8825731   7.8739584  40.8004797  78.7604871   8.4311968
  40.0737961  78.6260836   7.8228459  40.3852084  79.0681700   9.2368686
  28.6234974  82.4794801  16.1959341  29.5437983  82.6573400  16.3899387
  28.5884557  81.5350846  16.0439040  17.8417139  77.6733395   5.1212615
  17.5219923  76.8198703   4.8286989  17.2950567  77.8881973   5.8770583
  21.6197046  80.3895836   8.8382122  21.8383056  81.3212944   8.8570156
  22.0322820  80.0303810   9.6236926  26.4924911  75.9629042  18.2284871
  26.3921638  76.9123398  18.1596962  26.2746454  75.6347280  17.3560941
  17.7105399  81.2936306   7.0905737  17.0168870  80.8790259   6.5775691
  18.4578390  81.3356843   6.4939156  33.8470619  72.0842493   1.9560771
  33.2669288  72.7427297   1.5738824  33.5806552  71.2619838   1.5448189
  32.2974186  71.4847551   4.1582091  32.7973964  71.5964085   3.3496410
  32.9409794  71.1808604   4.7982900  26.3556182  79.3926180  17.0449932
  25.8723263  80.1926540  17.2513821  26.4417121  79.4034125  16.0917376
  19.6242141  81.2254560   4.9671752  19.6012829  81.3242247   4.0153635
  19.9342778  82.0719711   5.2888918  22.2829519  83.2830715   9.0818366
  23.2372773  83.2514657   9.0148298  22.0842043  82.8221339   9.8968592
  22.8728901  81.8531831  11.6489164  23.6921790  82.3475910  11.6724001
  23.1465709  80.9363799  11.6206731  32.6295497  74.2442583   1.0117119
  31.7421352  74.5292234   0.7937314  33.0449486  74.0836347   0.1644396
  35.9810033  74.2689104   4.7271459  36.7570424  74.7585557   4.9996075
  35.2558168  74.6947159   5.1843328  38.4182592  74.9816724   5.7845399
  39.0127083  74.7412460   5.0738708  38.4909176  74.2623854   6.4118936
  32.6036521  79.7597119   1.2267410  32.5471722  80.2165671   0.3875042
  33.1564864  78.9987804   1.0490252  36.4141327  75.5486851   2.0517529
  36.1578261  75.1483487   2.8825737  35.7894195  76.2630645   1.9267668
  40.7253665  78.2882924   4.5588820  40.1653223  78.3576114   5.3320383
  40.1197168  78.1123909   3.8388317  23.7948874  89.7219652   6.3107007
  23.6781258  90.6665084   6.2085697  22.9741320  89.4193213   6.6992806
  33.6825408  84.4469787  -2.8436401  34.5171012  84.0150986  -3.0258926
  33.5209751  84.2751801  -1.9159506  33.3371300  80.9501901  -1.4780061
  33.2820104  80.7846172  -2.4191617  32.7117356  81.6577933  -1.3217872
  18.1263815  76.1869965  12.3481361  18.7722679  75.6768919  12.8368586
  17.9180967  76.9238647  12.9224786  30.6517208  83.2550812  17.8473502
  31.5208367  83.4291465  17.4860136  30.1723959  84.0745229  17.7249231
  24.8203388  90.3747913   9.5262935  25.7230635  90.4071524   9.8429430
  24.5940758  89.4448364   9.5409271  26.5756990  89.1278900   6.1873014
  25.6252621  89.1280762   6.0737386  26.8789476  88.3811635   5.6709048
  22.4661306  73.3337582  16.4456375  23.3292768  72.9774387  16.6559700
  21.8926717  72.9951477  17.1331779  42.3109683  94.9639438   7.2518776
  42.9488093  94.8446186   6.5482116  42.1930526  95.9120282   7.3106728
  39.1199390  94.9166867   7.1880301  38.7817901  94.8007931   6.3000836
  39.9889158  94.5158032   7.1681307  34.9786205  96.7702343   3.1777192
  34.4151070  96.6792280   2.4093480  34.8638600  95.9502247   3.6579684
  39.6019173  96.0701718  13.1466506  39.5907813  95.6754516  12.2747010
  39.7639812  95.3367791  13.7400278  32.5250637  98.2653535   6.0161412
  33.3171929  97.9244359   5.6007712  32.7647287  98.3748510   6.9363566
  36.3226434  98.8538830  12.0945690  36.0316300  99.7584461  11.9792357
  36.9583418  98.8955358  12.8089760  37.2482641  96.2315679   8.6847050
  37.8446213  96.0071701   7.9704013  37.3057612  95.4900424   9.2872498
  41.8650952  92.6890892   4.3271984  42.6514041  92.2710315   3.9762401
  42.1289656  93.5936984   4.4953633  42.0361029  98.1263743  -0.9739359
  41.4006862  98.1998369  -0.2618454  41.7058436  98.7157341  -1.6520280
  47.2659379  92.6266125   5.2304963  47.9984551  92.0565342   5.4642792
  46.5098735  92.2387726   5.6711468  36.5403958  95.5883220  -1.2778384
  36.4240216  94.9128123  -0.6097300  36.6506218  95.1015594  -2.0946231
  38.8835499  95.0493367   2.4268305  38.5193706  94.5223988   3.1381227
  39.7402615  94.6591836   2.2534791  44.7884799  86.3387700   9.6899571
  44.4568124  87.2083111   9.4660786  44.1930413  86.0223984  10.3693602
  38.5240986  90.0783267  -2.5770346  38.6915388  90.9463503  -2.2099875
  38.3338155  90.2410548  -3.5009057  41.2816319  98.5400246   9.0895484
  40.9817042  99.4425284   8.9811291  40.9367378  98.2732429   9.9416637
  34.7328800  94.9914042   5.1232188  33.8079297  94.8590256   5.3309880
  34.9813213  95.7708262   5.6202131  44.6813463  91.0582786   6.7692921
  43.7730340  90.9898194   6.4751682  44.6301058  91.5354731   7.5974747
  38.5030207  92.5340924  -1.5923679  38.3829832  92.9797975  -0.7538199
  37.8082795  92.8826242  -2.1510141  32.0937611  94.6347316   5.9575978
  32.2229992  94.8881795   6.8715389  31.4135063  95.2275024   5.6380633
  38.7554328  92.4772431  14.7127819  37.9787662  93.0366351  14.7030683
  39.3944891  92.9629214  15.2342689  46.5475109  89.2599224   8.5470795
  45.9049489  89.5531757   7.9010590  46.0430038  89.1452144   9.3523992
  44.2015273  93.0062397  -0.7643345  45.1133129  93.2389784  -0.9395648
  43.6924920  93.5899442  -1.3268267  37.0100701  95.2857885  14.2745786
  37.7515385  95.8242929  13.9980609  36.3037686  95.9124173  14.4317337
  42.4856040  97.4287025  12.8717947  42.8939396  96.9869436  12.1272580
  41.7633302  96.8539653  13.1252140  38.8387110  92.3659632  10.2451504
  39.6848306  92.7899045  10.3886153  38.7785748  91.7093256  10.9390067
  42.8084855  97.9888216   6.6270236  42.1793717  98.1533930   5.9246304
  42.4210517  98.4029825   7.3981200  46.6874087  98.9242654   3.9814600
  46.0025125  99.3041555   3.4311633  46.7717936  99.5337980   4.7146548
  41.9886556  90.0264000  11.9032678  41.7447488  90.7806061  11.3666953
  42.2646486  90.4049348  12.7379925  43.9425018  96.5702613  10.5809943
  44.1541914  97.2134373   9.9044324  43.8954767  95.7364929  10.1131873
  41.5451247  89.1820433   7.4846515  40.6835726  89.4801687   7.7763253
  41.5713682  89.3990832   6.5527548  38.3612817  97.7262624   3.8920321
  38.8251162  98.0050327   3.1024944  38.0969615  96.8246068   3.7093412
  35.2536898  97.2734105   6.8300084  35.8238255  97.7021374   6.1917569
  35.8445010  96.9916690   7.5284270  37.2981703  93.8485776   0.7009886
  38.0005746  94.3006820   1.1683813  36.9662331  93.2069595   1.3289779
  35.7462064  92.4397533  15.0761096  35.1160725  93.1213814  15.3096492
  35.6398152  92.3280614  14.1314234  31.0407037  92.1069329   6.0027020
  30.2506091  92.3626857   5.5267130  31.5318284  92.9217667   6.1079060
  45.0570846  99.4474568   8.7532301  45.8788290  99.0454755   8.4714982
  45.0533249  99.3442802   9.7048416  32.9921782  92.4713908   2.9610497
  32.1952946  92.5832602   3.4793992  32.7647374  92.8100560   2.0951387
  38.8227450  98.9958611  10.9093011  38.8871882  99.4579019  11.7451183
  38.1138374  98.3655976  11.0375321  29.3244740  92.3599819   8.4342011
  29.5752778  93.2446829   8.6999587  29.8604288  92.1804421   7.6617102
  53.1476839  95.7913317   5.1017272  52.3940548  95.2220715   4.9461277
  53.2824381  95.7575981   6.0487907  38.5375468 100.6626719   0.7771991
  38.4021142 101.5078255   1.2056839  39.0785280 100.8645996   0.0137925
  35.0242807  86.7418299  17.4386347  34.6309753  86.1884497  18.1133991
  35.8408947  87.0528877  17.8292864  37.9410768  88.1576178  15.0306603
  38.6820482  88.7583331  14.9511066  38.1728691  87.4153816  14.4724646
  33.0852106  93.3432545  13.3084833  32.9705621  92.4417802  13.6091932
  32.2296624  93.5896242  12.9569649  40.1643944 101.2850285  14.9072334
  39.7207798 100.4986664  14.5893238  40.8261157 101.4729436  14.2416224
  34.9231065 102.8146087   9.4333012  35.4738490 102.6863150   8.6610006
  34.0842541 103.1140976   9.0827905  42.2625182 101.5653085  12.9353735
  42.2443657 102.3861966  12.4434004  43.1845102 101.4407161  13.1603876
  38.7198236  99.0797215  13.7777243  39.2526573  98.3185503  13.5476551
  38.1912317  98.7870867  14.5201398  41.8867931  84.1857281   9.3070885
  41.5432200  85.0758922   9.2309996  42.2546894  83.9958938   8.4440470
  41.8518214  94.1765892  -2.1856680  41.3364837  94.9470496  -1.9468293
  41.5795522  93.5031028  -1.5623618  39.4365325  89.0215593   2.8728558
  38.5806921  88.6322443   2.6934197  39.8492277  89.1007553   2.0128344
  40.9664471  86.5561936   7.2720118  40.4629267  86.5192071   6.4587923
  41.2595078  87.4654679   7.3316775  37.2107357  86.6400666   6.2786300
  38.0760354  86.4443474   5.9192189  37.2784866  86.4111017   7.2055657
  46.8252488  96.9298246  -0.2503506  46.0481931  96.5909406  -0.6948344
  47.5043969  96.9350870  -0.9248541  41.6404517  92.0492984  -0.3596899
  41.3354653  92.3639133   0.4913244  42.5934959  92.1274404  -0.3169566
  40.0850949  98.2083207   1.2896055  39.5572310  97.4735967   0.9769293
  39.5838452  98.9857884   1.0436024  45.0643795  96.4032228   6.4063102
  44.4067469  97.0931489   6.4943230  45.8684194  96.7928660   6.7497088
  34.8169676  88.8702874   3.6502667  35.3913428  88.6478055   2.9175860
  35.4040659  88.9391568   4.4031268  43.8749254  94.7576600   4.4567043
  44.3881135  95.3906592   4.9588753  44.5250478  94.1577796   4.0910403
  35.1439264  90.9007335  -2.3301448  34.3076576  91.2382021  -2.0092173
  35.0044033  90.7656314  -3.2674311  37.1192344  85.7444122   2.3777736
  36.4656756  85.4293140   1.7534351  37.0772818  85.1219863   3.1037559
  40.3530085  92.2326056   6.7025384  39.4352646  92.4541003   6.5447072
  40.7690228  92.3072366   5.8437091  41.1365132  93.6317472   1.8328064
  41.8836951  94.1438869   1.5235186  41.4056722  93.3101524   2.6932458
  39.4091782  96.1276012  -1.1844982  38.5003002  95.8435045  -1.0872512
  39.4386866  96.5475091  -2.0441675  44.6411050  99.7382602   2.5846186
  44.1873377  98.8973512   2.6411376  44.0105017 100.3744000   2.9220966
  43.5843969  90.6674588   3.8146853  42.8466726  90.1551974   4.1457096
  43.8370743  90.2274970   3.0030130  43.0843989 101.5759099   3.5196004
  43.3766963 102.1364156   2.8008370  43.5942610 101.8687660   4.2749163
  43.6855597  83.4450840   4.4088623  43.9914474  82.5848203   4.1214538
  44.4108202  84.0368460   4.2087617  29.9779953  93.8481527   2.7970221
  29.7804353  93.2550887   2.0721287  29.4226617  93.5433737   3.5146159
  37.9576676  93.7404633   4.9164814  38.0125286  92.7878469   4.8407290
  37.1467879  93.8964072   5.4006112  35.8969036  92.3581693   2.6755193
  35.0836902  92.6575863   3.0820385  36.3928031  91.9637381   3.3929675
  38.0477614 102.3539450   4.6089457  38.0053793 102.5800296   3.6797989
  38.9640313 102.1202824   4.7575258  41.4943248  92.8223517  11.5070086
  41.8492636  93.0494990  12.3664552  42.1415379  93.1541894  10.8847342
  47.2240985  95.9441953   2.2119415  47.0858884  96.1343549   1.2840605
  46.8677204  96.7061336   2.6687467  35.3883111  89.9300048   8.2916428
  36.0282490  89.7888807   7.5939391  34.5560642  89.6434562   7.9155030
  47.2510365  98.0118480   7.2230687  47.6846871  97.9193769   8.0713741
  47.9641945  97.9875981   6.5850703  36.1643415  99.2302479   4.4051420
  36.9584014  98.7352799   4.2033995  35.4535107  98.7020342   4.0419126
  40.9838260 101.6120574   8.7563788  41.0375282 102.1811511   9.5241504
  40.1153041 101.7822459   8.3917825  32.4726179  93.3745560   0.4811173
  31.5423767  93.3130016   0.6981135  32.5683651  92.8521513  -0.3152186
  32.3911728  89.9000373   3.0689414  32.6518545  90.8145706   2.9598575
  33.2128900  89.4324816   3.2186027  33.8636653  91.3138130  10.2388239
  34.5359706  91.1055493   9.5900888  33.0366439  91.1160216   9.7993471
  48.1125914  98.0542181   9.7563572  48.3061804  98.9587991  10.0022847
  48.0126532  97.5949600  10.5902157  39.7662225  87.9400071  12.2553900
  39.1190140  88.6390021  12.1618376  40.5363240  88.3736215  12.6230148
  43.1741023  98.2048923  15.3304453  43.0226529  97.9759475  14.4134537
  43.1645702  99.1619525  15.3435798  39.9426359  95.7780836  10.3150719
  40.8718419  95.9291996  10.1419687  39.5217389  95.8664857   9.4599366
  38.7414691  99.8031501   8.0849257  38.6025777  99.4350285   8.9575195
  37.9529287 100.3179140   7.9133215  40.2919906  99.1813103   5.4738095
  39.9569739  99.1413873   6.3695745  39.7923852  98.5157819   5.0008505
  34.2664150  94.5880733  10.9990676  34.1283948  93.8560972  11.6002215
  35.1769074  94.4989633  10.7174864  43.2279098  96.5269138  -4.2524845
  42.6108268  95.8015966  -4.3491793  42.7595586  97.2878498  -4.5957771
  36.8946451  94.3000693  10.4874356  37.6046069  93.6593885  10.4460974
  36.8515759  94.5513588  11.4100536  44.8833230 101.2368046  13.4080935
  44.8245776 100.5527266  12.7411518  45.2852748 101.9787036  12.9561561
  35.6075385  91.2865911  12.3069995  35.0712742  90.8356649  12.9591591
  35.0192093  91.4211819  11.5640459  44.8850637  99.2007630  11.6394915
  43.9977416  98.8633552  11.7621313  45.4549188  98.4690661  11.8763680
  31.3414506  90.4221918   9.3922990  31.2572695  89.8147588   8.6573400
  30.5197212  90.9130937   9.3932486  38.4151790 103.8609082   8.6056158
  38.3421962 104.6664054   9.1175462  37.9729183 104.0601048   7.7804179
  38.2041570 103.0980852   2.1158979  37.4209092 103.6402533   2.2097204
  38.9034315 103.6154832   2.5153220  41.5138220  88.9075482   4.7593185
  42.0106919  88.1545444   4.4394255  40.7425201  88.9439798   4.1936394
  49.3667977  94.6115847   6.4011476  49.3557854  95.4940563   6.0305409
  48.4985357  94.2587398   6.2066013  40.8750474 103.7595916  10.7614316
  41.5878446 104.3943381  10.6890218  40.3840502 103.8559782   9.9454318
  42.5968001  97.6647169   2.3331608  41.6624279  97.7848632   2.1636312
  42.7744669  96.7619636   2.0691618  38.0973189  91.0492865   4.4864869
  37.7270976  90.4963905   5.1745775  38.5932281  90.4450998   3.9339869
  45.9840552  93.5064488   2.8681642  46.4501004  94.3392480   2.7941945
  46.4348052  93.0409470   3.5726901  35.9262387 101.5090360  11.5819887
  36.6271847 102.1426843  11.7349281  35.4557502 101.8505091  10.8215527
  44.0516783  99.8508310  -0.1332206  44.3276627  99.7364904   0.7761668
  43.1821282  99.4525794  -0.1720033  43.9557215  85.8745075   6.9072544
  43.0420295  86.1049302   7.0754750  44.3850316  85.9583519   7.7586576
  43.7263673  94.0634967   9.4072438  43.0735123  94.3110875   8.7524890
  44.1044053  93.2499105   9.0734915  40.6870847 104.0994660   3.5100608
  40.8693242 103.2816316   3.9728360  41.5103833 104.3162353   3.0725498
  41.0213013 103.0262846   0.7715656  41.5500779 102.5155300   0.1585818
  41.2841232 102.7105376   1.6361189  39.7751246  94.8054778  15.8938475
  39.0991883  94.7048908  16.5640850  40.5978880  94.6493992  16.3574472
  31.5230105 101.0426715   8.5150990  32.1083542 100.2970403   8.6478894
  31.3254944 101.3530672   9.3987654  26.1147760  93.6132315   7.2355433
  26.1531860  93.0795906   8.0292551  25.6088053  93.0867521   6.6166410
  38.5174029 106.1121706  10.1296091  39.0692337 106.2753327  10.8945176
  38.8580223 106.7026144   9.4576116  33.4938522  88.4596856  10.7317975
  33.5579849  89.3211686  10.3195373  33.4305643  87.8470857   9.9990334
  32.9690795  90.5319988  14.3791010  33.5962834  90.1497065  14.9928534
  32.1118714  90.3134190  14.7446702  43.3684903 100.9382963  15.9844745
  43.9124807 101.5512922  15.4899700  42.7871748 101.4962542  16.5011758
  41.6542416 104.0603681   7.1159773  41.5293556 103.2593421   6.6070718
  42.3121508 104.5549875   6.6273743  33.2750585  90.4152414   6.2936913
  32.5537170  91.0288382   6.1544386  34.0643840  90.9510179   6.2153559
  43.7177325 101.8612701   8.7439323  42.7707660 101.7418053   8.6717650
  44.0660098 100.9735199   8.8265584  36.0776898  87.7506840  12.5677565
  36.6011300  87.9969137  13.3303874  35.8589231  88.5826875  12.1480702
  31.4744179  90.0210515   0.4348690  31.1456885  89.1407894   0.2523796
  31.8283550  89.9658184   1.3225079  40.7223758 101.6565418   4.9443675
  40.5748721 100.7282125   5.1251245  41.5477252 101.6785508   4.4600750
  34.5886002  90.3083485   0.8024167  34.9282075  90.8369406   0.0802776
  35.0358123  90.6463891   1.5782734  44.3257880 102.4793976   6.0308548
  45.2504427 102.2736838   5.8932999  44.1573183 102.2310378   6.9397889
  37.2829443  88.6920535  10.2527235  36.9426264  87.8928348  10.6547915
  36.5768449  88.9922246   9.6804069  37.9345915  85.7769848   8.7054558
  38.7571984  85.3030326   8.5833449  38.1783979  86.5560332   9.2053245
  36.5754150  88.8058106  -0.9982540  37.2962512  89.1839359  -1.5018823
  35.9519454  89.5246983  -0.8947562  40.7185272  89.5103255  -0.0624208
  40.9348887  90.3927893  -0.3635379  40.2379340  89.1189469  -0.7918566
  35.4584494  92.4688968   6.5146537  35.3129074  92.7829272   7.4070818
  34.9809697  93.0873869   5.9617436  37.3180877  89.4591516   6.5627427
  37.3042445  88.5632610   6.2259724  38.0353305  89.4662180   7.1965713
  39.1707007  89.8928857   8.6080554  38.9124785  90.8145927   8.6064884
  38.6392048  89.4959291   9.2981018  44.1153196 102.9979644   1.3870639
  44.2890074 102.4326066   0.6344492  44.6082087 103.7980539   1.2050129
  29.9330156  95.0094313   9.4534198  29.3883624  95.7854121   9.5854472
  30.8109506  95.3565117   9.2953320  36.7217773  88.3405897   1.8314997
  36.8433684  87.4122543   2.0305884  36.4319815  88.3544583   0.9193312
  39.5908963  86.0260807   4.9681717  39.6130660  86.0900140   4.0133696
  40.0077022  85.1865316   5.1622223  49.9692587  95.7616067   3.0060939
  50.4123733  95.0123392   2.6080062  49.0919098  95.7526203   2.6234671
  45.1028369 102.3146408  -1.5132462  45.7979273 102.9353101  -1.2945148
  45.4451519 101.4641759  -1.2380084  30.7196178  94.1364209  12.3464355
  29.9777914  94.2846845  12.9328985  30.3988922  94.3972475  11.4831104
  47.0019792  99.7646114   0.0154868  47.5271116 100.1033386  -0.7095812
  46.9142144  98.8293129  -0.1681997  38.6639840 103.6780187  12.1444745
  38.9726967 103.4329334  13.0167445  39.4615322 103.8826826  11.6563615
  38.6860452 105.8318097   4.3750122  38.2465443 105.3394476   5.0682978
  39.4368569 105.2891065   4.1342197  36.1334325 101.3756106   6.4472423
  35.5114334 100.7126811   6.1474651  36.8039192 101.4017238   5.7646071
  36.2058852  89.8537894  16.0404929  36.2547008  90.7300017  15.6582699
  36.7481366  89.3115287  15.4676572  46.6913698 100.3979017  15.3206066
  45.9009242 100.3803156  14.7810566  46.4547052 100.9367311  16.0755103
  46.8111573  97.2471484  12.6338795  46.8609578  97.0821491  13.5754318
  46.7025496  96.3798743  12.2436676  44.1015335  93.2302412  13.9498102
  45.0025198  93.0908877  13.6582099  44.1763310  93.3956867  14.8896279
  38.4358141  90.6069267  12.7951288  37.5661450  90.9002833  12.5233876
  38.6717621  91.1909712  13.5158552  48.3129770  99.6668425  12.8780816
  48.0214578 100.0298406  13.7144277  47.7001901  98.9535434  12.6994149
  49.5125452  97.2321305   5.3983387  50.3472343  97.6711109   5.5620947
  49.6484581  96.7559958   4.5791632  46.5616958  94.7901040  11.3460874
  47.0371080  94.9828686  10.5379726  45.6382523  94.8460226  11.1004258
  41.1397174  86.8248883  10.3116708  41.6579118  87.5609910   9.9863197
  40.7852307  87.1312877  11.1463467  41.3909769  83.2449166   5.8317605
  41.6711522  82.5772355   6.4578031  42.1760375  83.4378262   5.3192269
  45.2618627  91.6666800   9.5789180  46.2136050  91.7664898   9.6001404
  45.0922077  90.8745069  10.0887264  43.2833006  88.7522383   9.7648581
  42.6882938  89.0327396   9.0695070  42.9982703  89.2416284  10.5365322
  42.4140497 102.7045310  -1.4748787  43.3471170 102.6390872  -1.2715911
  42.3263710 103.5401577  -1.9334254  45.0428514 102.0211180  -4.5144839
  44.9642145 101.6871044  -3.6209081  45.8638180 102.5132948  -4.5153367
  47.7406705  94.8872920   8.6931480  47.7083025  93.9488920   8.8791163
  48.3507328  94.9656956   7.9597305  39.5790036  93.7568973  -5.2641316
  40.5249140  93.6275181  -5.1952898  39.2004281  93.0183635  -4.7871888
  47.8901193  91.6783963   8.7389763  47.3740242  90.8942420   8.5519692
  48.7741142  91.3502680   8.9036282  45.5511920  85.4224979   4.6985576
  45.3536741  85.1140067   5.5828907  46.1611626  86.1486618   4.8283505
  53.5583255  95.9488927   7.8337516  54.2886643  95.6874215   8.3945220
  52.9490200  95.2117648   7.8739584  51.6398552  94.0896789   8.4311968
  50.9131715  93.9552754   7.8228459  51.2245839  94.3973618   9.2368686
  39.4628728  97.8086719  16.1959341  40.3831738  97.9865318  16.3899387
  39.4278311  96.8642764  16.0439040  28.6810893  93.0025312   5.1212615
  28.3613677  92.1490621   4.8286989  28.1344321  93.2173891   5.8770583
  32.4590801  95.7187753   8.8382122  32.6776810  96.6504861   8.8570156
  32.8716574  95.3595728   9.6236926  39.3795018  86.2255839   0.8257810
  38.5695747  85.8802924   1.2013056  40.0679435  85.9163382   1.4145422
  41.3085567  85.3033886   2.4482107  41.8616605  85.7229339   3.1072130
  41.5455653  84.3769634   2.4905063  37.3318666  91.2920959  18.2284871
  37.2315393  92.2415316  18.1596962  37.1140208  90.9639198  17.3560941
  36.5331737  88.5405884  -5.1874452  37.3950901  88.8660783  -4.9278635
  36.7182082  87.7537380  -5.7001386  28.5499153  96.6228224   7.0905737
  27.8562625  96.2082177   6.5775691  29.2972144  96.6648760   6.4939156
  44.6864374  87.4134411   1.9560771  44.1063043  88.0719215   1.5738824
  44.4200307  86.5911755   1.5448189  43.1367940  86.8139468   4.1582091
  43.6367719  86.9256003   3.3496410  43.7803548  86.5100521   4.7982900
  37.1949936  94.7218098  17.0449932  36.7117018  95.5218458  17.2513821
  37.2810875  94.7326043  16.0917376  30.4635896  96.5546478   4.9671752
  30.4406584  96.6534165   4.0153635  30.7736532  97.4011629   5.2888918
  33.1223274  98.6122633   9.0818366  34.0766527  98.5806575   9.0148298
  32.9235797  98.1513256   9.8968592  33.7122656  97.1823749  11.6489164
  34.5315545  97.6767827  11.6724001  33.9859463  96.2655717  11.6206731
  43.4689252  89.5734501   1.0117119  42.5815107  89.8584152   0.7937314
  43.8843241  89.4128264   0.1644396  46.8203788  89.5981022   4.7271459
  47.5964178  90.0877475   4.9996075  46.0951922  90.0239076   5.1843328
  49.2576347  90.3108641   5.7845399  49.8520837  90.0704377   5.0738708
  49.3302930  89.5915772   6.4118936  43.4430276  95.0889037   1.2267410
  43.3865477  95.5457588   0.3875042  43.9958618  94.3279722   1.0490252
  47.2535081  90.8778769   2.0517529  46.9972016  90.4775405   2.8825737
  46.6287950  91.5922563   1.9267668  51.5647419  93.6174842   4.5588820
  51.0046977  93.6868031   5.3320383  50.9590923  93.4415827   3.8388317
  34.6342628 105.0511569   6.3107007  34.5175012 105.9957002   6.2085697
  33.8135074 104.7485131   6.6992806  44.5219163  99.7761705  -2.8436401
  45.3564767  99.3442903  -3.0258926  44.3603506  99.6043719  -1.9159506
  44.1765055  96.2793818  -1.4780061  44.1213859  96.1138090  -2.4191617
  43.5511110  96.9869851  -1.3217872  28.9657570  91.5161883  12.3481361
  29.6116433  91.0060837  12.8368586  28.7574721  92.2530564  12.9224786
  41.4910962  98.5842730  17.8473502  42.3602122  98.7583382  17.4860136
  41.0117714  99.4037147  17.7249231  37.4861180  85.7801927  -1.8994743
  37.4739850  86.7243767  -1.7426472  38.3784602  85.5972073  -2.1935282
  35.6597142 105.7039831   9.5262935  36.5624389 105.7363441   9.8429430
  35.4334512 104.7740282   9.5409271  37.4150744 104.4570818   6.1873014
  36.4646375 104.4572679   6.0737386  37.7183230 103.7103552   5.6709048
  41.3013300  82.3744704   2.3551194  40.5345696  81.8203191   2.5007876
  41.7124005  82.4466573   3.2165346  33.3055061  88.6629500  16.4456375
  34.1686522  88.3066305  16.6559700  32.7320472  88.3243395  17.1331779
  53.1503438 110.2931356   7.2518776  53.7881848 110.1738103   6.5482116
  53.0324281 111.2412200   7.3106728  49.9593144 110.2458784   7.1880301
  49.6211656 110.1299849   6.3000836  50.8282912 109.8449949   7.1681307
  45.8179960 112.0994261   3.1777192  45.2544825 112.0084198   2.4093480
  45.7032355 111.2794165   3.6579684  50.4412927 111.3993636  13.1466506
  50.4301568 111.0046434  12.2747010  50.6033567 110.6659709  13.7400278
  43.3644392 113.5945452   6.0161412  44.1565684 113.2536277   5.6007712
  43.6041042 113.7040427   6.9363566  47.1620188 114.1830748  12.0945690
  46.8710054 115.0876379  11.9792357  47.7977173 114.2247275  12.8089760
  48.0876395 111.5607596   8.6847050  48.6839967 111.3363619   7.9704013
  48.1451367 110.8192342   9.2872498  52.7044706 108.0182810   4.3271984
  53.4907796 107.6002233   3.9762401  52.9683411 108.9228902   4.4953633
  58.1053133 107.9558043   5.2304963  58.8378305 107.3857260   5.4642792
  57.3492489 107.5679644   5.6711468  47.3797712 110.9175138  -1.2778384
  47.2633970 110.2420041  -0.6097300  47.4899972 110.4307511  -2.0946231
  49.7229253 110.3785285   2.4268305  49.3587460 109.8515906   3.1381227
  50.5796369 109.9883754   2.2534791  55.6278554 101.6679617   9.6899571
  55.2961879 102.5375028   9.4660786  55.0324167 101.3515901  10.3693602
  49.3634740 105.4075184  -2.5770346  49.5309142 106.2755421  -2.2099875
  49.1731909 105.5702466  -3.5009057  52.1210073 113.8692163   9.0895484
  51.8210796 114.7717202   8.9811291  51.7761133 113.6024346   9.9416637
  45.5722555 110.3205960   5.1232188  44.6473051 110.1882174   5.3309880
  45.8206968 111.1000179   5.6202131  55.5207217 106.3874703   6.7692921
  54.6124094 106.3190112   6.4751682  55.4694813 106.8646648   7.5974747
  49.3423961 107.8632842  -1.5923679  49.2223586 108.3089893  -0.7538199
  48.6476549 108.2118159  -2.1510141  42.9331366 109.9639234   5.9575978
  43.0623747 110.2173713   6.8715389  42.2528817 110.5566942   5.6380633
  49.5948083 107.8064349  14.7127819  48.8181417 108.3658269  14.7030683
  50.2338646 108.2921132  15.2342689  57.3868863 104.5891142   8.5470795
  56.7443244 104.8823675   7.9010590  56.8823792 104.4744062   9.3523992
  47.8494455 110.6149802  14.2745786  48.5909140 111.1534846  13.9980609
  47.1431441 111.2416091  14.4317337  53.3249795 112.7578943  12.8717947
  53.7333151 112.3161353  12.1272580  52.6027056 112.1831570  13.1252140
  49.6780865 107.6951550  10.2451504  50.5242060 108.1190963  10.3886153
  49.6179503 107.0385174  10.9390067  53.6478609 113.3180133   6.6270236
  53.0187472 113.4825848   5.9246304  53.2604272 113.7321743   7.3981200
  57.5267841 114.2534571   3.9814600  56.8418880 114.6333473   3.4311633
  57.6111691 114.8629898   4.7146548  52.8280310 105.3555918  11.9032678
  52.5841242 106.1097978  11.3666953  53.1040241 105.7341266  12.7379925
  54.7818773 111.8994530  10.5809943  54.9935668 112.5426290   9.9044324
  54.7348521 111.0656847  10.1131873  52.3845002 104.5112351   7.4846515
  51.5229481 104.8093605   7.7763253  52.4107437 104.7282750   6.5527548
  49.2006571 113.0554542   3.8920321  49.6644917 113.3342245   3.1024944
  48.9363369 112.1537986   3.7093412  46.0930652 112.6026023   6.8300084
  46.6632009 113.0313291   6.1917569  46.6838764 112.3208608   7.5284270
  48.1375457 109.1777694   0.7009886  48.8399501 109.6298738   1.1683813
  47.8056086 108.5361513   1.3289779  46.5855819 107.7689451  15.0761096
  45.9554480 108.4505731  15.3096492  46.4791907 107.6572532  14.1314234
  41.8800791 107.4361247   6.0027020  41.0899845 107.6918775   5.5267130
  42.3712039 108.2509584   6.1079060  55.8964601 114.7766486   8.7532301
  56.7182045 114.3746673   8.4714982  55.8927004 114.6734720   9.7048416
  43.8315537 107.8005826   2.9610497  43.0346700 107.9124520   3.4793992
  43.6041129 108.1392478   2.0951387  49.6621204 114.3250529  10.9093011
  49.7265637 114.7870936  11.7451183  48.9532128 113.6947894  11.0375321
  40.1638494 107.6891737   8.4342011  40.4146533 108.5738747   8.6999587
  40.6998043 107.5096339   7.6617102  63.9870594 111.1205234   5.1017272
  63.2334302 110.5512632   4.9461277  64.1218135 111.0867899   6.0487907
  45.8636562 102.0710216  17.4386347  45.4703507 101.5176415  18.1133991
  46.6802702 102.3820795  17.8292864  48.7804523 103.4868095  15.0306603
  49.5214236 104.0875249  14.9511066  49.0122445 102.7445733  14.4724646
  43.9245861 108.6724463  13.3084833  43.8099376 107.7709720  13.6091932
  43.0690378 108.9188159  12.9569649  51.0037698 116.6142203  14.9072334
  50.5601553 115.8278582  14.5893238  51.6654912 116.8021354  14.2416224
  45.7624820 118.1438005   9.4333012  46.3132245 118.0155068   8.6610006
  44.9236295 118.4432894   9.0827905  53.1018936 116.8945003  12.9353735
  53.0837412 117.7153884  12.4434004  54.0238857 116.7699078  13.1603876
  49.5591991 114.4089132  13.7777243  50.0920327 113.6477421  13.5476551
  49.0306072 114.1162784  14.5201398  52.7261686  99.5149198   9.3070885
  52.3825955 100.4050840   9.2309996  53.0940648  99.3250856   8.4440470
  50.2759079 104.3507510   2.8728558  49.4200676 103.9614361   2.6934197
  50.6886031 104.4299471   2.0128344  51.8058226 101.8853854   7.2720118
  51.3023022 101.8483989   6.4587923  52.0988833 102.7946596   7.3316775
  48.0501112 101.9692583   6.2786300  48.9154109 101.7735392   5.9192189
  48.1178621 101.7402935   7.2055657  52.4798271 107.3784902  -0.3596899
  52.1748407 107.6931051   0.4913244  53.4328714 107.4566321  -0.3169566
  50.9244703 113.5375125   1.2896055  50.3966065 112.8027885   0.9769293
  50.4232206 114.3149801   1.0436024  55.9037549 111.7324145   6.4063102
  55.2461224 112.4223407   6.4943230  56.7077949 112.1220577   6.7497088
  45.6563431 104.1994791   3.6502667  46.2307183 103.9769973   2.9175860
  46.2434413 104.2683486   4.4031268  54.7143008 110.0868518   4.4567043
  55.2274890 110.7198510   4.9588753  55.3644232 109.4869714   4.0910403
  45.9833018 106.2299252  -2.3301448  45.1470330 106.5673939  -2.0092173
  45.8437788 106.0948232  -3.2674311  47.9586099 101.0736040   2.3777736
  47.3050511 100.7585057   1.7534351  47.9166573 100.4511781   3.1037559
  51.1923839 107.5617974   6.7025384  50.2746400 107.7832921   6.5447072
  51.6083983 107.6364284   5.8437091  51.9758887 108.9609389   1.8328064
  52.7230706 109.4730787   1.5235186  52.2450476 108.6393442   2.6932458
  54.4237724 105.9966506   3.8146853  53.6860481 105.4843892   4.1457096
  54.6764497 105.5566887   3.0030130  54.5249351  98.7742758   4.4088623
  54.8308228  97.9140121   4.1214538  55.2501956  99.3660378   4.2087617
  40.8173707 109.1773444   2.7970221  40.6198107 108.5842805   2.0721287
  40.2620371 108.8725654   3.5146159  48.7970431 109.0696551   4.9164814
  48.8519041 108.1170387   4.8407290  47.9861633 109.2255990   5.4006112
  46.7362791 107.6873610   2.6755193  45.9230656 107.9867781   3.0820385
  47.2321785 107.2929299   3.3929675  48.8871369 117.6831367   4.6089457
  48.8447548 117.9092214   3.6797989  49.8034068 117.4494742   4.7575258
  52.3337003 108.1515435  11.5070086  52.6886390 108.3786908  12.3664552
  52.9809134 108.4833812  10.8847342  46.2276866 105.2591966   8.2916428
  46.8676245 105.1180725   7.5939391  45.3954396 104.9726479   7.9155030
  58.0904119 113.3410398   7.2230687  58.5240626 113.2485687   8.0713741
  58.8035700 113.3167898   6.5850703  47.0037170 114.5594396   4.4051420
  47.7977768 114.0644716   4.2033995  46.2928862 114.0312259   4.0419126
  51.8232014 116.9412492   8.7563788  51.8769036 117.5103428   9.5241504
  50.9546795 117.1114377   8.3917825  43.3119933 108.7037478   0.4811173
  42.3817521 108.6421934   0.6981135  43.4077405 108.1813431  -0.3152186
  43.2305482 105.2292291   3.0689414  43.4912299 106.1437624   2.9598575
  44.0522654 104.7616733   3.2186027  44.7030407 106.6430048  10.2388239
  45.3753461 106.4347410   9.5900888  43.8760194 106.4452134   9.7993471
  58.9519669 113.3834098   9.7563572  59.1455559 114.2879909  10.0022847
  58.8520287 112.9241518  10.5902157  50.6055979 103.2691989  12.2553900
  49.9583894 103.9681939  12.1618376  51.3756995 103.7028133  12.6230148
  54.0134777 113.5340841  15.3304453  53.8620284 113.3051393  14.4134537
  54.0039457 114.4911443  15.3435798  50.7820114 111.1072754  10.3150719
  51.7112174 111.2583914  10.1419687  50.3611144 111.1956775   9.4599366
  49.5808446 115.1323418   8.0849257  49.4419531 114.7642203   8.9575195
  48.7923042 115.6471058   7.9133215  51.1313661 114.5105021   5.4738095
  50.7963493 114.4705791   6.3695745  50.6317606 113.8449737   5.0008505
  45.1057905 109.9172651  10.9990676  44.9677703 109.1852890  11.6002215
  46.0162828 109.8281551  10.7174864  47.7340205 109.6292610  10.4874356
  48.4439824 108.9885803  10.4460974  47.6909513 109.8805505  11.4100536
  55.7226984 116.5659964  13.4080935  55.6639530 115.8819184  12.7411518
  56.1246502 117.3078954  12.9561561  46.4469139 106.6157828  12.3069995
  45.9106496 106.1648567  12.9591591  45.8585848 106.7503737  11.5640459
  55.7244391 114.5299548  11.6394915  54.8371170 114.1925469  11.7621313
  56.2942942 113.7982579  11.8763680  42.1808261 105.7513836   9.3922990
  42.0966449 105.1439506   8.6573400  41.3590967 106.2422854   9.3932486
  49.2545545 119.1901000   8.6056158  49.1815716 119.9955972   9.1175462
  48.8122938 119.3892966   7.7804179  52.3531974 104.2367399   4.7593185
  52.8500674 103.4837362   4.4394255  51.5818956 104.2731716   4.1936394
  60.2061732 109.9407765   6.4011476  60.1951608 110.8232480   6.0305409
  59.3379111 109.5879316   6.2066013  51.7144228 119.0887834  10.7614316
  52.4272200 119.7235299  10.6890218  51.2234257 119.1851700   9.9454318
  53.4361755 112.9939087   2.3331608  52.5018034 113.1140549   2.1636312
  53.6138424 112.0911553   2.0691618  48.9366943 106.3784782   4.4864869
  48.5664731 105.8255823   5.1745775  49.4326036 105.7742916   3.9339869
  56.8234306 108.8356406   2.8681642  57.2894759 109.6684398   2.7941945
  57.2741807 108.3701388   3.5726901  46.7656142 116.8382278  11.5819887
  47.4665601 117.4718760  11.7349281  46.2951257 117.1797009  10.8215527
  54.7950969 101.2036993   6.9072544  53.8814049 101.4341220   7.0754750
  55.2244071 101.2875437   7.7586576  54.5657428 109.3926885   9.4072438
  53.9128878 109.6402792   8.7524890  54.9437808 108.5791023   9.0734915
  50.6145001 110.1346696  15.8938475  49.9385638 110.0340825  16.5640850
  51.4372635 109.9785910  16.3574472  42.3623860 116.3718633   8.5150990
  42.9477297 115.6262320   8.6478894  42.1648698 116.6822589   9.3987654
  36.9541515 108.9424233   7.2355433  36.9925614 108.4087823   8.0292551
  36.4481807 108.4159438   6.6166410  49.3567784 121.4413623  10.1296091
  49.9086092 121.6045245  10.8945176  49.6973977 122.0318061   9.4576116
  44.3332277 103.7888773  10.7317975  44.3973603 104.6503604  10.3195373
  44.2699397 103.1762775   9.9990334  43.8084549 105.8611906  14.3791010
  44.4356588 105.4788983  14.9928534  42.9512468 105.6426108  14.7446702
  54.2078658 116.2674881  15.9844745  54.7518562 116.8804839  15.4899700
  53.6265503 116.8254459  16.5011758  52.4936171 119.3895599   7.1159773
  52.3687310 118.5885339   6.6070718  53.1515262 119.8841792   6.6273743
  44.1144339 105.7444331   6.2936913  43.3930925 106.3580299   6.1544386
  44.9037595 106.2802096   6.2153559  54.5571079 117.1904619   8.7439323
  53.6101415 117.0709970   8.6717650  54.9053852 116.3027117   8.8265584
  46.9170653 103.0798758  12.5677565  47.4405054 103.3261055  13.3303874
  46.6982986 103.9118793  12.1480702  42.3137934 105.3502433   0.4348690
  41.9850640 104.4699811   0.2523796  42.6677304 105.2950101   1.3225079
  51.5617513 116.9857335   4.9443675  51.4142475 116.0574043   5.1251245
  52.3871006 117.0077426   4.4600750  45.4279757 105.6375402   0.8024167
  45.7675829 106.1661324   0.0802776  45.8751877 105.9755808   1.5782734
  55.1651634 117.8085894   6.0308548  56.0898182 117.6028755   5.8932999
  54.9966938 117.5602295   6.9397889  48.1223198 104.0212453  10.2527235
  47.7820018 103.2220266  10.6547915  47.4162204 104.3214164   9.6804069
  48.7739669 101.1061766   8.7054558  49.5965739 100.6322244   8.5833449
  49.0177733 101.8852249   9.2053245  47.4147904 104.1350024  -0.9982540
  48.1356266 104.5131277  -1.5018823  46.7913208 104.8538901  -0.8947562
  51.5579027 104.8395173  -0.0624208  51.7742641 105.7219811  -0.3635379
  51.0773094 104.4481386  -0.7918566  46.2978248 107.7980886   6.5146537
  46.1522829 108.1121189   7.4070818  45.8203452 108.4165786   5.9617436
  48.1574631 104.7883434   6.5627427  48.1436200 103.8924527   6.2259724
  48.8747059 104.7954098   7.1965713  50.0100762 105.2220774   8.6080554
  49.7518540 106.1437845   8.6064884  49.4785802 104.8251209   9.2981018
  40.7723910 110.3386231   9.4534198  40.2277378 111.1146039   9.5854472
  41.6503260 110.6857035   9.2953320  47.5611527 103.6697814   1.8314997
  47.6827438 102.7414461   2.0305884  47.2713569 103.6836500   0.9193312
  50.4302717 101.3552725   4.9681717  50.4524414 101.4192058   4.0133696
  50.8470776 100.5157234   5.1622223  60.8086342 111.0907984   3.0060939
  61.2517488 110.3415310   2.6080062  59.9312852 111.0818121   2.6234671
  41.5589932 109.4656127  12.3464355  40.8171668 109.6138762  12.9328985
  41.2382677 109.7264392  11.4831104  49.5033595 119.0072105  12.1444745
  49.8120721 118.7621252  13.0167445  50.3009077 119.2118744  11.6563615
  49.5254207 121.1610015   4.3750122  49.0859197 120.6686393   5.0682978
  50.2762324 120.6182982   4.1342197  46.9728079 116.7048024   6.4472423
  46.3508088 116.0418729   6.1474651  47.6432946 116.7309156   5.7646071
  47.0452607 105.1829812  16.0404929  47.0940762 106.0591935  15.6582699
  47.5875121 104.6407205  15.4676572  57.5307452 115.7270935  15.3206066
  56.7402996 115.7095074  14.7810566  57.2940807 116.2659229  16.0755103
  57.6505327 112.5763401  12.6338795  57.7003332 112.4113409  13.5754318
  57.5419251 111.7090660  12.2436676  54.9409090 108.5594329  13.9498102
  55.8418952 108.4200794  13.6582099  55.0157064 108.7248784  14.8896279
  49.2751895 105.9361184  12.7951288  48.4055204 106.2294750  12.5233876
  49.5111375 106.5201629  13.5158552  59.1523524 114.9960343  12.8780816
  58.8608332 115.3590323  13.7144277  58.5395655 114.2827351  12.6994149
  60.3519206 112.5613223   5.3983387  61.1866098 113.0003027   5.5620947
  60.4878335 112.0851876   4.5791632  57.4010712 110.1192958  11.3460874
  57.8764834 110.3120604  10.5379726  56.4776278 110.1752143  11.1004258
  51.9790929 102.1540801  10.3116708  52.4972873 102.8901828   9.9863197
  51.6246062 102.4604794  11.1463467  52.2303523  98.5741084   5.8317605
  52.5105277  97.9064273   6.4578031  53.0154130  98.7670179   5.3192269
  56.1012381 106.9958718   9.5789180  57.0529804 107.0956815   9.6001404
  55.9315832 106.2036986  10.0887264  54.1226761 104.0814301   9.7648581
  53.5276693 104.3619314   9.0695070  53.8376458 104.5708202  10.5365322
  58.5800459 110.2164837   8.6931480  58.5476779 109.2780838   8.8791163
  59.1901083 110.2948874   7.9597305  58.7294948 107.0075881   8.7389763
  58.2133996 106.2234337   8.5519692  59.6134896 106.6794597   8.9036282
  56.3905675 100.7516896   4.6985576  56.1930496 100.4431985   5.5828907
  57.0005380 101.4778535   4.8283505  64.3977009 111.2780844   7.8337516
  65.1280398 111.0166132   8.3945220  63.7883955 110.5409566   7.8739584
  62.4792306 109.4188707   8.4311968  61.7525470 109.2844672   7.8228459
  62.0639593 109.7265535   9.2368686  50.3022483 113.1378636  16.1959341
  51.2225492 113.3157235  16.3899387  50.2672066 112.1934682  16.0439040
  39.5204648 108.3317230   5.1212615  39.2007432 107.4782538   4.8286989
  38.9738076 108.5465808   5.8770583  43.2984555 111.0479671   8.8382122
  43.5170565 111.9796779   8.8570156  43.7110329 110.6887646   9.6236926
  50.2188773 101.5547756   0.8257810  49.4089501 101.2094841   1.2013056
  50.9073190 101.2455300   1.4145422  52.1479321 100.6325803   2.4482107
  52.7010360 101.0521257   3.1072130  52.3849408  99.7061551   2.4905063
  48.1712420 106.6212877  18.2284871  48.0709147 107.5707234  18.1596962
  47.9533963 106.2931116  17.3560941  47.3725492 103.8697802  -5.1874452
  48.2344656 104.1952700  -4.9278635  47.5575836 103.0829298  -5.7001386
  39.3892908 111.9520142   7.0905737  38.6956379 111.5374094   6.5775691
  40.1365899 111.9940678   6.4939156  55.5258128 102.7426328   1.9560771
  54.9456797 103.4011132   1.5738824  55.2594061 101.9203673   1.5448189
  53.9761695 102.1431386   4.1582091  54.4761473 102.2547921   3.3496410
  54.6197303 101.8392439   4.7982900  48.0343691 110.0510016  17.0449932
  47.5510772 110.8510376  17.2513821  48.1204630 110.0617961  16.0917376
  41.3029650 111.8838395   4.9671752  41.2800338 111.9826083   4.0153635
  41.6130287 112.7303546   5.2888918  43.9617028 113.9414550   9.0818366
  44.9160282 113.9098493   9.0148298  43.7629552 113.4805174   9.8968592
  44.5516410 112.5115666  11.6489164  45.3709299 113.0059745  11.6724001
  44.8253218 111.5947635  11.6206731  54.3083006 104.9026419   1.0117119
  53.4208861 105.1876069   0.7937314  54.7236995 104.7420182   0.1644396
  57.6597542 104.9272940   4.7271459  58.4357933 105.4169392   4.9996075
  56.9345677 105.3530994   5.1843328  60.0970101 105.6400559   5.7845399
  60.6914592 105.3996295   5.0738708  60.1696685 104.9207690   6.4118936
  54.2824030 110.4180955   1.2267410  54.2259231 110.8749506   0.3875042
  54.8352373 109.6571639   1.0490252  58.0928836 106.2070687   2.0517529
  57.8365770 105.8067322   2.8825737  57.4681704 106.9214481   1.9267668
  62.4041174 108.9466760   4.5588820  61.8440732 109.0159949   5.3320383
  61.7984677 108.7707744   3.8388317  45.4736383 120.3803487   6.3107007
  45.3568767 121.3248919   6.2085697  44.6528829 120.0777048   6.6992806
  39.8051324 106.8453800  12.3481361  40.4510188 106.3352754  12.8368586
  39.5968475 107.5822482  12.9224786  52.3304717 113.9134648  17.8473502
  53.1995876 114.0875300  17.4860136  51.8511468 114.7329065  17.7249231
  48.3254935 101.1093845  -1.8994743  48.3133605 102.0535685  -1.7426472
  49.2178357 100.9263990  -2.1935282  46.4990897 121.0331749   9.5262935
  47.4018143 121.0655359   9.8429430  46.2728267 120.1032200   9.5409271
  48.2544499 119.7862735   6.1873014  47.3040130 119.7864597   6.0737386
  48.5576985 119.0395470   5.6709048  52.1407054  97.7036622   2.3551194
  51.3739450  97.1495108   2.5007876  52.5517759  97.7758490   3.2165346
  44.1448815 103.9921417  16.4456375  45.0080277 103.6358222  16.6559700
  43.5714226 103.6535312  17.1331779  61.2806682 126.7285554  13.1466506
  61.2695322 126.3338352  12.2747010  61.4427321 125.9951626  13.7400278
  66.4672308 116.9971535   9.6899571  66.1355633 117.8666946   9.4660786
  65.8717922 116.6807819  10.3693602  60.4341837 123.1356267  14.7127819
  59.6575171 123.6950187  14.7030683  61.0732400 123.6213050  15.2342689
  58.6888210 125.9441720  14.2745786  59.4302894 126.4826764  13.9980609
  57.9825195 126.5708009  14.4317337  60.5174619 123.0243467  10.2451504
  61.3635815 123.4482881  10.3886153  60.4573257 122.3677092  10.9390067
  63.6674065 120.6847836  11.9032678  63.4234997 121.4389896  11.3666953
  63.9433995 121.0633183  12.7379925  57.4249573 123.0981368  15.0761096
  56.7948234 123.7797649  15.3096492  57.3185661 122.9864450  14.1314234
  51.0032249 123.0183655   8.4342011  51.2540287 123.9030665   8.6999587
  51.5391797 122.8388256   7.6617102  56.7030316 117.4002134  17.4386347
  56.3097262 116.8468333  18.1133991  57.5196456 117.7112713  17.8292864
  59.6198277 118.8160013  15.0306603  60.3607990 119.4167166  14.9511066
  59.8516200 118.0737651  14.4724646  54.7639615 124.0016380  13.3084833
  54.6493130 123.1001638  13.6091932  53.9084133 124.2480077  12.9569649
  60.3985745 129.7381050  13.7777243  60.9314082 128.9769338  13.5476551
  59.8699826 129.4454702  14.5201398  63.5655440 114.8441116   9.3070885
  63.2219709 115.7342758   9.2309996  63.9334403 114.6542774   8.4440470
  58.8894866 117.2984501   6.2786300  59.7547863 117.1027310   5.9192189
  58.9572375 117.0694853   7.2055657  57.0670620 120.5883884   8.2916428
  57.7069999 120.4472643   7.5939391  56.2348151 120.3018397   7.9155030
  55.5424162 121.9721966  10.2388239  56.2147215 121.7639328   9.5900888
  54.7153948 121.7744052   9.7993471  61.4449734 118.5983907  12.2553900
  60.7977649 119.2973856  12.1618376  62.2150749 119.0320051  12.6230148
  64.8528532 128.8632759  15.3304453  64.7014038 128.6343311  14.4134537
  64.8433211 129.8203360  15.3435798  55.9451659 125.2464569  10.9990676
  55.8071457 124.5144808  11.6002215  56.8556583 125.1573469  10.7174864
  58.5733960 124.9584528  10.4874356  59.2833578 124.3177720  10.4460974
  58.5303268 125.2097423  11.4100536  57.2862894 121.9449746  12.3069995
  56.7500251 121.4940484  12.9591591  56.6979602 122.0795655  11.5640459
  53.0202015 121.0805754   9.3922990  52.9360204 120.4731423   8.6573400
  52.1984721 121.5714772   9.3932486  61.4538755 125.4638614  15.8938475
  60.7779392 125.3632743  16.5640850  62.2766389 125.3077827  16.3574472
  47.7935269 124.2716150   7.2355433  47.8319369 123.7379741   8.0292551
  47.2875562 123.7451356   6.6166410  55.1726031 119.1180691  10.7317975
  55.2367358 119.9795522  10.3195373  55.1093152 118.5054693   9.9990334
  54.6478304 121.1903823  14.3791010  55.2750343 120.8080901  14.9928534
  53.7906223 120.9718025  14.7446702  57.7564407 118.4090676  12.5677565
  58.2798809 118.6552972  13.3303874  57.5376740 119.2410710  12.1480702
  58.9616952 119.3504371  10.2527235  58.6213773 118.5512184  10.6547915
  58.2555958 119.6506082   9.6804069  59.6133424 116.4353683   8.7054558
  60.4359493 115.9614161   8.5833449  59.8571488 117.2144167   9.2053245
  60.8494516 120.5512692   8.6080554  60.5912294 121.4729763   8.6064884
  60.3179557 120.1543127   9.2981018  51.6117665 125.6678148   9.4534198
  51.0671133 126.4437956   9.5854472  52.4897015 126.0148953   9.2953320
  52.3983687 124.7948045  12.3464355  51.6565423 124.9430680  12.9328985
  52.0776431 125.0556310  11.4831104  57.8846361 120.5121729  16.0404929
  57.9334517 121.3883852  15.6582699  58.4268875 119.9699123  15.4676572
  65.7802844 123.8886247  13.9498102  66.6812707 123.7492712  13.6582099
  65.8550819 124.0540702  14.8896279  60.1145650 121.2653102  12.7951288
  59.2448959 121.5586668  12.5233876  60.3505130 121.8493547  13.5158552
  62.8184683 117.4832719  10.3116708  63.3366627 118.2193746   9.9863197
  62.4639816 117.7896712  11.1463467  64.9620515 119.4106219   9.7648581
  64.3670447 119.6911231   9.0695070  64.6770212 119.9000119  10.5365322
  61.1416237 128.4670554  16.1959341  62.0619247 128.6449153  16.3899387
  61.1065820 127.5226599  16.0439040  59.0106175 121.9504795  18.2284871
  58.9102902 122.8999151  18.1596962  58.7927717 121.6223033  17.3560941
  58.8737445 125.3801933  17.0449932  58.3904527 126.1802293  17.2513821
  58.9598384 125.3909878  16.0917376  55.3910165 127.8407584  11.6489164
  56.2103054 128.3351663  11.6724001  55.6646972 126.9239552  11.6206731
  50.6445079 122.1745718  12.3481361  51.2903942 121.6644672  12.8368586
  50.4362230 122.9114400  12.9224786  63.1698471 129.2426565  17.8473502
  64.0389631 129.4167218  17.4860136  62.6905223 130.0620982  17.7249231
  54.9842570 119.3213335  16.4456375  55.8474031 118.9650140  16.6559700
  54.4107981 118.9827230  17.1331779  39.6019174  73.0763841  -0.1288187
  39.5907815  72.6816639  -1.0007683  39.7639813  72.3429913   0.4645585
  36.3226435  75.8600953  -1.1809003  36.0316301  76.7646583  -1.2962337
  36.9583419  75.9017480  -0.4664933  41.2816320  75.5462368  -4.1859209
  40.9817043  76.4487407  -4.2943402  40.9367380  75.2794551  -3.3338056
  38.7554330  69.4834554   1.4373125  37.9787664  70.0428474   1.4275990
  39.3944893  69.9691337   1.9587995  37.0100702  72.2920007   0.9991092
  37.7515386  72.8305051   0.7225916  36.3037687  72.9186296   1.1562644
  42.4856042  74.4349148  -0.4036746  42.8939398  73.9931558  -1.1482114
  41.7633303  73.8601775  -0.1502553  43.9425020  73.5764735  -2.6944750
  44.1541915  74.2196495  -3.3710369  43.8954768  72.7427052  -3.1622820
  45.0570848  76.4536691  -4.5222393  45.8788291  76.0516878  -4.8039711
  45.0533251  76.3504925  -3.5706277  38.8227451  76.0020734  -2.3661682
  38.8871884  76.4641141  -1.5303510  38.1138375  75.3718099  -2.2379372
  40.1643945  78.2912408   1.6317640  39.7207799  77.5048787   1.3138545
  40.8261159  78.4791558   0.9661531  34.9231066  79.8208210  -3.8421681
  35.4738491  79.6925273  -4.6144687  34.0842542  80.1203099  -4.1926788
  42.2625183  78.5715208  -0.3400959  42.2443659  79.3924089  -0.8320689
  43.1845103  78.4469283  -0.1150817  38.7198237  76.0859337   0.5022550
  39.2526574  75.3247626   0.2721858  38.1912318  75.7932989   1.2446704
  47.2510366  75.0180603  -6.0524006  47.6846873  74.9255892  -5.2040952
  47.9641947  74.9938103  -6.6903990  40.9838261  78.6182697  -4.5190906
  41.0375283  79.1873633  -3.7513190  40.1153042  78.7884582  -4.8836869
  48.1125915  75.0604303  -3.5191121  48.3061806  75.9650114  -3.2731846
  48.0126534  74.6011722  -2.6852536  43.1741024  75.2111046   2.0549760
  43.0226531  74.9821598   1.1379843  43.1645704  76.1681648   2.0681105
  44.8833231  78.2430169   0.1326242  44.8245777  77.5589389  -0.5343175
  45.2852749  78.9849159  -0.3193132  44.8850638  76.2069753  -1.6359779
  43.9977417  75.8695674  -1.5133380  45.4549189  75.4752784  -1.3991013
  38.4151791  80.8671205  -4.6698536  38.3421963  81.6726176  -4.1579231
  37.9729185  81.0663171  -5.4950514  40.8750475  80.7658039  -2.5140377
  41.5878447  81.4005504  -2.5864475  40.3840504  80.8621905  -3.3300375
  35.9262389  78.5152482  -1.6934806  36.6271848  79.1488965  -1.5405412
  35.4557503  78.8567214  -2.4539167  39.7751247  71.8116901   2.6183781
  39.0991885  71.7111030   3.2886157  40.5978881  71.6556115   3.0819779
  38.5174030  83.1183828  -3.1458603  39.0692338  83.2815450  -2.3809517
  38.8580224  83.7088266  -3.8178578  43.3684905  77.9445086   2.7090052
  43.9124809  78.5575044   2.2145007  42.7871750  78.5024664   3.2257065
  41.6542418  81.0665804  -6.1594921  41.5293557  80.2655544  -6.6683975
  42.3121509  81.5611997  -6.6480951  43.7177326  78.8674824  -4.5315370
  42.7707662  78.7480175  -4.6037044  44.0660099  77.9797322  -4.4489109
  44.3257881  79.4856099  -7.2446145  45.2504429  79.2798960  -7.3821694
  44.1573185  79.2372500  -6.3356804  38.6639842  80.6842310  -1.1309948
  38.9726968  80.4391457  -0.2587249  39.4615324  80.8888948  -1.6191078
  46.6913699  77.4041140   2.0451373  45.9009243  77.3865279   1.5055872
  46.4547054  77.9429434   2.8000410  46.8111574  74.2533606  -0.6415898
  46.8609579  74.0883614   0.2999624  46.7025497  73.3860865  -1.0318018
  44.1015337  70.2364534   0.6743408  45.0025199  70.0970999   0.3827406
  44.1763311  70.4018989   1.6141586  48.3129771  76.6730548  -0.3973877
  48.0214579  77.0360528   0.4389584  47.7001902  75.9597556  -0.5760545
  46.5616959  71.7963162  -1.9293819  47.0371081  71.9890809  -2.7374968
  45.6382525  71.8522348  -2.1750435  47.7406706  71.8935042  -4.5823214
  47.7083026  70.9551043  -4.3963530  48.3507330  71.9719079  -5.3157389
  53.5583256  72.9551049  -5.4417177  54.2886644  72.6936337  -4.8809474
  52.9490201  72.2179771  -5.4015109  51.6398553  71.0958912  -4.8442726
  50.9131717  70.9614877  -5.4526234  51.2245840  71.4035740  -4.0386008
  39.4628729  74.8148841   2.9204647  40.3831739  74.9927440   3.1144694
  39.4278312  73.8704887   2.7684347  37.3318667  68.2983082   4.9530177
  37.2315394  69.2477439   4.8842269  37.1140209  67.9701321   4.0806248
  37.1949937  71.7280221   3.7695239  36.7117019  72.5280581   3.9759128
  37.2810876  71.7388165   2.8162683  41.4910963  75.5904853   4.5718808
  42.3602123  75.7645505   4.2105443  41.0117715  76.4099270   4.4494538
  35.6597144  82.7101954  -3.7491758  36.5624390  82.7425564  -3.4325263
  35.4334514  81.7802405  -3.7345422  53.1503439  87.2993479  -6.0235917
  53.7881849  87.1800226  -6.7272577  53.0324282  88.2474323  -5.9647965
  49.9593145  87.2520907  -6.0874392  49.6211657  87.1361971  -6.9753858
  50.8282914  86.8512072  -6.1073386  45.8179961  89.1056383 -10.0977502
  45.2544826  89.0146320 -10.8661214  45.7032356  88.2856288  -9.6175009
  50.4412928  88.4055758  -0.1288187  50.4301569  88.0108557  -1.0007683
  50.6033568  87.6721831   0.4645585  43.3644393  90.6007575  -7.2593281
  44.1565685  90.2598399  -7.6746982  43.6041043  90.7102550  -6.3391128
  47.1620189  91.1892870  -1.1809003  46.8710055  92.0938501  -1.2962337
  47.7977174  91.2309398  -0.4664933  48.0876396  88.5669719  -4.5907643
  48.6839969  88.3425741  -5.3050680  48.1451368  87.8254464  -3.9882195
  52.7044708  85.0244933  -8.9482709  53.4907797  84.6064356  -9.2992292
  52.9683412  85.9291025  -8.7801061  58.1053135  84.9620166  -8.0449731
  58.8378307  84.3919383  -7.8111901  57.3492490  84.5741766  -7.6043225
  49.7229254  87.3847407 -10.8486388  49.3587462  86.8578028 -10.1373467
  50.5796370  86.9945876 -11.0219903  55.6278555  78.6741740  -3.5855122
  55.2961880  79.5437151  -3.8093907  55.0324168  78.3578024  -2.9061092
  52.1210075  90.8754286  -4.1859209  51.8210798  91.7779325  -4.2943402
  51.7761134  90.6086469  -3.3338056  45.5722556  87.3268083  -8.1522505
  44.6473053  87.1944297  -7.9444813  45.8206969  88.1062302  -7.6552562
  55.5207218  83.3936826  -6.5061772  54.6124096  83.3252234  -6.8003011
  55.4694814  83.8708771  -5.6779946  42.9331367  86.9701356  -7.3178716
  43.0623748  87.2235835  -6.4039304  42.2528818  87.5629064  -7.6374061
  49.5948084  84.8126472   1.4373125  48.8181418  85.3720392   1.4275990
  50.2338647  85.2983255   1.9587995  57.3868865  81.5953264  -4.7283898
  56.7443245  81.8885798  -5.3744103  56.8823793  81.4806185  -3.9230701
  47.8494456  87.6211925   0.9991092  48.5909141  88.1596969   0.7225916
  47.1431442  88.2478214   1.1562644  53.3249796  89.7641065  -0.4036746
  53.7333152  89.3223476  -1.1482114  52.6027058  89.1893693  -0.1502553
  49.6780866  84.7013672  -3.0303189  50.5242061  85.1253086  -2.8868540
  49.6179504  84.0447296  -2.3364626  53.6478611  90.3242256  -6.6484457
  53.0187473  90.4887970  -7.3508389  53.2604273  90.7383866  -5.8773493
  57.5267843  91.2596694  -9.2940094  56.8418881  91.6395595  -9.8443060
  57.6111692  91.8692021  -8.5608146  52.8280311  82.3618041  -1.3722016
  52.5841243  83.1160101  -1.9087740  53.1040242  82.7403388  -0.5374769
  54.7818774  88.9056653  -2.6944750  54.9935669  89.5488413  -3.3710369
  54.7348522  88.0718969  -3.1622820  52.3845003  81.5174474  -5.7908178
  51.5229482  81.8155727  -5.4991440  52.4107438  81.7344872  -6.7227145
  49.2006573  90.0616664  -9.3834372  49.6644918  90.3404367 -10.1729750
  48.9363371  89.1600109  -9.5661282  46.0930654  89.6088146  -6.4454609
  46.6632011  90.0375414  -7.0837124  46.6838766  89.3270730  -5.7470423
  48.1375459  86.1839817 -12.5744807  48.8399502  86.6360860 -12.1070881
  47.8056087  85.5423635 -11.9464914  46.5855820  84.7751573   1.8006402
  45.9554481  85.4567854   2.0341799  46.4791908  84.6634655   0.8559541
  41.8800793  84.4423369  -7.2727674  41.0899847  84.6980898  -7.7487563
  42.3712040  85.2571707  -7.1675633  55.8964602  91.7828608  -4.5222393
  56.7182046  91.3808796  -4.8039711  55.8927005  91.6796842  -3.5706277
  43.8315538  84.8067948 -10.3144197  43.0346701  84.9186643  -9.7960701
  43.6041130  85.1454601 -11.1803306  49.6621206  91.3312652  -2.3661682
  49.7265638  91.7933059  -1.5303510  48.9532129  90.7010017  -2.2379372
  40.1638496  84.6953860  -4.8412683  40.4146534  85.5800870  -4.5755107
  40.6998044  84.5158461  -5.6137591  63.9870595  88.1267357  -8.1737421
  63.2334304  87.5574755  -8.3293417  64.1218136  88.0930021  -7.2266787
  45.8636563  79.0772339   4.1631653  45.4703508  78.5238538   4.8379298
  46.6802703  79.3882917   4.5538171  48.7804524  80.4930218   1.7551910
  49.5214237  81.0937371   1.6756372  49.0122447  79.7507856   1.1969952
  43.9245862  85.6786585   0.0330140  43.8099377  84.7771843   0.3337239
  43.0690380  85.9250282  -0.3185044  51.0037700  93.6204326   1.6317640
  50.5601554  92.8340704   1.3138545  51.6654913  93.8083476   0.9661531
  45.7624821  95.1500127  -3.8421681  46.3132246  95.0217191  -4.6144687
  44.9236297  95.4495016  -4.1926788  53.1018938  93.9007126  -0.3400959
  53.0837413  94.7216007  -0.8320689  54.0238858  93.7761201  -0.1150817
  49.5591992  91.4151255   0.5022550  50.0920329  90.6539543   0.2721858
  49.0306073  91.1224907   1.2446704  52.7261687  76.5211321  -3.9683808
  52.3825956  77.4112963  -4.0444698  53.0940649  76.3312979  -4.8314223
  50.2759081  81.3569633 -10.4026135  49.4200677  80.9676483 -10.5820496
  50.6886032  81.4361594 -11.2626349  51.8058227  78.8915976  -6.0034575
  51.3023023  78.8546111  -6.8166770  52.0988834  79.8008719  -5.9437918
  48.0501113  78.9754706  -6.9968393  48.9154110  78.7797515  -7.3562504
  48.1178622  78.7465058  -6.0699037  52.4798273  84.3847024 -13.6351592
  52.1748408  84.6993173 -12.7841449  53.4328715  84.4628444 -13.5924259
  50.9244705  90.5437248 -11.9858638  50.3966066  89.8090007 -12.2985401
  50.4232207  91.3211924 -12.2318670  55.9037551  88.7386268  -6.8691592
  55.2461225  89.4285529  -6.7811463  56.7077950  89.1282700  -6.5257605
  54.7143009  87.0930641  -8.8187650  55.2274891  87.7260633  -8.3165940
  55.3644233  86.4931836  -9.1844290  51.1923840  84.5680096  -6.5729310
  50.2746402  84.7895043  -6.7307621  51.6083984  84.6426407  -7.4317602
  51.9758888  85.9671512 -11.4426629  52.7230707  86.4792909 -11.7519507
  52.2450478  85.6455565 -10.5822236  54.4237725  83.0028628  -9.4607840
  53.6860482  82.4906014  -9.1297597  54.6764499  82.5629010 -10.2724563
  54.5249352  75.7804880  -8.8666071  54.8308229  74.9202244  -9.1540156
  55.2501957  76.3722500  -9.0667077  48.7970432  86.0758673  -8.3589880
  48.8519042  85.1232510  -8.4347403  47.9861634  86.2318112  -7.8748581
  46.7362792  84.6935733 -10.5999501  45.9230658  84.9929904 -10.1934309
  47.2321786  84.2991422  -9.8825019  48.8871370  94.6893490  -8.6665236
  48.8447549  94.9154336  -9.5956704  49.8034069  94.4556865  -8.5179435
  52.3337004  85.1577557  -1.7684607  52.6886392  85.3849031  -0.9090141
  52.9809135  85.4895934  -2.3907352  46.2276867  82.2654089  -4.9838266
  46.8676246  82.1242848  -5.6815303  45.3954397  81.9788602  -5.3599664
  58.0904120  90.3472520  -6.0524006  58.5240627  90.2547809  -5.2040952
  58.8035701  90.3230021  -6.6903990  47.0037171  91.5656519  -8.8703273
  47.7977769  91.0706839  -9.0720698  46.2928863  91.0374382  -9.2335568
  51.8232015  93.9474614  -4.5190906  51.8769038  94.5165551  -3.7513190
  50.9546797  94.1176500  -4.8836869  44.7030409  83.6492171  -3.0366455
  45.3753462  83.4409533  -3.6853806  43.8760195  83.4514257  -3.4761222
  58.9519670  90.3896221  -3.5191121  59.1455560  91.2942032  -3.2731846
  58.8520288  89.9303640  -2.6852536  50.6055981  80.2754112  -1.0200794
  49.9583896  80.9744061  -1.1136317  51.3756996  80.7090256  -0.6524545
  54.0134779  90.5402964   2.0549760  53.8620285  90.3113515   1.1379843
  54.0039458  91.4973565   2.0681105  50.7820115  88.1134877  -2.9603974
  51.7112175  88.2646036  -3.1335007  50.3611145  88.2018897  -3.8155327
  49.5808447  92.1385541  -5.1905436  49.4419533  91.7704325  -4.3179498
  48.7923043  92.6533180  -5.3621478  51.1313662  91.5167144  -7.8016598
  50.7963495  91.4767914  -6.9058949  50.6317608  90.8511860  -8.2746188
  45.1057906  86.9234774  -2.2764017  44.9677704  86.1915012  -1.6752478
  46.0162829  86.8343674  -2.5579830  47.7340207  86.6354733  -2.7880338
  48.4439825  85.9947925  -2.8293719  47.6909515  86.8867628  -1.8654157
  55.7226985  93.5722086   0.1326242  55.6639531  92.8881306  -0.5343175
  56.1246504  94.3141076  -0.3193132  46.4469141  83.6219951  -0.9684698
  45.9106498  83.1710689  -0.3163102  45.8585849  83.7565860  -1.7114234
  55.7244393  91.5361670  -1.6359779  54.8371171  91.1987592  -1.5133380
  56.2942944  90.8044701  -1.3991013  42.1808262  82.7575959  -3.8831704
  42.0966451  82.1501628  -4.6181294  41.3590968  83.2484977  -3.8822207
  49.2545546  96.1963123  -4.6698536  49.1815717  97.0018094  -4.1579231
  48.8122939  96.3955088  -5.4950514  52.3531976  81.2429522  -8.5161509
  52.8500675  80.4899484  -8.8360438  51.5818957  81.2793839  -9.0818299
  60.2061733  86.9469888  -6.8743217  60.1951609  87.8294603  -7.2449284
  59.3379113  86.5941438  -7.0688680  51.7144229  96.0949957  -2.5140377
  52.4272202  96.7297421  -2.5864475  51.2234258  96.1913823  -3.3300375
  53.4361756  90.0001209 -10.9423085  52.5018035  90.1202672 -11.1118381
  53.6138425  89.0973676 -11.2063075  48.9366944  83.3846905  -8.7889824
  48.5664732  82.8317945  -8.1008918  49.4326037  82.7805039  -9.3414824
  56.8234308  85.8418529 -10.4073051  57.2894760  86.6746520 -10.4812748
  57.2741808  85.3763510  -9.7027793  46.7656143  93.8444400  -1.6934806
  47.4665602  94.4780883  -1.5405412  46.2951258  94.1859132  -2.4539167
  54.7950970  78.2099116  -6.3682150  53.8814050  78.4403342  -6.1999943
  55.2244072  78.2937560  -5.5168117  54.5657429  86.3989008  -3.8682256
  53.9128879  86.6464915  -4.5229803  54.9437809  85.5853146  -4.2019778
  50.6145002  87.1408819   2.6183781  49.9385639  87.0402948   3.2886157
  51.4372636  86.9848032   3.0819779  42.3623861  93.3780755  -4.7603703
  42.9477298  92.6324443  -4.6275799  42.1648700  93.6884712  -3.8767040
  36.9541516  85.9486355  -6.0399260  36.9925615  85.4149946  -5.2462142
  36.4481809  85.4221561  -6.6588283  49.3567785  98.4475746  -3.1458603
  49.9086093  98.6107368  -2.3809517  49.6973978  99.0380184  -3.8178578
  44.3332278  80.7950896  -2.5436718  44.3973605  81.6565727  -2.9559320
  44.2699398  80.1824898  -3.2764359  43.8084551  82.8674028   1.1036316
  44.4356589  82.4851106   1.7173841  42.9512469  82.6488230   1.4692009
  54.2078659  93.2737004   2.7090052  54.7518563  93.8866962   2.2145007
  53.6265504  93.8316582   3.2257065  52.4936172  96.3957722  -6.1594921
  52.3687312  95.5947461  -6.6683975  53.1515263  96.8903915  -6.6480951
  44.1144340  82.7506454  -6.9817780  43.3930926  83.3642422  -7.1210307
  44.9037596  83.2864219  -7.0601134  54.5571081  94.1966742  -4.5315370
  53.6101416  94.0772093  -4.6037044  54.9053854  93.3089240  -4.4489109
  46.9170654  80.0860881  -0.7077129  47.4405056  80.3323177   0.0549181
  46.6982987  80.9180915  -1.1273991  51.5617514  93.9919458  -8.3311018
  51.4142476  93.0636165  -8.1503448  52.3871007  94.0139549  -8.8153943
  55.1651636  94.8148017  -7.2446145  56.0898183  94.6090878  -7.3821694
  54.9966939  94.5664418  -6.3356804  48.1223199  81.0274576  -3.0227458
  47.7820019  80.2282389  -2.6206778  47.4162205  81.3276287  -3.5950625
  48.7739671  78.1123888  -4.5700135  49.5965740  77.6384366  -4.6921245
  49.0177734  78.8914372  -4.0701449  46.2978250  84.8043009  -6.7608156
  46.1522830  85.1183312  -5.8683875  45.8203453  85.4227909  -7.3137258
  48.1574632  81.7945557  -6.7127267  48.1436201  80.8986650  -7.0494969
  48.8747061  81.8016220  -6.0788981  50.0100763  82.2282897  -4.6674139
  49.7518541  83.1499968  -4.6689809  49.4785803  81.8313331  -3.9773675
  40.7723912  87.3448353  -3.8220495  40.2277380  88.1208161  -3.6900221
  41.6503262  87.6919158  -3.9801374  50.4302719  78.3614847  -8.3072977
  50.4524416  78.4254181  -9.2620997  50.8470778  77.5219356  -8.1132471
  60.8086343  88.0970107 -10.2693754  61.2517489  87.3477432 -10.6674631
  59.9312853  88.0880243 -10.6520022  41.5589934  86.4718249  -0.9290338
  40.8171670  86.6200885  -0.3425708  41.2382678  86.7326515  -1.7923589
  49.5033596  96.0134228  -1.1309948  49.8120723  95.7683374  -0.2587249
  50.3009078  96.2180866  -1.6191078  49.5254208  98.1672137  -8.9004572
  49.0859199  97.6748516  -8.2071715  50.2762325  97.6245105  -9.1412497
  46.9728080  93.7110146  -6.8282270  46.3508090  93.0480851  -7.1280042
  47.6432947  93.7371278  -7.5108622  47.0452608  82.1891934   2.7650236
  47.0940763  83.0654057   2.3828006  47.5875122  81.6469327   2.1921879
  57.5307454  92.7333058   2.0451373  56.7402997  92.7157196   1.5055872
  57.2940808  93.2721351   2.8000410  57.6505329  89.5825524  -0.6415898
  57.7003334  89.4175531   0.2999624  57.5419252  88.7152783  -1.0318018
  54.9409091  85.5656452   0.6743408  55.8418954  85.4262917   0.3827406
  55.0157065  85.7310907   1.6141586  49.2751896  82.9423307  -0.4803405
  48.4055206  83.2356873  -0.7520817  49.5111377  83.5263752   0.2403858
  59.1523525  92.0022466  -0.3973877  58.8608334  92.3652446   0.4389584
  58.5395657  91.2889474  -0.5760545  60.3519208  89.5675345  -7.8771307
  61.1866099  90.0065149  -7.7133746  60.4878337  89.0913999  -8.6963061
  57.4010714  87.1255080  -1.9293819  57.8764835  87.3182726  -2.7374968
  56.4776279  87.1814266  -2.1750435  51.9790930  79.1602924  -2.9637985
  52.4972874  79.8963951  -3.2891496  51.6246063  79.4666917  -2.1291226
  52.2303524  75.5803206  -7.4437088  52.5105278  74.9126395  -6.8176662
  53.0154131  75.7732302  -7.9562425  56.1012383  84.0020840  -3.6965513
  57.0529806  84.1018938  -3.6753289  55.9315833  83.2099109  -3.1867429
  54.1226762  81.0876423  -3.5106112  53.5276694  81.3681436  -4.2059624
  53.8376459  81.5770324  -2.7389371  58.5800460  87.2226960  -4.5823214
  58.5476781  86.2842961  -4.3963530  59.1901084  87.3010997  -5.3157389
  58.7294949  84.0138003  -4.5364930  58.2133998  83.2296460  -4.7235002
  59.6134897  83.6856720  -4.3718411  56.3905676  77.7579019  -8.5769118
  56.1930497  77.4494107  -7.6925786  57.0005381  78.4840658  -8.4471188
  64.3977010  88.2842967  -5.4417177  65.1280399  88.0228255  -4.8809474
  63.7883956  87.5471689  -5.4015109  62.4792307  86.4250829  -4.8442726
  61.7525471  86.2906794  -5.4526234  62.0639594  86.7327658  -4.0386008
  50.3022484  90.1440759   2.9204647  51.2225493  90.3219358   3.1144694
  50.2672067  89.1996804   2.7684347  39.5204649  85.3379353  -8.1542078
  39.2007433  84.4844661  -8.4467704  38.9738077  85.5527931  -7.3984111
  43.2984556  88.0541794  -4.4372571  43.5170566  88.9858902  -4.4184538
  43.7110330  87.6949768  -3.6517768  48.1712422  83.6274999   4.9530177
  48.0709149  84.5769356   4.8842269  47.9533964  83.2993238   4.0806248
  39.3892909  88.9582264  -6.1848956  38.6956380  88.5436217  -6.6979002
  40.1365900  89.0002801  -6.7815538  55.5258130  79.7488451 -11.3193922
  54.9456799  80.4073255 -11.7015870  55.2594062  78.9265796 -11.7306505
  53.9761696  79.1493509  -9.1172602  54.4761474  79.2610043  -9.9258283
  54.6197304  78.8454562  -8.4771793  48.0343692  87.0572138   3.7695239
  47.5510773  87.8572498   3.9759128  48.1204631  87.0680083   2.8162683
  41.3029651  88.8900518  -8.3082942  41.2800339  88.9888205  -9.2601058
  41.6130288  89.7365669  -7.9865775  43.9617029  90.9476673  -4.1936327
  44.9160283  90.9160615  -4.2606396  43.7629553  90.4867297  -3.3786101
  44.5516411  89.5177789  -1.6265529  45.3709300  90.0121868  -1.6030692
  44.8253219  88.6009757  -1.6547962  54.3083008  81.9088541 -12.2637574
  53.4208863  82.1938192 -12.4817379  54.7236997  81.7482305 -13.1110297
  57.6597544  81.9335062  -8.5483235  58.4357934  82.4231515  -8.2758618
  56.9345678  82.3593117  -8.0911365  60.0970102  82.6462682  -7.4909294
  60.6914593  82.4058418  -8.2015986  60.1696686  81.9269812  -6.8635758
  54.2824031  87.4243077 -12.0487284  54.2259233  87.8811629 -12.8879651
  54.8352374  86.6633762 -12.2264441  58.0928837  83.2132809 -11.2237164
  57.8365771  82.8129445 -10.3928957  57.4681705  83.9276603 -11.3487025
  62.4041175  85.9528882  -8.7165873  61.8440733  86.0222072  -7.9434311
  61.7984678  85.7769867  -9.4366377  45.4736384  97.3865610  -6.9647687
  45.3568768  98.3311042  -7.0668996  44.6528830  97.0839171  -6.5761887
  39.8051326  83.8515923  -0.9273332  40.4510189  83.3414877  -0.4386107
  39.5968477  84.5884605  -0.3529907  52.3304718  90.9196770   4.5718808
  53.1995877  91.0937423   4.2105443  51.8511469  91.7391187   4.4494538
  46.4990898  98.0393871  -3.7491758  47.4018145  98.0717482  -3.4325263
  46.2728268  97.1094322  -3.7345422  48.2544500  96.7924858  -7.0881680
  47.3040131  96.7926720  -7.2017307  48.5576986  96.0457593  -7.6045645
  44.1448817  80.9983540   3.1701682  45.0080278  80.6420345   3.3805006
  43.5714227  80.6597435   3.8577086  61.2806683 103.7347676  -0.1288187
  61.2695324 103.3400474  -1.0007683  61.4427322 103.0013749   0.4645585
  66.4672310  94.0033657  -3.5855122  66.1355634  94.8729068  -3.8093907
  65.8717923  93.6869942  -2.9061092  60.4341839 100.1418389   1.4373125
  59.6575173 100.7012309   1.4275990  61.0732402 100.6275172   1.9587995
  58.6888211 102.9503843   0.9991092  59.4302895 103.4888887   0.7225916
  57.9825196 103.5770131   1.1562644  60.5174621 100.0305590  -3.0303189
  61.3635816 100.4545003  -2.8868540  60.4573258  99.3739214  -2.3364626
  63.6674066  97.6909958  -1.3722016  63.4234998  98.4452019  -1.9087740
  63.9433996  98.0695306  -0.5374769  57.4249575 100.1043491   1.8006402
  56.7948235 100.7859772   2.0341799  57.3185663  99.9926572   0.8559541
  51.0032250 100.0245777  -4.8412683  51.2540288 100.9092787  -4.5755107
  51.5391798  99.8450379  -5.6137591  56.7030317  94.4064257   4.1631653
  56.3097263  93.8530455   4.8379298  57.5196458  94.7174835   4.5538171
  59.6198278  95.8222136   1.7551910  60.3607992  96.4229289   1.6756372
  59.8516201  95.0799774   1.1969952  54.7639616 101.0078503   0.0330140
  54.6493132 100.1063760   0.3337239  53.9084134 101.2542200  -0.3185044
  60.3985746 106.7443173   0.5022550  60.9314083 105.9831461   0.2721858
  59.8699827 106.4516825   1.2446704  63.5655441  91.8503239  -3.9683808
  63.2219711  92.7404880  -4.0444698  63.9334404  91.6604896  -4.8314223
  58.8894868  94.3046624  -6.9968393  59.7547864  94.1089432  -7.3562504
  58.9572377  94.0756975  -6.0699037  57.0670621  97.5946006  -4.9838266
  57.7070001  97.4534765  -5.6815303  56.2348152  97.3080520  -5.3599664
  55.5424163  98.9784088  -3.0366455  56.2147217  98.7701450  -3.6853806
  54.7153950  98.7806174  -3.4761222  61.4449735  95.6046029  -1.0200794
  60.7977650  96.3035979  -1.1136317  62.2150751  96.0382173  -0.6524545
  64.8528533 105.8694881   2.0549760  64.7014040 105.6405433   1.1379843
  64.8433213 106.8265483   2.0681105  55.9451660 102.2526691  -2.2764017
  55.8071458 101.5206930  -1.6752478  56.8556584 102.1635591  -2.5579830
  58.5733961 101.9646651  -2.7880338  59.2833580 101.3239843  -2.8293719
  58.5303269 102.2159546  -1.8654157  57.2862895  98.9511869  -0.9684698
  56.7500252  98.5002607  -0.3163102  56.6979604  99.0857777  -1.7114234
  53.0202016  98.0867876  -3.8831704  52.9360205  97.4793546  -4.6181294
  52.1984723  98.5776895  -3.8822207  61.4538756 102.4700736   2.6183781
  60.7779393 102.3694866   3.2886157  62.2766390 102.3139950   3.0819779
  47.7935270 101.2778273  -6.0399260  47.8319370 100.7441864  -5.2462142
  47.2875563 100.7513479  -6.6588283  55.1726033  96.1242814  -2.5436718
  55.2367359  96.9857644  -2.9559320  55.1093153  95.5116815  -3.2764359
  54.6478305  98.1965946   1.1036316  55.2750344  97.8143023   1.7173841
  53.7906224  97.9780148   1.4692009  57.7564408  95.4152798  -0.7077129
  58.2798810  95.6615095   0.0549181  57.5376742  96.2472833  -1.1273991
  58.9616953  96.3566493  -3.0227458  58.6213774  95.5574306  -2.6206778
  58.2555960  96.6568204  -3.5950625  59.6133425  93.4415806  -4.5700135
  60.4359495  92.9676284  -4.6921245  59.8571489  94.2206290  -4.0701449
  60.8494518  97.5574815  -4.6674139  60.5912295  98.4791885  -4.6689809
  60.3179558  97.1605249  -3.9773675  51.6117666 102.6740271  -3.8220495
  51.0671134 103.4500079  -3.6900221  52.4897016 103.0211075  -3.9801374
  52.3983688 101.8010167  -0.9290338  51.6565424 101.9492802  -0.3425708
  52.0776432 102.0618433  -1.7923589  57.8846362  97.5183852   2.7650236
  57.9334518  98.3945975   2.3828006  58.4268877  96.9761245   2.1921879
  65.7802845 100.8948370   0.6743408  66.6812708 100.7554835   0.3827406
  65.8550820 101.0602825   1.6141586  60.1145651  98.2715224  -0.4803405
  59.2448960  98.5648791  -0.7520817  60.3505131  98.8555669   0.2403858
  62.8184685  94.4894841  -2.9637985  63.3366629  95.2255868  -3.2891496
  62.4639817  94.7958835  -2.1291226  64.9620517  96.4168341  -3.5106112
  64.3670449  96.6973354  -4.2059624  64.6770213  96.9062242  -2.7389371
  61.1416238 105.4732677   2.9204647  62.0619248 105.6511276   3.1144694
  61.1065821 104.5288722   2.7684347  59.0106176  98.9566917   4.9530177
  58.9102903  99.9061274   4.8842269  58.7927718  98.6285156   4.0806248
  58.8737446 102.3864056   3.7695239  58.3904528 103.1864416   3.9759128
  58.9598385 102.3972001   2.8162683  55.3910166 104.8469707  -1.6265529
  56.2103055 105.3413785  -1.6030692  55.6646974 103.9301675  -1.6547962
  50.6445080  99.1807841  -0.9273332  51.2903944  98.6706795  -0.4386107
  50.4362231  99.9176522  -0.3529907  63.1698472 106.2488688   4.5718808
  64.0389632 106.4229340   4.2105443  62.6905224 107.0683105   4.4494538
  54.9842571  96.3275458   3.1701682  55.8474033  95.9712263   3.3805006
  54.4107982  95.9889352   3.8577086  61.2806684  80.7409799 -13.4042880
  61.2695325  80.3462597 -14.2762377  61.4427324  80.0075871 -12.8109109
  60.4341840  77.1480512 -11.8381568  59.6575174  77.7074432 -11.8478703
  61.0732403  77.6337295 -11.3166698  58.6888212  79.9565965 -12.2763601
  59.4302897  80.4951009 -12.5528777  57.9825198  80.5832254 -12.1192049
  60.3985748  83.7505295 -12.7732144  60.9314084  82.9893583 -13.0032836
  59.8699829  83.4578947 -12.0307989  64.8528534  82.8757004 -11.2204934
  64.7014041  82.6467556 -12.1374850  64.8433214  83.8327605 -11.2073589
  61.4538758  79.4762859 -10.6570912  60.7779395  79.3756988  -9.9868537
  62.2766392  79.3202073 -10.1934915  65.7802847  77.9010492 -12.6011285
  66.6812709  77.7616957 -12.8927287  65.8550821  78.0664947 -11.6613108
  61.1416240  82.4794799 -10.3550046  62.0619249  82.6573398 -10.1610000
  61.1065823  81.5350845 -10.5070347  59.0106177  75.9629040  -8.3224516
  58.9102904  76.9123397  -8.3912425  58.7927720  75.6347279  -9.1948446
  58.8737448  79.3926179  -9.5059454  58.3904529  80.1926539  -9.2995565
  58.9598387  79.4034123 -10.4592010  63.1698474  83.2550811  -8.7035885
  64.0389633  83.4291463  -9.0649250  62.6905225  84.0745228  -8.8260156
 144.0079151 144.0079151 144.0079151 109.4712190 109.4712190 109.4712190
